INSANE! Membrane UpperLeaflet>loPI=1 LowerLeaflet>loPI=1
49675
    1loPI    C1    1   4.100   4.140  10.333 -0.0014 -0.0828  0.3927
    1loPI    C2    2   4.494   4.150  10.266 -0.0267 -0.1483  0.2311
    1loPI    C3    3   4.354   4.193  10.638  0.1129  0.2913  0.2384
    1loPI   PO4    4   4.011   4.021  10.127 -0.1397 -0.0744  0.1234
    1loPI   GL1    5   3.938   4.091   9.787  0.1653 -0.1741  0.2435
    1loPI   GL2    6   3.612   4.394   9.631 -0.2871  0.1545  0.0967
    1loPI   C1A    7   3.910   3.908   9.301  0.2021  0.1818  0.0946
    1loPI   C2A    8   3.884   3.761   8.916 -0.2325 -0.0819  0.3342
    1loPI   C3A    9   3.841   3.839   8.533  0.0300 -0.0933 -0.0002
    1loPI   C4A   10   3.697   3.642   8.179 -0.1570 -0.3139  0.1030
    1loPI   C5A   11   3.887   3.722   7.810 -0.0875  0.0272 -0.3389
    1loPI   C6A   12   3.801   3.621   7.431 -0.3453  0.0204 -0.3599
    1loPI   C1B   13   3.613   4.435   9.262 -0.2636 -0.4385 -0.1170
    1loPI   C2B   14   3.584   4.264   8.908  0.0083 -0.0239 -0.3522
    1loPI   C3B   15   3.577   4.241   8.512 -0.0891  0.0363  0.0026
    1loPI   C4B   16   3.668   4.211   8.086  0.2050 -0.0800 -0.0390
    2loPI    C1   17  14.972   8.288  10.302  0.0678 -0.0936 -0.0568
    2loPI    C2   18  15.351   8.414  10.311 -0.0002  0.1272 -0.1934
    2loPI    C3   19  15.089   8.551  10.580  0.0232 -0.0510 -0.0782
    2loPI   PO4   20  14.934   8.290   9.947  0.0489 -0.0190  0.0469
    2loPI   GL1   21  14.949   8.292   9.549 -0.2346 -0.0108  0.1896
    2loPI   GL2   22  14.891   8.548   9.375 -0.0582 -0.0232 -0.1515
    2loPI   C1A   23  14.981   8.132   9.047 -0.0572  0.0364 -0.1889
    2loPI   C2A   24  15.260   8.148   8.702  0.0899 -0.1487 -0.1410
    2loPI   C3A   25  15.323   8.174   8.287  0.1549  0.0441  0.1069
    2loPI   C4A   26  15.325   8.464   7.952 -0.2117  0.0731 -0.0447
    2loPI   C5A   27  14.928   8.690   7.654 -0.0169  0.1420 -0.1402
    2loPI   C6A   28  14.852   8.854   7.212 -0.0118 -0.1375 -0.0949
    2loPI   C1B   29  14.849   8.830   9.017 -0.1401 -0.1410 -0.2839
    2loPI   C2B   30  14.672   9.096   8.644  0.1699  0.1952  0.1140
    2loPI   C3B   31  14.644   9.179   8.182  0.0957  0.3522 -0.1491
    2loPI   C4B   32  14.721   9.166   7.758 -0.3139  0.3293 -0.2618
    3loPI    C1   33   2.705   1.315  10.712  0.1638  0.1209  0.2246
    3loPI    C2   34   2.873   1.258  11.071 -0.0850 -0.1713  0.2985
    3loPI    C3   35   2.478   1.211  11.025 -0.1140  0.2503  0.0700
    3loPI   PO4   36   2.941   1.212  10.511  0.0042 -0.1178  0.0904
    3loPI   GL1   37   3.061   1.132   9.964 -0.1503 -0.2438  0.1236
    3loPI   GL2   38   3.207   0.849   9.837  0.0814  0.2602 -0.0733
    3loPI   C1A   39   2.835   1.091   9.512 -0.0954  0.0524 -0.1594
    3loPI   C2A   40   2.829   0.976   9.135  0.2181  0.3469  0.0953
    3loPI   C3A   41   2.746   1.009   8.678  0.2710  0.1689 -0.0439
    3loPI   C4A   42   2.829   0.984   8.309  0.0495 -0.0175  0.4599
    3loPI   C5A   43   2.739   1.044   7.915 -0.1081 -0.0686  0.1107
    3loPI   C6A   44   2.587   0.852   7.610 -0.2756 -0.0012  0.3258
    3loPI   C1B   45   3.325   0.960   9.420  0.1532  0.0714  0.1570
    3loPI   C2B   46   3.380   1.005   8.949  0.0276  0.0059 -0.2614
    3loPI   C3B   47   3.392   0.995   8.559  0.1245  0.2337  0.1282
    3loPI   C4B   48   3.296   0.985   8.103  0.1371  0.0012  0.0513
    4loPI    C1   49  16.866  18.508   9.969  0.0341 -0.2180 -0.0321
    4loPI    C2   50  16.492  18.649   9.950  0.1445  0.0899  0.0150
    4loPI    C3   51  16.680  18.628  10.302  0.1494 -0.1278  0.0006
    4loPI   PO4   52  16.892  18.339   9.808  0.2280  0.0991  0.0738
    4loPI   GL1   53  17.127  18.110   9.503 -0.0457 -0.0370  0.0034
    4loPI   GL2   54  16.863  18.191   9.298  0.1662  0.0878  0.0463
    4loPI   C1A   55  17.223  17.975   9.071  0.0135  0.0803  0.2723
    4loPI   C2A   56  17.253  18.057   8.635  0.1140  0.1056  0.1529
    4loPI   C3A   57  17.210  18.175   8.235  0.0783 -0.0854 -0.3092
    4loPI   C4A   58  16.989  18.027   7.907 -0.0982  0.0718 -0.1655
    4loPI   C5A   59  17.059  18.158   7.550 -0.3359  0.1606 -0.0378
    4loPI   C6A   60  17.431  18.261   7.310  0.2112  0.0318  0.0546
    4loPI   C1B   61  16.693  18.090   8.967  0.0770  0.2076  0.1808
    4loPI   C2B   62  16.729  18.150   8.528 -0.4026 -0.0978 -0.0521
    4loPI   C3B   63  16.557  17.962   8.173  0.2896  0.2263 -0.1058
    4loPI   C4B   64  16.431  18.060   7.867  0.0216  0.0041  0.0305
    5loPI    C1   65   3.464  14.504   9.763 -0.1074  0.1565 -0.0052
    5loPI    C2   66   3.413  14.649  10.132  0.3398  0.0123  0.1195
    5loPI    C3   67   3.504  14.263  10.080  0.0591 -0.0206 -0.1581
    5loPI   PO4   68   3.536  14.625   9.650 -0.2553  0.1350  0.0472
    5loPI   GL1   69   3.579  14.706   9.201  0.0782  0.2228  0.0204
    5loPI   GL2   70   3.892  14.728   9.086 -0.1519  0.1304  0.4111
    5loPI   C1A   71   3.507  15.013   8.793 -0.1564  0.0065 -0.1676
    5loPI   C2A   72   3.380  15.121   8.348  0.0475  0.0283 -0.1488
    5loPI   C3A   73   3.361  15.253   7.985 -0.0156 -0.2464  0.0191
    5loPI   C4A   74   3.361  15.380   7.474 -0.2230  0.2609  0.0823
    5loPI   C5A   75   3.198  15.630   7.153 -0.0728 -0.0473  0.0935
    5loPI   C6A   76   3.086  15.891   6.875  0.0751 -0.0044  0.0022
    5loPI   C1B   77   3.930  14.603   8.650  0.5172  0.3066  0.2150
    5loPI   C2B   78   3.690  14.720   8.340  0.0248 -0.1787  0.1551
    5loPI   C3B   79   3.610  14.863   7.984  0.1651  0.3091  0.2820
    5loPI   C4B   80   3.681  14.948   7.615 -0.0564  0.1391 -0.3921
    6loPI    C1   81  17.526  10.352   9.913 -0.3615 -0.1781  0.1366
    6loPI    C2   82  17.888  10.186   9.879 -0.2958 -0.0407  0.1555
    6loPI    C3   83  17.735  10.259  10.241 -0.2580  0.0821  0.1471
    6loPI   PO4   84  17.482  10.475   9.674 -0.1746  0.1764  0.2431
    6loPI   GL1   85  17.347  10.536   9.362  0.0727  0.0709 -0.0941
    6loPI   GL2   86  17.110  10.604   9.248 -0.1407 -0.1782 -0.0631
    6loPI   C1A   87  17.433  10.597   8.803  0.1257 -0.1683 -0.5008
    6loPI   C2A   88  17.532  10.791   8.292 -0.1174  0.3086  0.0755
    6loPI   C3A   89  17.669  10.860   7.927  0.2793 -0.0590  0.1228
    6loPI   C4A   90  17.567  11.166   7.615  0.0513  0.2536  0.1029
    6loPI   C5A   91  17.568  11.288   7.157 -0.2020  0.2039  0.2392
    6loPI   C6A   92  17.444  11.638   6.977 -0.1297 -0.1358 -0.1322
    6loPI   C1B   93  16.995  10.764   8.757 -0.0629 -0.0580  0.0122
    6loPI   C2B   94  16.975  10.597   8.325 -0.1306 -0.1982 -0.0301
    6loPI   C3B   95  17.128  10.801   7.989  0.1105  0.1426  0.0285
    6loPI   C4B   96  17.128  10.856   7.602  0.0983 -0.1669 -0.0587
    7loPI    C1   97   7.404  19.150  10.429 -0.1872  0.0418  0.0836
    7loPI    C2   98   7.765  19.064  10.578 -0.0831  0.1945 -0.0774
    7loPI    C3   99   7.437  18.918  10.753  0.0642 -0.0956 -0.0376
    7loPI   PO4  100   7.453  19.254  10.261  0.1794 -0.2793  0.2240
    7loPI   GL1  101   7.271  19.262   9.861 -0.1100 -0.1579  0.0909
    7loPI   GL2  102   7.302  18.912   9.779  0.0578 -0.1288  0.0936
    7loPI   C1A  103   7.040  19.529   9.484 -0.0552 -0.1726  0.0951
    7loPI   C2A  104   6.887  19.699   9.046 -0.0467 -0.0741  0.0297
    7loPI   C3A  105   6.972  19.642   8.615 -0.0379  0.1521  0.1121
    7loPI   C4A  106   6.980  19.613   8.184 -0.0772 -0.1099 -0.2144
    7loPI   C5A  107   7.123  19.814   7.810  0.0765  0.3188 -0.0504
    7loPI   C6A  108   6.868  19.832   7.548 -0.0753 -0.0839  0.2707
    7loPI   C1B  109   7.196  19.026   9.396 -0.2867 -0.1700  0.2014
    7loPI   C2B  110   7.147  19.135   9.069 -0.0199 -0.0663  0.2571
    7loPI   C3B  111   7.154  19.131   8.635 -0.0795 -0.1404  0.1231
    7loPI   C4B  112   7.257  19.116   8.239  0.1682  0.1188 -0.1035
    8loPI    C1  113  17.445   5.679   9.980  0.1979 -0.0658 -0.1517
    8loPI    C2  114  17.327   5.339  10.155  0.3079  0.0090  0.0717
    8loPI    C3  115  17.061   5.628  10.078  0.2127 -0.1292 -0.1268
    8loPI   PO4  116  17.536   5.612   9.741 -0.0276  0.2084 -0.1593
    8loPI   GL1  117  17.757   5.983   9.446  0.1732  0.1513 -0.0226
    8loPI   GL2  118  17.849   5.692   9.366 -0.0576  0.1663 -0.2171
    8loPI   C1A  119  17.648   6.249   9.082 -0.2535 -0.1271 -0.1115
    8loPI   C2A  120  17.515   6.285   8.692 -0.1749 -0.1565 -0.0546
    8loPI   C3A  121  17.302   6.276   8.264  0.0530 -0.0147 -0.0461
    8loPI   C4A  122  17.446   6.299   7.886  0.0570  0.3018  0.3019
    8loPI   C5A  123  17.734   6.252   7.530 -0.2390 -0.0036  0.1446
    8loPI   C6A  124  18.178   6.131   7.401 -0.2262  0.1447 -0.2276
    8loPI   C1B  125  17.798   5.430   9.132  0.1363 -0.0042 -0.2049
    8loPI   C2B  126  17.817   5.283   8.798 -0.0980  0.0940  0.3531
    8loPI   C3B  127  17.827   5.359   8.334  0.4279 -0.0348  0.0559
    8loPI   C4B  128  17.838   5.545   7.943  0.1501  0.2524  0.1486
    9loPI    C1  129  13.767   4.861  10.238  0.1278  0.3307  0.2999
    9loPI    C2  130  14.095   5.015  10.069  0.1647  0.0289  0.0873
    9loPI    C3  131  13.748   5.213  10.049  0.2376  0.1437 -0.0714
    9loPI   PO4  132  13.825   4.584  10.056 -0.3244 -0.3276 -0.2196
    9loPI   GL1  133  14.159   4.558   9.591  0.2494  0.0252 -0.2233
    9loPI   GL2  134  13.892   4.767   9.631  0.2449 -0.4678  0.1232
    9loPI   C1A  135  14.406   4.796   9.221  0.0213  0.1309 -0.0020
    9loPI   C2A  136  14.607   4.797   8.775  0.0919 -0.2604  0.0391
    9loPI   C3A  137  14.775   4.758   8.422  0.2005  0.0847 -0.2079
    9loPI   C4A  138  14.744   5.047   8.064  0.2369  0.2379  0.1957
    9loPI   C5A  139  14.631   5.323   7.867 -0.2807  0.2006  0.1946
    9loPI   C6A  140  14.785   5.638   7.856  0.0829  0.0090  0.1088
    9loPI   C1B  141  13.901   4.582   9.242 -0.0541  0.0211 -0.1538
    9loPI   C2B  142  13.763   4.427   8.869 -0.2939  0.1132  0.1228
    9loPI   C3B  143  13.857   4.378   8.359 -0.1086 -0.1679 -0.2564
    9loPI   C4B  144  13.914   4.615   7.946  0.0269  0.2717  0.2771
   10loPI    C1  145   4.999  14.748  10.137 -0.1013  0.0061 -0.0963
   10loPI    C2  146   4.854  14.983  10.426 -0.1037  0.0020 -0.0942
   10loPI    C3  147   4.663  14.646  10.328 -0.0286 -0.0666 -0.0065
   10loPI   PO4  148   5.106  14.983   9.973 -0.0021  0.6194  0.0774
   10loPI   GL1  149   5.027  15.360   9.671  0.1352 -0.3140 -0.0681
   10loPI   GL2  150   4.973  15.086   9.444 -0.1102  0.1577  0.0072
   10loPI   C1A  151   4.986  15.535   9.293 -0.2452  0.2147  0.0565
   10loPI   C2A  152   5.031  15.933   9.031 -0.1610 -0.1312 -0.0234
   10loPI   C3A  153   4.908  15.901   8.564  0.1077  0.1240 -0.0532
   10loPI   C4A  154   5.116  16.075   8.234  0.3569  0.0669  0.0364
   10loPI   C5A  155   5.104  16.149   7.841  0.1564 -0.1513  0.0933
   10loPI   C6A  156   5.147  15.842   7.543  0.0990  0.2031 -0.1104
   10loPI   C1B  157   5.159  14.925   9.061  0.3610 -0.0950  0.1120
   10loPI   C2B  158   5.185  15.112   8.750  0.0647 -0.0018 -0.1688
   10loPI   C3B  159   5.480  15.256   8.428 -0.0364 -0.2108 -0.0779
   10loPI   C4B  160   5.751  15.566   8.227  0.0503  0.0758  0.0497
   11loPI    C1  161  10.969  17.598   9.800  0.1421 -0.1979  0.1761
   11loPI    C2  162  10.705  17.514  10.088 -0.0805  0.1953  0.0932
   11loPI    C3  163  10.686  17.864   9.894  0.2771  0.0762 -0.1676
   11loPI   PO4  164  11.033  17.369   9.697 -0.1547 -0.1700  0.1564
   11loPI   GL1  165  10.885  17.113   9.356  0.0197 -0.2331 -0.1131
   11loPI   GL2  166  10.901  16.720   9.348  0.0720 -0.3784  0.0093
   11loPI   C1A  167  10.781  17.318   8.963 -0.1584 -0.0251 -0.2130
   11loPI   C2A  168  11.020  17.301   8.517  0.0300 -0.1732  0.0770
   11loPI   C3A  169  11.047  17.047   8.144  0.2421 -0.0150 -0.1544
   11loPI   C4A  170  11.098  16.820   7.875  0.0580  0.1925  0.1265
   11loPI   C5A  171  11.338  16.373   7.828  0.1608 -0.0577  0.0310
   11loPI   C6A  172  11.454  16.001   7.543  0.1791 -0.1976  0.1460
   11loPI   C1B  173  10.726  16.808   8.952  0.1759 -0.0337  0.0949
   11loPI   C2B  174  10.699  16.870   8.565  0.0986 -0.0590  0.1623
   11loPI   C3B  175  10.622  16.820   8.060  0.3715 -0.0218 -0.1711
   11loPI   C4B  176  10.303  16.501   7.930 -0.3468 -0.0856  0.1512
   12loPI    C1  177  11.762   6.643  10.314  0.0239  0.1243  0.1494
   12loPI    C2  178  11.598   6.564  10.671 -0.1448 -0.0238  0.0413
   12loPI    C3  179  11.869   6.857  10.635 -0.0875 -0.0424  0.2999
   12loPI   PO4  180  11.654   6.524  10.113 -0.1806 -0.0922  0.2666
   12loPI   GL1  181  11.514   6.530   9.764 -0.0267 -0.0776  0.1676
   12loPI   GL2  182  11.657   6.706   9.637  0.0440 -0.1023 -0.2340
   12loPI   C1A  183  11.347   6.321   9.439 -0.0244  0.0349 -0.3009
   12loPI   C2A  184  11.435   6.298   9.051 -0.4146 -0.0288 -0.2967
   12loPI   C3A  185  11.498   6.167   8.664 -0.1705  0.0393 -0.2090
   12loPI   C4A  186  11.563   6.247   8.089  0.2037  0.2169 -0.0438
   12loPI   C5A  187  11.647   6.384   7.761 -0.0296 -0.3229  0.0508
   12loPI   C6A  188  11.888   6.740   7.656 -0.2885 -0.0309 -0.0229
   12loPI   C1B  189  11.708   6.748   9.179 -0.1072  0.1940  0.3058
   12loPI   C2B  190  11.526   6.674   8.793  0.2920  0.0894  0.1586
   12loPI   C3B  191  11.432   6.702   8.347  0.0022 -0.0314 -0.0597
   12loPI   C4B  192  11.043   6.775   7.959 -0.0151 -0.2350  0.0588
   13loPI    C1  193  17.934   9.270   9.566 -0.0732  0.0304  0.0505
   13loPI    C2  194  17.647   9.356   9.831 -0.0126 -0.1167  0.1660
   13loPI    C3  195  18.028   9.335   9.950  0.0395  0.0173  0.0254
   13loPI   PO4  196  17.837   9.363   9.322 -0.1284 -0.0982  0.1863
   13loPI   GL1  197  17.858   9.667   9.086 -0.0323 -0.1576 -0.0222
   13loPI   GL2  198  18.104   9.795   8.955  0.1188  0.0169 -0.1225
   13loPI   C1A  199  17.538   9.831   8.738 -0.1131  0.1046 -0.0388
   13loPI   C2A  200  17.343   9.798   8.302 -0.0544  0.1718  0.1500
   13loPI   C3A  201  17.414   9.721   7.872 -0.2099  0.0488  0.2135
   13loPI   C4A  202  17.442   9.532   7.470  0.1075 -0.0187  0.0613
   13loPI   C5A  203  17.385   9.234   7.100  0.0396  0.1910 -0.5282
   13loPI   C6A  204  17.751   9.123   6.847 -0.1250  0.1730 -0.1000
   13loPI   C1B  205  17.982   9.811   8.479  0.0864  0.0590  0.2979
   13loPI   C2B  206  17.813   9.905   8.184 -0.0525  0.0831 -0.1589
   13loPI   C3B  207  17.852  10.001   7.736 -0.1380 -0.0629  0.1121
   13loPI   C4B  208  17.724  10.131   7.399 -0.1184 -0.1648 -0.1251
   14loPI    C1  209   5.282  16.311  10.410 -0.0642  0.0344 -0.2247
   14loPI    C2  210   5.457  16.642  10.550 -0.0139 -0.1154  0.0749
   14loPI    C3  211   5.172  16.462  10.764 -0.0825 -0.2341 -0.1141
   14loPI   PO4  212   5.258  16.396  10.088  0.2149 -0.1969  0.0048
   14loPI   GL1  213   5.234  16.638   9.655 -0.2733  0.3110 -0.2778
   14loPI   GL2  214   5.371  16.936   9.502  0.2094 -0.0661 -0.2398
   14loPI   C1A  215   5.172  16.447   9.255  0.0806  0.0089 -0.0851
   14loPI   C2A  216   4.948  16.715   8.886 -0.1102  0.1912 -0.2526
   14loPI   C3A  217   4.877  17.003   8.434  0.1643  0.2306  0.0629
   14loPI   C4A  218   4.877  17.040   8.007  0.3353 -0.1381 -0.0052
   14loPI   C5A  219   4.963  17.017   7.541  0.0226 -0.0843  0.1445
   14loPI   C6A  220   4.742  17.259   7.161 -0.4059  0.2710 -0.4532
   14loPI   C1B  221   5.225  17.029   9.145  0.1540  0.0745 -0.1776
   14loPI   C2B  222   5.147  17.282   8.786 -0.0474 -0.2811 -0.0690
   14loPI   C3B  223   5.197  17.399   8.422  0.1597  0.0078 -0.0089
   14loPI   C4B  224   5.141  17.460   7.980  0.0341  0.2114 -0.0762
   15loPI    C1  225  11.088  12.871  10.151  0.0767  0.0547 -0.0063
   15loPI    C2  226  11.358  12.633  10.325 -0.0509 -0.0912 -0.0058
   15loPI    C3  227  11.271  12.989  10.487  0.1642 -0.0290 -0.0245
   15loPI   PO4  228  11.214  12.898   9.923 -0.0117  0.2212 -0.1166
   15loPI   GL1  229  11.306  12.922   9.510 -0.3634  0.1463 -0.0311
   15loPI   GL2  230  11.143  12.836   9.198  0.0826 -0.2187 -0.1958
   15loPI   C1A  231  11.631  12.804   9.261  0.3672 -0.0027 -0.0124
   15loPI   C2A  232  11.896  13.063   8.949  0.0592  0.1249  0.1947
   15loPI   C3A  233  12.172  13.311   8.787 -0.3599  0.1884  0.1409
   15loPI   C4A  234  12.445  13.375   8.432  0.0899  0.1454 -0.0665
   15loPI   C5A  235  12.577  13.424   8.038  0.0479 -0.0233 -0.0057
   15loPI   C6A  236  12.624  13.269   7.602  0.4299 -0.2120  0.2131
   15loPI   C1B  237  11.255  13.233   8.946 -0.1203 -0.0010  0.0465
   15loPI   C2B  238  11.301  13.242   8.504  0.3806 -0.0671  0.0384
   15loPI   C3B  239  11.061  13.405   8.001 -0.1763  0.1578 -0.2653
   15loPI   C4B  240  10.737  13.294   7.798  0.0856 -0.2653 -0.2975
   16loPI    C1  241  10.306  13.705  10.123 -0.0065  0.0041  0.1044
   16loPI    C2  242  10.336  13.803  10.510 -0.0232 -0.1316  0.1407
   16loPI    C3  243   9.977  13.784  10.336 -0.0116 -0.0136  0.1029
   16loPI   PO4  244  10.460  13.906   9.905 -0.0955 -0.2422 -0.2433
   16loPI   GL1  245  10.597  13.925   9.485  0.0137  0.1146  0.1860
   16loPI   GL2  246  10.598  13.724   9.265  0.0143  0.0878 -0.1018
   16loPI   C1A  247  10.489  14.227   9.030  0.2469  0.0444 -0.0842
   16loPI   C2A  248  10.378  14.228   8.637 -0.0092  0.1767 -0.1703
   16loPI   C3A  249  10.215  14.188   8.176 -0.1599 -0.0618 -0.0662
   16loPI   C4A  250  10.324  14.235   7.720  0.1430 -0.1098 -0.0543
   16loPI   C5A  251  10.583  14.461   7.387 -0.1004 -0.0697 -0.3379
   16loPI   C6A  252  11.031  14.499   7.319 -0.1104  0.2863 -0.0661
   16loPI   C1B  253  10.473  13.710   8.821 -0.2522 -0.1020  0.0134
   16loPI   C2B  254  10.260  13.753   8.403  0.2819  0.1847  0.0108
   16loPI   C3B  255  10.105  13.786   7.917 -0.1923 -0.0182  0.0360
   16loPI   C4B  256  10.314  13.680   7.501 -0.0389  0.0197 -0.0647
   17loPI    C1  257  14.477  17.031  10.407 -0.1547 -0.1397 -0.1122
   17loPI    C2  258  14.537  17.328  10.146 -0.0037 -0.1055 -0.0392
   17loPI    C3  259  14.567  17.397  10.539 -0.4553 -0.1028 -0.0000
   17loPI   PO4  260  14.619  16.828  10.228 -0.0738  0.1948 -0.0424
   17loPI   GL1  261  14.652  16.650   9.782  0.0651  0.0560  0.0197
   17loPI   GL2  262  14.417  16.860   9.703 -0.1424  0.3078 -0.0291
   17loPI   C1A  263  14.721  16.547   9.382 -0.2987  0.4287  0.0707
   17loPI   C2A  264  15.002  16.705   9.002 -0.0011 -0.1506 -0.0209
   17loPI   C3A  265  14.729  16.919   8.686  0.3989 -0.1403 -0.0313
   17loPI   C4A  266  14.414  17.100   8.281  0.2240 -0.0179 -0.0098
   17loPI   C5A  267  14.068  17.297   8.513  0.0137  0.1977 -0.1167
   17loPI   C6A  268  13.690  17.562   8.646  0.0435  0.0386  0.1715
   17loPI   C1B  269  14.482  16.985   9.364 -0.3213  0.0101 -0.0484
   17loPI   C2B  270  14.420  16.805   9.014  0.3849  0.0940  0.0061
   17loPI   C3B  271  14.190  16.739   8.676 -0.1030 -0.0056  0.0264
   17loPI   C4B  272  14.390  16.615   8.336  0.1451  0.0181  0.1032
   18loPI    C1  273   8.142  15.237   8.966  0.1407 -0.0219  0.1483
   18loPI    C2  274   8.113  14.890   9.163  0.0471 -0.1207 -0.0367
   18loPI    C3  275   8.473  15.040   9.072  0.0890 -0.1255  0.1177
   18loPI   PO4  276   7.833  15.342   9.038 -0.0801 -0.2005  0.1261
   18loPI   GL1  277   7.491  15.644   9.069 -0.3272 -0.0528 -0.1214
   18loPI   GL2  278   7.132  15.741   9.185 -0.3479  0.0388  0.1510
   18loPI   C1A  279   7.543  15.682   8.589 -0.0275 -0.0553 -0.1456
   18loPI   C2A  280   7.646  15.468   8.197 -0.2251  0.0003  0.0625
   18loPI   C3A  281   7.580  15.349   7.741  0.0141  0.1728 -0.1662
   18loPI   C4A  282   7.675  14.964   7.412  0.0009 -0.0603  0.1277
   18loPI   C5A  283   7.956  14.622   7.163  0.1488  0.1640  0.3694
   18loPI   C6A  284   8.370  14.522   6.948  0.2176  0.1910 -0.1251
   18loPI   C1B  285   6.912  15.670   8.851 -0.1097  0.1657  0.2561
   18loPI   C2B  286   7.035  15.666   8.458  0.1488 -0.0728 -0.0021
   18loPI   C3B  287   7.069  15.661   8.027  0.0324  0.1979 -0.1047
   18loPI   C4B  288   7.040  15.414   7.614  0.0072 -0.3704 -0.3983
   19loPI    C1  289   6.831  18.429  10.528  0.2471  0.0806 -0.0136
   19loPI    C2  290   6.744  18.805  10.630 -0.0007 -0.0028  0.0888
   19loPI    C3  291   7.063  18.624  10.789  0.1443  0.1770  0.0064
   19loPI   PO4  292   6.699  18.409  10.244  0.2398  0.0165  0.0456
   19loPI   GL1  293   6.871  18.418   9.863 -0.0416  0.1827  0.0215
   19loPI   GL2  294   7.226  18.361   9.995 -0.1025  0.0602  0.4243
   19loPI   C1A  295   6.886  18.646   9.436  0.0657  0.0926  0.0418
   19loPI   C2A  296   6.959  18.687   9.000 -0.2469  0.0989  0.2209
   19loPI   C3A  297   7.019  18.622   8.531 -0.0232 -0.1512 -0.1219
   19loPI   C4A  298   7.125  18.389   8.183  0.2002 -0.2974 -0.0348
   19loPI   C5A  299   7.470  18.253   7.869 -0.2197 -0.2954  0.2789
   19loPI   C6A  300   7.683  17.964   7.564 -0.1601  0.2927 -0.1703
   19loPI   C1B  301   7.172  18.198   9.561 -0.1066 -0.0108  0.2157
   19loPI   C2B  302   7.126  18.224   9.163 -0.2207  0.0296 -0.1379
   19loPI   C3B  303   7.264  18.274   8.854  0.0843  0.1021  0.0018
   19loPI   C4B  304   7.490  18.200   8.474 -0.1654 -0.3748 -0.4771
   20loPI    C1  305  10.706   0.806   9.953  0.3441 -0.1409 -0.2636
   20loPI    C2  306  10.696   0.902  10.342  0.0501  0.0750 -0.3203
   20loPI    C3  307  10.724   0.518  10.231  0.3575  0.0266 -0.0888
   20loPI   PO4  308  10.641   1.016   9.852 -0.0307 -0.1720 -0.0428
   20loPI   GL1  309  10.380   1.175   9.484 -0.2740  0.0181  0.0749
   20loPI   GL2  310  10.556   0.901   9.416 -0.0932  0.0312  0.1437
   20loPI   C1A  311  10.039   0.977   9.264  0.0394 -0.3183 -0.0222
   20loPI   C2A  312   9.777   0.756   8.994  0.0324 -0.0635  0.0236
   20loPI   C3A  313   9.881   0.795   8.613 -0.0764  0.0072  0.0698
   20loPI   C4A  314   9.864   0.442   8.360  0.4183 -0.0579  0.2539
   20loPI   C5A  315   9.751   0.129   7.981 -0.1341 -0.2913  0.1715
   20loPI   C6A  316   9.870  -0.169   7.669  0.1665 -0.1654 -0.1094
   20loPI   C1B  317  10.465   1.026   8.953 -0.0767  0.1151  0.0844
   20loPI   C2B  318  10.341   1.013   8.529  0.1388  0.0759  0.2677
   20loPI   C3B  319  10.069   0.934   8.169  0.3069 -0.1256 -0.1242
   20loPI   C4B  320  10.291   1.063   7.682  0.0110  0.0534  0.3330
   21loPI    C1  321   4.188   3.101  10.539 -0.1598 -0.1211 -0.2165
   21loPI    C2  322   3.824   3.192  10.678 -0.1351 -0.0528 -0.1961
   21loPI    C3  323   4.140   3.414  10.783 -0.0037 -0.4110  0.1981
   21loPI   PO4  324   4.156   3.093  10.272  0.2338  0.1806  0.0664
   21loPI   GL1  325   4.004   3.280   9.962  0.1956 -0.1549 -0.1880
   21loPI   GL2  326   3.991   3.572   9.695 -0.1358  0.3784 -0.5524
   21loPI   C1A  327   3.954   2.970   9.556  0.0219 -0.2002  0.1074
   21loPI   C2A  328   3.900   2.881   9.161  0.0147  0.1678 -0.0152
   21loPI   C3A  329   3.880   2.828   8.707 -0.2598 -0.1953 -0.1494
   21loPI   C4A  330   3.804   2.852   8.313 -0.1457  0.0668  0.0858
   21loPI   C5A  331   3.729   2.708   7.988 -0.1352 -0.1995 -0.0948
   21loPI   C6A  332   3.880   2.646   7.537 -0.0033  0.0475  0.4609
   21loPI   C1B  333   4.105   3.377   9.282  0.1125 -0.2951  0.0023
   21loPI   C2B  334   4.159   3.321   8.846 -0.2081  0.3235 -0.2307
   21loPI   C3B  335   4.063   3.325   8.392  0.2588 -0.3150  0.2179
   21loPI   C4B  336   3.966   3.199   7.942 -0.0214 -0.1951  0.2450
   22loPI    C1  337   7.314   7.718   9.613  0.1956  0.3928 -0.0570
   22loPI    C2  338   7.060   7.785   9.915 -0.0125 -0.2615 -0.0719
   22loPI    C3  339   7.431   7.656   9.990  0.0433 -0.1120 -0.0862
   22loPI   PO4  340   7.342   7.871   9.525  0.2793  0.0506 -0.0462
   22loPI   GL1  341   7.539   7.826   9.075  0.1026  0.0119  0.2654
   22loPI   GL2  342   7.785   7.721   8.984  0.0938 -0.1409  0.3109
   22loPI   C1A  343   7.294   7.754   8.691 -0.2047  0.3191 -0.0496
   22loPI   C2A  344   7.221   7.801   8.211 -0.2233  0.0093  0.3646
   22loPI   C3A  345   7.386   7.663   7.773 -0.0987 -0.2938 -0.1092
   22loPI   C4A  346   7.653   7.791   7.447 -0.1406  0.1027 -0.1668
   22loPI   C5A  347   7.576   7.663   6.998  0.1161 -0.0494 -0.1278
   22loPI   C6A  348   7.671   7.686   6.547 -0.0674  0.0482  0.0237
   22loPI   C1B  349   7.754   7.558   8.647 -0.2151 -0.3610 -0.1543
   22loPI   C2B  350   7.542   7.357   8.220 -0.0339 -0.0998 -0.3142
   22loPI   C3B  351   7.388   7.045   8.007 -0.3853  0.1417 -0.0170
   22loPI   C4B  352   7.639   6.699   7.844 -0.0229 -0.0632  0.2247
   23loPI    C1  353  17.704  14.982  10.030  0.0095  0.0907 -0.0659
   23loPI    C2  354  17.853  15.277   9.805  0.1376  0.1058  0.0371
   23loPI    C3  355  17.581  15.358  10.088 -0.1305  0.0671 -0.2050
   23loPI   PO4  356  17.700  14.822   9.771  0.2880 -0.1003  0.1153
   23loPI   GL1  357  17.743  14.987   9.326  0.0160 -0.2050 -0.1017
   23loPI   GL2  358  17.575  14.850   9.213  0.1385 -0.2169  0.2858
   23loPI   C1A  359  17.764  15.318   9.104 -0.2418 -0.1746  0.0655
   23loPI   C2A  360  17.516  15.520   8.831  0.1060  0.0721  0.3201
   23loPI   C3A  361  17.257  15.602   8.582  0.1638  0.1634  0.0598
   23loPI   C4A  362  16.938  15.638   8.315 -0.2719 -0.3692  0.2348
   23loPI   C5A  363  16.805  15.318   7.918 -0.1962 -0.0824 -0.2961
   23loPI   C6A  364  16.919  15.247   7.455  0.1656  0.2658 -0.0059
   23loPI   C1B  365  17.352  15.071   8.865  0.4392 -0.0377  0.0568
   23loPI   C2B  366  17.001  15.204   9.006  0.1481 -0.0986 -0.1653
   23loPI   C3B  367  16.736  15.287   8.695  0.3763  0.1423 -0.1305
   23loPI   C4B  368  16.447  15.315   8.424  0.0566 -0.0441 -0.1674
   24loPI    C1  369   0.270  11.944   9.684  0.0499  0.1100 -0.0148
   24loPI    C2  370   0.644  12.083   9.687  0.0706  0.0538  0.1665
   24loPI    C3  371   0.518  11.845   9.982 -0.0878  0.0176  0.0705
   24loPI   PO4  372   0.154  12.151   9.477  0.3392  0.1039 -0.2535
   24loPI   GL1  373   0.058  12.212   9.018  0.1848  0.0919  0.0486
   24loPI   GL2  374   0.206  12.431   9.005  0.2025 -0.1397 -0.1171
   24loPI   C1A  375   0.077  11.885   8.622 -0.3095 -0.1200 -0.1539
   24loPI   C2A  376   0.242  11.734   8.192  0.2483  0.1785 -0.2403
   24loPI   C3A  377  -0.003  11.644   7.800 -0.0751 -0.0002  0.1835
   24loPI   C4A  378  -0.084  12.046   7.555 -0.0827  0.1467 -0.0491
   24loPI   C5A  379   0.015  12.301   7.268 -0.0427  0.2690  0.0267
   24loPI   C6A  380   0.140  12.315   6.766 -0.1694 -0.0703  0.3805
   24loPI   C1B  381   0.228  12.389   8.543 -0.1185 -0.2175  0.1455
   24loPI   C2B  382   0.453  12.574   8.145  0.2162 -0.0671  0.0899
   24loPI   C3B  383   0.616  12.725   7.888 -0.0875  0.0999 -0.1082
   24loPI   C4B  384   0.849  12.611   7.548 -0.0022 -0.0590  0.0374
   25loPI    C1  385   2.692   1.667  10.343 -0.2708  0.1482  0.0407
   25loPI    C2  386   2.751   2.062  10.377  0.0695  0.1001  0.0413
   25loPI    C3  387   2.994   1.806  10.566  0.0458 -0.1155 -0.2141
   25loPI   PO4  388   2.714   1.640  10.019 -0.0623 -0.0412 -0.2153
   25loPI   GL1  389   2.878   1.930   9.625 -0.0852 -0.4971  0.2584
   25loPI   GL2  390   3.000   1.558   9.577  0.0776 -0.1351 -0.2390
   25loPI   C1A  391   2.869   1.976   9.144  0.0730 -0.0670  0.0803
   25loPI   C2A  392   2.868   1.855   8.715  0.0866 -0.0889 -0.0560
   25loPI   C3A  393   2.796   1.916   8.253 -0.0839  0.2230 -0.3529
   25loPI   C4A  394   2.767   1.942   7.852  0.0222  0.0045 -0.0030
   25loPI   C5A  395   2.957   1.702   7.514 -0.0760 -0.1280 -0.1071
   25loPI   C6A  396   2.892   1.256   7.365 -0.5281  0.1453 -0.2610
   25loPI   C1B  397   3.137   1.506   9.102  0.0649 -0.2562 -0.0578
   25loPI   C2B  398   3.096   1.367   8.694  0.4239  0.2040  0.3777
   25loPI   C3B  399   3.073   1.436   8.322  0.0388  0.0267  0.1352
   25loPI   C4B  400   3.028   1.423   7.941  0.2048 -0.0433 -0.1671
   26loPI    C1  401  14.277   1.686  10.339  0.1427 -0.2481  0.5210
   26loPI    C2  402  14.323   2.025  10.547 -0.1785  0.1787 -0.0734
   26loPI    C3  403  14.018   1.779  10.629 -0.1457  0.2055  0.1334
   26loPI   PO4  404  14.308   1.764  10.110 -0.1784  0.2954 -0.0757
   26loPI   GL1  405  14.468   1.665   9.685  0.3352  0.0429 -0.1382
   26loPI   GL2  406  14.475   1.306   9.564 -0.0796 -0.0074  0.1847
   26loPI   C1A  407  14.408   2.014   9.437  0.0479  0.0725  0.1109
   26loPI   C2A  408  14.560   2.239   9.083  0.1298  0.0874 -0.2716
   26loPI   C3A  409  14.404   2.642   8.761  0.1551 -0.2432 -0.0438
   26loPI   C4A  410  14.398   2.899   8.363  0.0513 -0.1232 -0.2090
   26loPI   C5A  411  14.287   3.260   8.154 -0.3928  0.1962 -0.0845
   26loPI   C6A  412  14.009   3.548   8.002  0.2636 -0.0326 -0.0336
   26loPI   C1B  413  14.606   1.583   9.191  0.2123  0.2020 -0.0597
   26loPI   C2B  414  14.466   1.805   8.809  0.1072  0.0523 -0.0756
   26loPI   C3B  415  14.491   2.202   8.617  0.2979 -0.0052  0.0896
   26loPI   C4B  416  14.676   2.412   8.344  0.0207  0.0214 -0.0693
   27loPI    C1  417  10.510  13.154  10.114  0.1064  0.1529  0.0611
   27loPI    C2  418  10.646  12.939  10.423 -0.1699 -0.0535  0.0430
   27loPI    C3  419  10.433  13.270  10.489 -0.0974 -0.0123  0.0721
   27loPI   PO4  420  10.697  13.168  10.004  0.2140 -0.1709  0.0793
   27loPI   GL1  421  10.870  13.224   9.683  0.2429 -0.0490 -0.0702
   27loPI   GL2  422  10.931  13.588   9.685 -0.0266  0.1895  0.1230
   27loPI   C1A  423  10.840  13.292   9.237  0.4003  0.2030  0.3697
   27loPI   C2A  424  10.850  13.408   8.724 -0.3482 -0.0558 -0.0701
   27loPI   C3A  425  10.719  13.565   8.298 -0.0917  0.1687 -0.1343
   27loPI   C4A  426  10.682  13.781   7.820  0.0092  0.2636 -0.2244
   27loPI   C5A  427  10.778  13.949   7.379 -0.1096  0.0445 -0.2497
   27loPI   C6A  428  10.874  13.794   7.015  0.0588 -0.0045 -0.0354
   27loPI   C1B  429  11.143  13.651   9.336  0.0685  0.3370 -0.2127
   27loPI   C2B  430  11.271  13.726   8.908  0.3730 -0.1691 -0.1241
   27loPI   C3B  431  11.067  13.774   8.483  0.2605 -0.0581  0.0054
   27loPI   C4B  432  11.186  13.817   8.150 -0.3572 -0.0966  0.4359
   28loPI    C1  433  15.106  16.194  10.391  0.1220 -0.0126 -0.1349
   28loPI    C2  434  15.010  16.477  10.126 -0.2634 -0.1859 -0.1879
   28loPI    C3  435  14.737  16.347  10.387  0.0735 -0.1128  0.2112
   28loPI   PO4  436  15.195  15.958  10.167  0.0117 -0.1232 -0.0186
   28loPI   GL1  437  15.154  15.939   9.695 -0.2653 -0.1042  0.0669
   28loPI   GL2  438  15.004  16.215   9.656 -0.2036  0.3362  0.2052
   28loPI   C1A  439  15.418  15.666   9.428  0.1263 -0.0692  0.0689
   28loPI   C2A  440  15.614  15.724   9.013  0.1022  0.1744  0.1256
   28loPI   C3A  441  15.764  15.672   8.593  0.2655 -0.0384 -0.0309
   28loPI   C4A  442  15.794  15.711   8.136  0.1060 -0.1492 -0.2014
   28loPI   C5A  443  15.885  15.839   7.660 -0.2907 -0.0178  0.2003
   28loPI   C6A  444  15.843  15.497   7.389 -0.1843  0.3801 -0.0774
   28loPI   C1B  445  15.200  16.639   9.683  0.0422 -0.0588 -0.3352
   28loPI   C2B  446  15.022  16.966   9.469  0.2754  0.1795 -0.0072
   28loPI   C3B  447  14.842  17.217   9.115  0.2423 -0.0179 -0.0491
   28loPI   C4B  448  14.521  17.514   9.288  0.1411 -0.0538 -0.2295
   29loPI    C1  449  12.677   8.123   9.868 -0.2550 -0.0915 -0.0271
   29loPI    C2  450  12.812   8.267  10.216  0.2926 -0.0767 -0.2352
   29loPI    C3  451  12.699   7.884  10.188  0.2567 -0.0809 -0.0462
   29loPI   PO4  452  12.541   8.195   9.656  0.1271  0.1984  0.1404
   29loPI   GL1  453  12.416   8.073   9.373  0.2481  0.1685 -0.1233
   29loPI   GL2  454  12.223   8.360   9.259  0.1069  0.0616  0.1149
   29loPI   C1A  455  12.703   8.015   9.011 -0.2839  0.1487 -0.1379
   29loPI   C2A  456  12.695   8.126   8.593  0.1315 -0.1689  0.1176
   29loPI   C3A  457  12.792   8.186   8.209  0.1114  0.1723 -0.0663
   29loPI   C4A  458  12.965   8.473   7.856  0.4537 -0.3946  0.0732
   29loPI   C5A  459  13.352   8.781   7.673 -0.1618  0.1709 -0.2518
   29loPI   C6A  460  13.556   8.918   7.379  0.0281  0.1322  0.0783
   29loPI   C1B  461  12.282   8.344   8.853 -0.1301  0.2168 -0.0778
   29loPI   C2B  462  12.217   8.269   8.391  0.0591 -0.4570 -0.2205
   29loPI   C3B  463  12.365   7.967   8.000 -0.1240 -0.2412  0.2056
   29loPI   C4B  464  12.531   7.770   7.576 -0.1767 -0.1704 -0.3013
   30loPI    C1  465  15.757   6.555   9.942 -0.1379 -0.2450 -0.0282
   30loPI    C2  466  15.406   6.530  10.133  0.0621 -0.1514  0.3620
   30loPI    C3  467  15.710   6.731  10.298  0.2142  0.0152 -0.1054
   30loPI   PO4  468  15.682   6.608   9.691  0.1509 -0.0367 -0.0311
   30loPI   GL1  469  15.617   6.449   9.461 -0.2103 -0.0239  0.0074
   30loPI   GL2  470  15.794   6.474   9.218  0.0223  0.0834 -0.0257
   30loPI   C1A  471  15.415   6.144   9.229 -0.1977  0.0017 -0.0130
   30loPI   C2A  472  15.258   6.146   8.781  0.1646  0.1688 -0.3739
   30loPI   C3A  473  15.508   6.052   8.396  0.0194  0.0825 -0.1815
   30loPI   C4A  474  15.592   5.891   7.998  0.3090  0.3343 -0.0300
   30loPI   C5A  475  15.568   5.936   7.556 -0.1561  0.1415 -0.1289
   30loPI   C6A  476  15.434   5.849   7.063 -0.1752  0.1023 -0.1792
   30loPI   C1B  477  15.557   6.530   8.836  0.1258  0.1768 -0.1006
   30loPI   C2B  478  15.319   6.594   8.581 -0.1101 -0.2410  0.1764
   30loPI   C3B  479  15.280   6.799   8.136 -0.0150 -0.1327 -0.1733
   30loPI   C4B  480  15.092   7.263   8.109 -0.1249  0.2762  0.3416
   31loPI    C1  481  17.390  19.098  10.185  0.0897  0.1252  0.0851
   31loPI    C2  482  16.993  19.052  10.189  0.1306 -0.3094 -0.1720
   31loPI    C3  483  17.189  19.122  10.530 -0.1829  0.1186 -0.0696
   31loPI   PO4  484  17.390  19.230   9.831 -0.0519 -0.3446 -0.2474
   31loPI   GL1  485  17.079  19.097   9.427  0.2671 -0.0663  0.1732
   31loPI   GL2  486  17.124  18.748   9.593 -0.2746 -0.1789  0.2671
   31loPI   C1A  487  16.843  19.217   9.047 -0.2807  0.2359  0.0463
   31loPI   C2A  488  16.835  19.254   8.639 -0.0770 -0.2168  0.1119
   31loPI   C3A  489  16.948  19.130   8.211  0.0952 -0.1497  0.1257
   31loPI   C4A  490  16.912  19.074   7.752 -0.3186  0.1345  0.1388
   31loPI   C5A  491  16.540  19.066   7.525 -0.1668 -0.1493  0.0853
   31loPI   C6A  492  16.158  19.007   7.477 -0.0462 -0.0499 -0.1771
   31loPI   C1B  493  17.157  18.598   9.229 -0.0421 -0.4131 -0.1340
   31loPI   C2B  494  16.828  18.575   9.000  0.2085 -0.0786 -0.3678
   31loPI   C3B  495  16.404  18.716   8.673 -0.3040  0.1057  0.1191
   31loPI   C4B  496  16.025  18.655   8.967  0.1449 -0.1260 -0.0872
   32loPI    C1  497   5.004   5.800   9.941 -0.1416  0.2733 -0.0313
   32loPI    C2  498   5.281   5.721  10.218 -0.0671  0.0791 -0.1588
   32loPI    C3  499   4.912   5.829  10.329 -0.1841 -0.4800  0.0292
   32loPI   PO4  500   5.076   5.958   9.795  0.0522  0.0217 -0.5016
   32loPI   GL1  501   5.191   6.179   9.463 -0.2158  0.0045  0.2868
   32loPI   GL2  502   5.078   6.442   9.406  0.1258 -0.1935 -0.2691
   32loPI   C1A  503   5.354   5.949   9.128 -0.0788  0.1179 -0.0094
   32loPI   C2A  504   5.536   6.035   8.723  0.1156  0.0278  0.1513
   32loPI   C3A  505   5.823   6.080   8.343  0.1663  0.3227 -0.2063
   32loPI   C4A  506   6.166   5.944   7.991  0.2362 -0.0122 -0.1602
   32loPI   C5A  507   6.367   5.728   7.784 -0.1811  0.0623  0.1136
   32loPI   C6A  508   6.451   5.413   7.642  0.2405 -0.0429 -0.0384
   32loPI   C1B  509   5.148   6.424   9.004 -0.0439  0.1000  0.2451
   32loPI   C2B  510   5.247   6.386   8.568 -0.0741 -0.1844 -0.1248
   32loPI   C3B  511   5.362   6.281   8.179  0.0385 -0.0648  0.0353
   32loPI   C4B  512   5.312   6.188   7.816  0.0151 -0.0447 -0.1221
   33loPI    C1  513   5.563  13.929   9.606  0.3647 -0.0412 -0.3573
   33loPI    C2  514   5.492  14.218   9.339  0.0679  0.2354  0.0094
   33loPI    C3  515   5.765  14.274   9.626  0.2428  0.0182 -0.1111
   33loPI   PO4  516   5.527  13.755   9.495  0.2035 -0.1100  0.0447
   33loPI   GL1  517   5.291  13.722   9.057 -0.1044 -0.3856  0.3382
   33loPI   GL2  518   5.702  13.701   9.016  0.1083 -0.2234 -0.3946
   33loPI   C1A  519   5.343  14.082   8.832  0.2579 -0.0325  0.2229
   33loPI   C2A  520   5.347  14.216   8.413 -0.0798  0.4570 -0.0848
   33loPI   C3A  521   5.117  14.467   8.068  0.2394 -0.3538 -0.2084
   33loPI   C4A  522   4.951  14.646   7.776  0.0313 -0.0293  0.0616
   33loPI   C5A  523   4.914  14.553   7.390  0.0424  0.0020 -0.0975
   33loPI   C6A  524   5.287  14.423   7.153  0.0902  0.2475 -0.1909
   33loPI   C1B  525   5.737  13.878   8.651 -0.1063 -0.1644 -0.1299
   33loPI   C2B  526   5.739  13.850   8.225 -0.4573  0.1802  0.0427
   33loPI   C3B  527   5.815  14.114   7.927 -0.0220  0.0247  0.1495
   33loPI   C4B  528   5.729  14.308   7.522 -0.1275  0.0192 -0.3678
   34loPI    C1  529   4.985  16.878  10.436 -0.0688  0.2551  0.1465
   34loPI    C2  530   4.807  16.731  10.110  0.0020  0.2172  0.1246
   34loPI    C3  531   4.758  16.550  10.464  0.0381  0.1774  0.1093
   34loPI   PO4  532   4.960  17.211  10.250 -0.4742 -0.3671  0.0962
   34loPI   GL1  533   5.155  17.348   9.850 -0.1581 -0.1177  0.1794
   34loPI   GL2  534   4.977  17.083   9.783 -0.1426  0.1894  0.2802
   34loPI   C1A  535   5.379  17.476   9.471  0.0206  0.0113  0.0979
   34loPI   C2A  536   5.386  17.655   9.110 -0.0776 -0.0777 -0.0525
   34loPI   C3A  537   5.455  17.779   8.697  0.0516  0.0419 -0.3995
   34loPI   C4A  538   5.507  17.854   8.265  0.2248  0.1189  0.1119
   34loPI   C5A  539   5.408  17.882   7.893  0.2412  0.1356 -0.0933
   34loPI   C6A  540   5.367  17.821   7.499  0.0832  0.1476  0.1100
   34loPI   C1B  541   4.828  17.527   9.566 -0.3651  0.1553  0.0249
   34loPI   C2B  542   4.948  17.701   9.195  0.2787  0.4182 -0.0527
   34loPI   C3B  543   4.933  17.751   8.774  0.0327  0.0288 -0.2568
   34loPI   C4B  544   4.880  17.812   8.325 -0.0863  0.0700  0.1135
   35loPI    C1  545  15.192   4.036  10.299 -0.0119  0.0100 -0.1594
   35loPI    C2  546  15.549   4.215  10.328  0.0267 -0.0744 -0.1114
   35loPI    C3  547  15.392   4.028  10.646 -0.0309 -0.0928 -0.1505
   35loPI   PO4  548  15.184   3.922  10.143 -0.0045 -0.0326  0.1275
   35loPI   GL1  549  15.236   3.780   9.688 -0.0483 -0.2918  0.0965
   35loPI   GL2  550  14.986   3.492   9.724 -0.0926  0.2900 -0.2492
   35loPI   C1A  551  15.062   4.142   9.392 -0.1910  0.2780  0.3451
   35loPI   C2A  552  15.114   4.173   8.903 -0.0617  0.2405  0.0699
   35loPI   C3A  553  15.225   4.083   8.493 -0.0959 -0.2406 -0.0187
   35loPI   C4A  554  15.284   4.033   8.112 -0.0361 -0.0382 -0.0700
   35loPI   C5A  555  15.323   3.818   7.798  0.1057 -0.0594  0.1077
   35loPI   C6A  556  15.334   3.788   7.362  0.1828  0.0568 -0.3007
   35loPI   C1B  557  15.040   3.419   9.310  0.3940  0.1902  0.0643
   35loPI   C2B  558  15.462   3.276   9.094 -0.0354  0.2038  0.0744
   35loPI   C3B  559  15.783   3.064   8.967 -0.1888  0.1223 -0.1721
   35loPI   C4B  560  16.123   2.994   8.673 -0.1181  0.1239  0.2508
   36loPI    C1  561   1.622  15.699   9.791  0.1487 -0.0260 -0.0311
   36loPI    C2  562   1.355  15.990   9.727  0.0636 -0.0887  0.0358
   36loPI    C3  563   1.458  15.892  10.101  0.3038  0.0460  0.0067
   36loPI   PO4  564   1.766  15.713   9.578  0.3403 -0.1311  0.0477
   36loPI   GL1  565   1.819  15.708   9.185 -0.1582 -0.0213  0.1790
   36loPI   GL2  566   2.055  15.690   9.117 -0.3151 -0.1482 -0.3458
   36loPI   C1A  567   1.599  15.670   8.837 -0.0675  0.1869 -0.2153
   36loPI   C2A  568   1.538  15.775   8.369 -0.1152 -0.1758 -0.1082
   36loPI   C3A  569   1.798  15.959   8.033 -0.1521  0.1618 -0.1595
   36loPI   C4A  570   1.872  16.176   7.620 -0.0838 -0.3092  0.2884
   36loPI   C5A  571   2.177  16.340   7.347  0.2119  0.0315 -0.3417
   36loPI   C6A  572   2.614  16.524   7.278 -0.1201 -0.1132  0.3987
   36loPI   C1B  573   2.178  15.619   8.691  0.1947 -0.0127 -0.1127
   36loPI   C2B  574   2.203  15.787   8.324 -0.0639  0.1865 -0.0599
   36loPI   C3B  575   2.265  16.060   7.993  0.0248  0.1724  0.2068
   36loPI   C4B  576   2.497  16.143   7.620  0.2168  0.0236  0.0929
   37loPI    C1  577   1.869  16.916  10.317  0.0135 -0.2327 -0.1276
   37loPI    C2  578   2.246  16.908  10.185  0.1232  0.2416  0.1337
   37loPI    C3  579   2.151  16.727  10.528  0.1003  0.0799  0.0430
   37loPI   PO4  580   1.757  16.955  10.094 -0.1261  0.1222 -0.0763
   37loPI   GL1  581   1.910  17.266   9.860  0.0365  0.1272 -0.0049
   37loPI   GL2  582   2.085  17.424   9.544 -0.1424  0.0827 -0.0941
   37loPI   C1A  583   1.654  17.276   9.429  0.1101 -0.1278  0.0715
   37loPI   C2A  584   1.765  17.296   8.942 -0.3995  0.0891  0.1935
   37loPI   C3A  585   1.687  17.008   8.550 -0.0126 -0.1278  0.2804
   37loPI   C4A  586   1.411  16.894   8.269 -0.2088 -0.1016 -0.0286
   37loPI   C5A  587   1.474  16.680   7.884  0.0885 -0.0010  0.3518
   37loPI   C6A  588   1.786  16.654   7.619  0.0320 -0.0336 -0.0206
   37loPI   C1B  589   2.130  17.168   9.233  0.1459  0.2976 -0.0804
   37loPI   C2B  590   2.096  16.884   8.843  0.1032  0.1768  0.0029
   37loPI   C3B  591   1.822  16.525   8.702 -0.0706 -0.3514 -0.0408
   37loPI   C4B  592   1.841  16.008   8.641 -0.2225 -0.2294 -0.2125
   38loPI    C1  593  15.618  13.438   9.833  0.1457 -0.2966  0.0839
   38loPI    C2  594  15.791  13.650  10.125 -0.0266 -0.0364  0.0005
   38loPI    C3  595  15.864  13.258  10.092 -0.0479 -0.0807  0.4254
   38loPI   PO4  596  15.692  13.531   9.606  0.1844 -0.0050  0.1043
   38loPI   GL1  597  15.852  13.519   9.216  0.2025 -0.1870 -0.1229
   38loPI   GL2  598  15.990  13.719   9.246  0.0837  0.3023  0.1124
   38loPI   C1A  599  15.855  13.492   8.787 -0.2729 -0.3391 -0.0159
   38loPI   C2A  600  15.738  13.475   8.365 -0.2332  0.1650 -0.0706
   38loPI   C3A  601  15.671  13.636   7.924 -0.0934 -0.1173 -0.0257
   38loPI   C4A  602  15.635  13.895   7.671  0.1357  0.0417  0.1668
   38loPI   C5A  603  15.715  13.945   7.203  0.2251 -0.1274  0.4201
   38loPI   C6A  604  15.635  13.992   6.759 -0.0499 -0.1507 -0.3981
   38loPI   C1B  605  16.343  13.680   8.952 -0.1503  0.1681  0.1129
   38loPI   C2B  606  16.406  13.785   8.519 -0.2344 -0.0497 -0.3051
   38loPI   C3B  607  16.564  13.919   8.075 -0.1551 -0.0307  0.2498
   38loPI   C4B  608  16.536  13.825   7.675 -0.0724  0.1343  0.0612
   39loPI    C1  609  15.231  17.536  10.103 -0.2199 -0.1756 -0.0826
   39loPI    C2  610  15.116  17.848   9.880  0.2127  0.1582  0.1456
   39loPI    C3  611  14.922  17.762  10.220  0.0079  0.0908  0.0138
   39loPI   PO4  612  15.559  17.466   9.973 -0.0581  0.0280  0.0433
   39loPI   GL1  613  15.601  17.282   9.550 -0.3582  0.0390  0.1483
   39loPI   GL2  614  15.914  17.518   9.470 -0.1530  0.0126 -0.2245
   39loPI   C1A  615  15.382  17.183   9.100  0.0403  0.1096  0.1623
   39loPI   C2A  616  15.176  17.164   8.688  0.0819  0.0461 -0.3358
   39loPI   C3A  617  15.311  17.065   8.354  0.0785  0.3724 -0.2569
   39loPI   C4A  618  15.234  17.149   7.905  0.2815  0.0171 -0.2282
   39loPI   C5A  619  15.224  17.401   7.454  0.1109  0.0196 -0.0563
   39loPI   C6A  620  15.282  17.556   7.025  0.0994  0.1283 -0.0633
   39loPI   C1B  621  15.705  17.550   9.118 -0.2342 -0.0758  0.2847
   39loPI   C2B  622  15.598  17.434   8.654  0.1929 -0.0362  0.3423
   39loPI   C3B  623  15.557  17.451   8.212 -0.1852  0.1369  0.2554
   39loPI   C4B  624  15.659  17.405   7.798 -0.2390  0.3378  0.3484
   40loPI    C1  625  17.059   4.842   9.888 -0.0856 -0.1510  0.0467
   40loPI    C2  626  16.758   4.578   9.907  0.0439 -0.3186 -0.1748
   40loPI    C3  627  16.979   4.654  10.232 -0.1474 -0.3000 -0.0478
   40loPI   PO4  628  17.233   4.754   9.686 -0.1389 -0.0314  0.1096
   40loPI   GL1  629  17.118   4.844   9.288 -0.2631 -0.0545 -0.2597
   40loPI   GL2  630  16.867   4.981   9.261 -0.0156  0.0215  0.0334
   40loPI   C1A  631  17.395   4.941   8.982 -0.0895  0.2939 -0.0285
   40loPI   C2A  632  17.491   4.856   8.609  0.1441  0.0796  0.1794
   40loPI   C3A  633  17.858   4.734   8.594  0.0575 -0.0167 -0.3565
   40loPI   C4A  634  18.050   4.638   8.195 -0.0941  0.1803  0.1054
   40loPI   C5A  635  18.509   4.685   8.099 -0.3095  0.2826  0.1188
   40loPI   C6A  636  19.014   4.690   8.064  0.0407 -0.0485  0.0484
   40loPI   C1B  637  16.912   5.114   8.738  0.2941 -0.1720 -0.2342
   40loPI   C2B  638  16.889   5.146   8.336 -0.4136 -0.2143  0.2802
   40loPI   C3B  639  16.970   5.412   7.877 -0.0653  0.0159 -0.2434
   40loPI   C4B  640  16.998   5.719   7.586  0.2642 -0.0073 -0.0333
   41loPI    C1  641   9.290  18.827   9.958  0.0210  0.0436 -0.0926
   41loPI    C2  642   9.175  18.674  10.310 -0.0663  0.1097 -0.0922
   41loPI    C3  643   9.015  19.017  10.178  0.1447  0.2137 -0.0829
   41loPI   PO4  644   9.297  18.612   9.777 -0.0298  0.0431  0.1817
   41loPI   GL1  645   9.468  18.459   9.342 -0.0270  0.0582  0.2133
   41loPI   GL2  646   9.414  18.115   9.264  0.0102 -0.1342 -0.0023
   41loPI   C1A  647   9.048  18.628   9.155 -0.2331 -0.0115 -0.3566
   41loPI   C2A  648   8.989  18.498   8.724  0.1328 -0.2271 -0.1285
   41loPI   C3A  649   8.639  18.270   8.521  0.2179 -0.1274  0.0346
   41loPI   C4A  650   8.585  18.158   8.055  0.0117  0.2164  0.1889
   41loPI   C5A  651   8.545  18.056   7.659  0.3573 -0.0303 -0.0418
   41loPI   C6A  652   8.502  18.285   7.297  0.4279 -0.1022 -0.0248
   41loPI   C1B  653   9.657  17.972   8.896 -0.0956  0.0245  0.0928
   41loPI   C2B  654   9.763  17.910   8.415 -0.0895  0.4086 -0.0460
   41loPI   C3B  655   9.460  18.015   8.069 -0.1573 -0.4467 -0.0726
   41loPI   C4B  656   9.447  18.346   7.820  0.0028  0.0595  0.0668
   42loPI    C1  657  16.935   8.227   9.927  0.1532 -0.0399 -0.3209
   42loPI    C2  658  17.273   8.412   9.819  0.2839 -0.1254 -0.0666
   42loPI    C3  659  17.226   8.283  10.195 -0.0578 -0.0599 -0.0832
   42loPI   PO4  660  16.760   8.465   9.692 -0.2410 -0.3622 -0.1335
   42loPI   GL1  661  16.627   8.530   9.343  0.2127 -0.1911  0.2642
   42loPI   GL2  662  16.369   8.239   9.233  0.1941  0.2075 -0.0207
   42loPI   C1A  663  16.783   8.468   8.891  0.1005  0.0071 -0.1873
   42loPI   C2A  664  16.619   8.558   8.507 -0.2005  0.0889 -0.0387
   42loPI   C3A  665  16.576   8.807   8.175 -0.3635  0.0427  0.0573
   42loPI   C4A  666  16.381   8.836   7.749  0.0493 -0.0014  0.0206
   42loPI   C5A  667  16.590   8.603   7.381  0.0992 -0.0494  0.1211
   42loPI   C6A  668  16.817   8.372   7.067 -0.0719  0.3585  0.1799
   42loPI   C1B  669  16.299   8.234   8.864 -0.1166 -0.1793  0.0544
   42loPI   C2B  670  16.175   8.211   8.402  0.0857 -0.2172 -0.0494
   42loPI   C3B  671  16.254   8.079   8.039  0.2628  0.0747  0.0116
   42loPI   C4B  672  16.511   8.380   7.819  0.6428 -0.0107 -0.0331
   43loPI    C1  673  17.067  15.438  10.093  0.1191 -0.0487  0.1598
   43loPI    C2  674  16.781  15.526  10.358  0.0434  0.0062  0.0603
   43loPI    C3  675  17.032  15.223  10.428  0.0496  0.0464  0.2138
   43loPI   PO4  676  16.920  15.353   9.861  0.1238 -0.0781 -0.0437
   43loPI   GL1  677  17.038  15.478   9.472  0.0748  0.2236 -0.0796
   43loPI   GL2  678  17.008  15.762   9.543 -0.3191  0.0629  0.1499
   43loPI   C1A  679  16.762  15.671   9.083  0.0460  0.4029 -0.1542
   43loPI   C2A  680  16.792  15.876   8.716  0.2489 -0.1511  0.1321
   43loPI   C3A  681  16.691  16.073   8.417 -0.0071 -0.1424  0.4026
   43loPI   C4A  682  16.542  16.282   8.145  0.0267  0.0123  0.1597
   43loPI   C5A  683  16.144  16.160   7.969  0.0520  0.1104  0.2845
   43loPI   C6A  684  15.774  16.345   7.928 -0.1405  0.5193 -0.1489
   43loPI   C1B  685  17.231  15.891   9.144  0.0538 -0.2604  0.0515
   43loPI   C2B  686  17.152  16.193   8.825 -0.1298 -0.0898  0.0382
   43loPI   C3B  687  17.287  16.082   8.333  0.0244 -0.1908 -0.0685
   43loPI   C4B  688  17.188  15.956   7.951  0.0270 -0.2156 -0.0673
   44loPI    C1  689   3.936  11.300   9.732  0.1226 -0.0155  0.0064
   44loPI    C2  690   3.828  11.594   9.482  0.1954  0.2743  0.3084
   44loPI    C3  691   3.627  11.538   9.823  0.0573 -0.1588  0.1624
   44loPI   PO4  692   4.142  11.284   9.671  0.2515  0.1670  0.2366
   44loPI   GL1  693   4.366  11.157   9.218  0.1598  0.2745  0.0223
   44loPI   GL2  694   4.299  11.403   9.121  0.3090  0.1936 -0.1531
   44loPI   C1A  695   4.224  10.917   8.875  0.1012  0.0573  0.1254
   44loPI   C2A  696   4.063  10.839   8.524 -0.2542  0.1621 -0.0579
   44loPI   C3A  697   3.973  10.902   8.112  0.0395  0.1092 -0.0581
   44loPI   C4A  698   3.796  11.022   7.702  0.0336 -0.0694  0.0941
   44loPI   C5A  699   3.654  11.306   7.339  0.0165  0.1039 -0.3702
   44loPI   C6A  700   3.604  11.587   7.019 -0.0413  0.0719  0.1297
   44loPI   C1B  701   4.416  11.546   8.786  0.0439 -0.0708  0.2334
   44loPI   C2B  702   4.790  11.780   8.640  0.0158 -0.0820  0.1208
   44loPI   C3B  703   5.209  11.862   8.514 -0.0935 -0.3072 -0.2840
   44loPI   C4B  704   5.545  11.986   8.721 -0.1068  0.1813  0.0643
   45loPI    C1  705  16.236  11.330   9.928  0.1200  0.0800  0.0225
   45loPI    C2  706  16.037  11.132  10.212 -0.0736  0.0420 -0.1374
   45loPI    C3  707  16.436  11.104  10.190 -0.0461  0.1298  0.1942
   45loPI   PO4  708  16.054  11.460   9.727 -0.2244  0.0596  0.0793
   45loPI   GL1  709  15.892  11.321   9.294 -0.0318 -0.2477 -0.1288
   45loPI   GL2  710  15.735  11.178   9.124  0.0094  0.0110  0.0811
   45loPI   C1A  711  16.151  11.309   8.920  0.0813  0.0653  0.1246
   45loPI   C2A  712  16.367  11.368   8.481  0.0380 -0.2121 -0.2710
   45loPI   C3A  713  16.171  11.363   8.080 -0.2327 -0.0391 -0.0124
   45loPI   C4A  714  16.016  11.169   7.850  0.1012  0.1092 -0.0511
   45loPI   C5A  715  15.922  11.292   7.500  0.0546  0.2269 -0.2103
   45loPI   C6A  716  15.785  11.085   7.117  0.0998 -0.0826  0.2940
   45loPI   C1B  717  15.534  11.288   8.804 -0.3876  0.0005  0.0920
   45loPI   C2B  718  15.322  11.253   8.469  0.0593  0.1332 -0.1678
   45loPI   C3B  719  15.158  10.975   8.046  0.1481 -0.0363  0.3789
   45loPI   C4B  720  15.093  10.619   7.823 -0.2752 -0.1959  0.0144
   46loPI    C1  721  15.264  10.035   9.856 -0.1167 -0.1204  0.0763
   46loPI    C2  722  15.510  10.099  10.165 -0.2979  0.2737  0.1451
   46loPI    C3  723  15.177   9.882  10.215  0.0623 -0.3294  0.0331
   46loPI   PO4  724  15.420  10.096   9.655 -0.1013 -0.0978  0.0662
   46loPI   GL1  725  15.398  10.065   9.154 -0.0012 -0.2856 -0.1031
   46loPI   GL2  726  15.363   9.745   8.929 -0.0408  0.0290 -0.3193
   46loPI   C1A  727  15.488  10.251   8.860  0.0861  0.1485 -0.2482
   46loPI   C2A  728  15.736  10.263   8.575 -0.2375 -0.0042 -0.0276
   46loPI   C3A  729  15.921  10.512   8.365 -0.1451 -0.0644 -0.2041
   46loPI   C4A  730  16.210  10.801   8.169 -0.3701  0.1460 -0.0095
   46loPI   C5A  731  16.402  10.815   7.734  0.0106  0.3992  0.2298
   46loPI   C6A  732  16.648  10.937   7.483 -0.2374  0.1524  0.2256
   46loPI   C1B  733  15.343   9.884   8.470 -0.0352  0.1967 -0.1280
   46loPI   C2B  734  15.147   9.873   8.100  0.1551  0.1095 -0.0706
   46loPI   C3B  735  15.165  10.154   7.730 -0.0425 -0.0509 -0.1770
   46loPI   C4B  736  15.537  10.356   7.523  0.0907  0.0738 -0.2815
   47loPI    C1  737   5.628   6.125  10.180 -0.1012 -0.3185 -0.0713
   47loPI    C2  738   5.305   6.244  10.382 -0.0637 -0.1198 -0.1260
   47loPI    C3  739   5.566   5.994  10.553 -0.0034  0.0890  0.0935
   47loPI   PO4  740   5.646   6.088  10.021 -0.1257 -0.0251 -0.1786
   47loPI   GL1  741   5.679   6.358   9.628 -0.0492  0.2338 -0.3728
   47loPI   GL2  742   5.511   6.680   9.555 -0.1079  0.0702 -0.2585
   47loPI   C1A  743   5.642   6.317   9.209  0.0432 -0.2239 -0.0739
   47loPI   C2A  744   5.621   6.515   8.824  0.2454 -0.1339 -0.0789
   47loPI   C3A  745   5.466   6.836   8.557 -0.0612 -0.0459 -0.3166
   47loPI   C4A  746   5.403   7.011   8.221 -0.2557 -0.2456 -0.0729
   47loPI   C5A  747   5.417   7.097   7.759 -0.1370  0.0191  0.2391
   47loPI   C6A  748   5.413   7.228   7.429  0.0098  0.2253  0.0172
   47loPI   C1B  749   5.832   6.793   9.171 -0.1306  0.0119 -0.0098
   47loPI   C2B  750   5.954   6.852   8.699  0.4567  0.0806  0.1938
   47loPI   C3B  751   6.078   7.180   8.395  0.2691 -0.2019 -0.0754
   47loPI   C4B  752   5.941   7.106   8.019  0.0484  0.0757 -0.1669
   48loPI    C1  753   4.582  19.048  10.614  0.0649 -0.1254 -0.1676
   48loPI    C2  754   4.863  18.791  10.736  0.1450 -0.0161 -0.1204
   48loPI    C3  755   4.508  18.803  10.921  0.2261  0.0715  0.0321
   48loPI   PO4  756   4.523  19.005  10.363 -0.0172 -0.0120 -0.0395
   48loPI   GL1  757   4.481  19.183   9.927  0.0357 -0.1224  0.0236
   48loPI   GL2  758   4.330  19.460   9.826 -0.3916 -0.2049  0.4356
   48loPI   C1A  759   4.531  18.966   9.566  0.0294 -0.0861 -0.1812
   48loPI   C2A  760   4.665  19.031   9.148  0.0204  0.1422  0.1716
   48loPI   C3A  761   4.643  19.141   8.732 -0.1596 -0.0133 -0.0799
   48loPI   C4A  762   4.670  19.058   8.325  0.1951 -0.2649  0.0732
   48loPI   C5A  763   4.521  19.108   7.969  0.1029  0.3853  0.2639
   48loPI   C6A  764   4.572  19.131   7.523  0.3515  0.0311  0.0757
   48loPI   C1B  765   4.306  19.373   9.413 -0.1871 -0.2628 -0.2904
   48loPI   C2B  766   4.294  19.410   9.032 -0.2388 -0.2078 -0.1813
   48loPI   C3B  767   4.360  19.591   8.646  0.1594 -0.3940  0.0885
   48loPI   C4B  768   4.293  19.596   8.143  0.0949  0.0064  0.3182
   49loPI    C1  769   7.078   8.710  10.114 -0.1255 -0.0994 -0.1844
   49loPI    C2  770   7.032   8.498  10.450  0.0171  0.0981 -0.0378
   49loPI    C3  771   7.215   8.854  10.462 -0.0688  0.1533 -0.3088
   49loPI   PO4  772   7.060   8.432   9.963 -0.2788 -0.0734 -0.1187
   49loPI   GL1  773   7.236   8.345   9.539 -0.1741 -0.3413 -0.1206
   49loPI   GL2  774   7.481   8.378   9.303 -0.0778 -0.3862  0.1444
   49loPI   C1A  775   7.056   8.530   9.078 -0.0518  0.1604 -0.5242
   49loPI   C2A  776   7.102   8.642   8.613  0.2174 -0.2314 -0.1703
   49loPI   C3A  777   7.321   8.381   8.320 -0.0491 -0.2000 -0.2488
   49loPI   C4A  778   7.284   8.162   7.881  0.0465  0.0900 -0.2868
   49loPI   C5A  779   7.111   8.148   7.532 -0.2085  0.0999 -0.0252
   49loPI   C6A  780   7.074   8.218   7.028  0.2534  0.0841  0.1085
   49loPI   C1B  781   7.494   8.229   8.825  0.1608  0.2131  0.4059
   49loPI   C2B  782   7.634   8.014   8.420 -0.1317  0.4461  0.0653
   49loPI   C3B  783   7.734   7.854   8.054  0.0851  0.2408  0.0611
   49loPI   C4B  784   7.970   7.886   7.809  0.1375  0.0660  0.1190
   50loPI    C1  785   7.448  17.183  10.429 -0.0171  0.0911  0.0311
   50loPI    C2  786   7.789  17.132  10.227 -0.1309  0.3682 -0.2393
   50loPI    C3  787   7.765  17.412  10.511 -0.0055  0.0545  0.0885
   50loPI   PO4  788   7.279  17.041  10.330  0.1033 -0.3986 -0.1327
   50loPI   GL1  789   7.207  17.023   9.933 -0.1207 -0.1902  0.0241
   50loPI   GL2  790   7.512  16.933   9.827  0.0675  0.2914  0.0645
   50loPI   C1A  791   7.098  16.744   9.699  0.1793  0.2657 -0.0239
   50loPI   C2A  792   7.058  16.668   9.235  0.1928  0.0602 -0.1524
   50loPI   C3A  793   6.928  16.589   8.840  0.0514 -0.1357  0.0621
   50loPI   C4A  794   7.256  16.557   8.466 -0.0127  0.1759  0.1426
   50loPI   C5A  795   7.249  16.437   8.032  0.0135 -0.1327 -0.3994
   50loPI   C6A  796   7.382  16.379   7.588  0.1230  0.1397 -0.2012
   50loPI   C1B  797   7.285  17.116   9.419  0.3041 -0.0248 -0.1208
   50loPI   C2B  798   7.203  17.272   8.963  0.0178  0.1291 -0.0503
   50loPI   C3B  799   7.035  17.018   8.656 -0.2222 -0.3144  0.0599
   50loPI   C4B  800   6.852  16.818   8.299 -0.3462  0.1156 -0.2116
   51loPI    C1  801  18.274  17.788   9.659 -0.0325  0.0284  0.1318
   51loPI    C2  802  18.375  17.836  10.043  0.0225 -0.5487  0.1986
   51loPI    C3  803  17.999  17.903   9.925  0.1149  0.1227  0.2453
   51loPI   PO4  804  18.543  17.586   9.570  0.0354 -0.0579 -0.1035
   51loPI   GL1  805  18.589  17.281   9.316  0.0698 -0.0956  0.0486
   51loPI   GL2  806  18.306  17.081   9.419  0.1081  0.1383  0.1612
   51loPI   C1A  807  18.508  17.117   8.941 -0.0183  0.0525  0.2128
   51loPI   C2A  808  18.313  17.087   8.609 -0.0350  0.0337 -0.0055
   51loPI   C3A  809  18.009  17.059   8.328 -0.1627 -0.0425 -0.2420
   51loPI   C4A  810  18.106  17.078   7.852 -0.1047 -0.0238  0.2056
   51loPI   C5A  811  18.360  17.412   7.556 -0.3362  0.0461 -0.0494
   51loPI   C6A  812  18.643  17.629   7.343 -0.0363  0.2271 -0.2911
   51loPI   C1B  813  18.117  16.876   9.126 -0.0410 -0.5118  0.1410
   51loPI   C2B  814  17.973  16.766   8.725  0.0925  0.2225 -0.2147
   51loPI   C3B  815  17.903  16.529   8.420  0.2462  0.1372 -0.0233
   51loPI   C4B  816  17.815  16.720   8.017 -0.1188  0.1968 -0.1730
   52loPI    C1  817   4.437  16.932   9.798 -0.0989  0.0693  0.0921
   52loPI    C2  818   4.485  17.259   9.573  0.3968 -0.1436 -0.1258
   52loPI    C3  819   4.557  17.275   9.966  0.0839  0.0879 -0.0735
   52loPI   PO4  820   4.266  16.821   9.562 -0.3002 -0.1177 -0.1619
   52loPI   GL1  821   4.281  16.903   9.188  0.0030  0.0400 -0.6234
   52loPI   GL2  822   4.421  16.721   8.974  0.3463  0.1978 -0.1766
   52loPI   C1A  823   4.180  17.208   8.884  0.1898 -0.2615  0.1753
   52loPI   C2A  824   4.105  17.269   8.460 -0.0680 -0.1405  0.0506
   52loPI   C3A  825   4.172  17.301   8.016  0.0811  0.0788 -0.2511
   52loPI   C4A  826   3.831  17.286   7.636  0.0572 -0.1701  0.2339
   52loPI   C5A  827   3.635  17.042   7.238  0.0060 -0.0303  0.3345
   52loPI   C6A  828   3.256  16.923   7.130 -0.0644  0.0871 -0.2670
   52loPI   C1B  829   4.471  16.765   8.598  0.1625  0.1910  0.1590
   52loPI   C2B  830   4.461  16.828   8.155  0.1060  0.2040  0.0077
   52loPI   C3B  831   4.492  16.884   7.690  0.0638 -0.0812  0.1674
   52loPI   C4B  832   4.257  17.199   7.418 -0.0124  0.3346  0.2429
   53loPI    C1  833  15.934   0.499   9.881  0.1319  0.0884  0.2623
   53loPI    C2  834  16.048   0.121   9.820 -0.2523  0.0530 -0.3197
   53loPI    C3  835  16.215   0.416   9.609 -0.1476  0.1815 -0.0617
   53loPI   PO4  836  15.602   0.472   9.819 -0.2236 -0.0707 -0.1950
   53loPI   GL1  837  15.536   0.215   9.525 -0.0535  0.2499 -0.2877
   53loPI   GL2  838  15.826   0.205   9.357  0.1279 -0.3205 -0.2300
   53loPI   C1A  839  15.245   0.334   9.201 -0.1167 -0.0642 -0.0601
   53loPI   C2A  840  14.919   0.281   8.900 -0.2534  0.2733 -0.3539
   53loPI   C3A  841  14.763   0.374   8.499  0.2066 -0.2730 -0.0058
   53loPI   C4A  842  14.552   0.341   8.125 -0.3556 -0.0378  0.0937
   53loPI   C5A  843  14.789   0.202   7.746  0.1538  0.0471 -0.2148
   53loPI   C6A  844  14.924   0.391   7.475  0.0973 -0.0582 -0.0204
   53loPI   C1B  845  15.720   0.484   8.957 -0.0044 -0.1396 -0.1232
   53loPI   C2B  846  15.754   0.627   8.535  0.0419 -0.2028  0.2070
   53loPI   C3B  847  15.914   0.994   8.670 -0.1559  0.0133 -0.1242
   53loPI   C4B  848  16.165   1.195   8.988 -0.2207 -0.0548 -0.0163
   54loPI    C1  849   2.123  11.038   9.482 -0.2886 -0.0868  0.1297
   54loPI    C2  850   2.314  10.955   9.823 -0.1191  0.1388  0.0917
   54loPI    C3  851   2.137  11.311   9.775  0.0040  0.1727 -0.1197
   54loPI   PO4  852   2.247  11.000   9.295  0.2836  0.1604  0.0410
   54loPI   GL1  853   2.427  10.972   8.924  0.0840  0.1113 -0.2848
   54loPI   GL2  854   2.321  11.253   8.829  0.0213 -0.0258 -0.3545
   54loPI   C1A  855   2.662  11.113   8.520  0.1094  0.0479  0.4811
   54loPI   C2A  856   2.856  11.050   7.991 -0.1750 -0.2970  0.2040
   54loPI   C3A  857   3.174  11.268   7.581 -0.1004 -0.2263  0.0217
   54loPI   C4A  858   3.161  11.183   7.222 -0.3126  0.2544  0.3387
   54loPI   C5A  859   3.063  11.106   6.783  0.1587  0.2226 -0.1454
   54loPI   C6A  860   2.816  11.384   6.513  0.1548  0.4803 -0.0720
   54loPI   C1B  861   1.974  11.328   8.721 -0.1163 -0.0004  0.1351
   54loPI   C2B  862   1.736  11.551   8.353 -0.1117  0.1872  0.3534
   54loPI   C3B  863   1.638  11.728   7.980 -0.2442  0.1821 -0.1153
   54loPI   C4B  864   1.505  11.711   7.551 -0.1850 -0.2832  0.1863
   55loPI    C1  865  15.488  18.986  10.423  0.0163 -0.1092 -0.2271
   55loPI    C2  866  15.448  19.381  10.372  0.1444 -0.0816 -0.1158
   55loPI    C3  867  15.141  19.166  10.512  0.0412 -0.0381 -0.2729
   55loPI   PO4  868  15.563  18.874  10.168 -0.1520  0.0825  0.2261
   55loPI   GL1  869  15.573  18.704   9.745  0.3331 -0.1226  0.1258
   55loPI   GL2  870  15.354  18.932   9.696  0.1017  0.1840  0.2193
   55loPI   C1A  871  15.693  18.788   9.363 -0.3209  0.0494  0.3952
   55loPI   C2A  872  15.839  19.087   9.240 -0.5051 -0.2206 -0.1921
   55loPI   C3A  873  15.832  19.354   8.883 -0.5248  0.0847 -0.0166
   55loPI   C4A  874  15.964  19.534   8.568  0.0937 -0.0519 -0.0586
   55loPI   C5A  875  15.695  19.614   8.288  0.2671 -0.0534 -0.0804
   55loPI   C6A  876  15.579  19.542   7.767 -0.3317 -0.1473  0.3710
   55loPI   C1B  877  15.316  19.035   9.233  0.2962 -0.1196 -0.1075
   55loPI   C2B  878  15.355  19.369   8.953 -0.2437  0.0689  0.0877
   55loPI   C3B  879  15.234  19.633   8.499  0.2807  0.1675 -0.1019
   55loPI   C4B  880  15.092  19.508   8.164 -0.0969 -0.1126  0.0682
   56loPI    C1  881   9.453   8.941  10.071  0.1757 -0.0485  0.0900
   56loPI    C2  882   9.657   9.095  10.378  0.0052  0.0996  0.1303
   56loPI    C3  883   9.453   8.755  10.425 -0.1812  0.2247  0.2396
   56loPI   PO4  884   9.624   8.913   9.846  0.1385 -0.0499 -0.2080
   56loPI   GL1  885   9.592   8.839   9.377 -0.1931  0.2252  0.0057
   56loPI   GL2  886   9.340   8.870   9.245 -0.2188  0.1017 -0.2274
   56loPI   C1A  887   9.731   8.749   8.921 -0.1527 -0.0601  0.0833
   56loPI   C2A  888   9.948   8.639   8.419 -0.2058 -0.0063 -0.0631
   56loPI   C3A  889   9.914   8.975   8.099 -0.0420 -0.1994  0.3685
   56loPI   C4A  890   9.835   9.003   7.691 -0.3395 -0.2604 -0.0443
   56loPI   C5A  891   9.610   8.924   7.408  0.0687 -0.0348 -0.2033
   56loPI   C6A  892   9.367   8.569   7.321  0.0674 -0.1964  0.1213
   56loPI   C1B  893   9.294   8.984   8.897 -0.3882  0.1444  0.1345
   56loPI   C2B  894   9.001   9.138   8.558 -0.1885 -0.1541 -0.0166
   56loPI   C3B  895   8.974   8.975   8.165 -0.0694  0.1683 -0.1148
   56loPI   C4B  896   9.115   8.759   7.742 -0.1797 -0.0698 -0.2583
   57loPI    C1  897   4.408  15.446  10.025  0.0490  0.0904  0.2613
   57loPI    C2  898   4.568  15.080  10.037 -0.2375 -0.0439  0.1012
   57loPI    C3  899   4.410  15.240  10.368 -0.0993 -0.0578  0.1749
   57loPI   PO4  900   4.601  15.625   9.791 -0.3350  0.0989  0.1655
   57loPI   GL1  901   4.542  15.798   9.401 -0.2244  0.1757 -0.0401
   57loPI   GL2  902   4.266  15.821   9.212 -0.3536  0.0726  0.1372
   57loPI   C1A  903   4.558  15.425   9.092 -0.0110 -0.3318 -0.0887
   57loPI   C2A  904   4.759  15.406   8.783 -0.2255  0.2111 -0.4030
   57loPI   C3A  905   4.893  15.449   8.394  0.3498 -0.1735 -0.0837
   57loPI   C4A  906   5.180  15.595   8.097  0.2503 -0.0763 -0.1621
   57loPI   C5A  907   5.574  15.671   7.825  0.3688 -0.1553  0.3074
   57loPI   C6A  908   5.773  15.853   7.432  0.1405 -0.0210 -0.2184
   57loPI   C1B  909   4.408  15.848   8.871 -0.1582 -0.1322  0.1626
   57loPI   C2B  910   4.414  15.851   8.462  0.1922  0.0140  0.1308
   57loPI   C3B  911   4.601  15.917   8.051 -0.1860 -0.0025 -0.0275
   57loPI   C4B  912   4.647  15.963   7.661  0.3086  0.1616  0.1130
   58loPI    C1  913   7.186   6.656   9.842 -0.0036  0.1166 -0.0703
   58loPI    C2  914   6.960   6.760  10.155  0.0467  0.0403 -0.0083
   58loPI    C3  915   7.221   6.458  10.188 -0.0141 -0.0284 -0.1513
   58loPI   PO4  916   7.249   6.844   9.694 -0.2186 -0.0446  0.0224
   58loPI   GL1  917   7.125   6.965   9.372  0.0557 -0.3133  0.0517
   58loPI   GL2  918   6.895   7.168   9.208  0.0580  0.0714 -0.2317
   58loPI   C1A  919   6.878   6.768   8.972  0.0434 -0.0618 -0.1244
   58loPI   C2A  920   6.916   6.947   8.599 -0.0268 -0.2307  0.2493
   58loPI   C3A  921   6.908   6.892   8.132  0.0534  0.0639 -0.4079
   58loPI   C4A  922   7.056   6.860   7.704 -0.0431 -0.1437  0.2502
   58loPI   C5A  923   7.378   7.012   7.427 -0.1747 -0.4470 -0.1884
   58loPI   C6A  924   7.744   7.165   7.280 -0.0743  0.2407 -0.2639
   58loPI   C1B  925   6.899   7.486   8.868 -0.0521 -0.2165 -0.0991
   58loPI   C2B  926   6.682   7.704   8.582  0.0274 -0.3596  0.3507
   58loPI   C3B  927   6.672   7.789   8.213  0.0866  0.2030 -0.0838
   58loPI   C4B  928   6.821   7.916   7.848  0.1625  0.0338  0.2467
   59loPI    C1  929   9.915   7.013  10.432  0.0751 -0.0486  0.1528
   59loPI    C2  930  10.147   7.126  10.738  0.3540  0.0446 -0.0889
   59loPI    C3  931  10.083   7.376  10.432  0.0719 -0.0455 -0.1063
   59loPI   PO4  932   9.971   6.738  10.427 -0.0463 -0.0219 -0.2922
   59loPI   GL1  933  10.107   6.530  10.020 -0.0943 -0.0750  0.1135
   59loPI   GL2  934   9.903   6.485   9.789  0.0725 -0.0001  0.0571
   59loPI   C1A  935  10.364   6.617   9.693 -0.1080  0.0365  0.2561
   59loPI   C2A  936  10.734   6.389   9.456 -0.0531 -0.0737 -0.0125
   59loPI   C3A  937  10.844   6.293   9.042 -0.0022 -0.1407  0.1160
   59loPI   C4A  938  11.016   6.240   8.621  0.0627 -0.0427 -0.1495
   59loPI   C5A  939  11.087   6.121   8.236  0.0902 -0.0900  0.2630
   59loPI   C6A  940  11.154   6.036   7.728 -0.2241 -0.1042  0.1854
   59loPI   C1B  941  10.211   6.100   9.778 -0.1593  0.2196 -0.2689
   59loPI   C2B  942  10.485   6.006   9.526 -0.1204 -0.0069 -0.1123
   59loPI   C3B  943  10.641   5.779   9.281  0.1782 -0.0184 -0.0342
   59loPI   C4B  944  10.896   5.469   9.354  0.0277 -0.2338  0.2305
   60loPI    C1  945  12.464   2.550  10.163 -0.2077  0.1555  0.0426
   60loPI    C2  946  12.282   2.717  10.477 -0.2894 -0.1328  0.1520
   60loPI    C3  947  12.364   2.326  10.479 -0.1490 -0.1068 -0.1218
   60loPI   PO4  948  12.390   2.750  10.017  0.1359 -0.1412 -0.1326
   60loPI   GL1  949  12.253   2.838   9.564 -0.1166  0.2045  0.1160
   60loPI   GL2  950  11.960   2.583   9.374 -0.0066 -0.2248 -0.3065
   60loPI   C1A  951  11.915   3.174   9.456  0.0173 -0.2779 -0.0649
   60loPI   C2A  952  11.704   3.305   9.095 -0.0220 -0.2508 -0.2435
   60loPI   C3A  953  11.789   3.192   8.668 -0.2007  0.2683 -0.0919
   60loPI   C4A  954  12.004   3.213   8.315 -0.0152 -0.3264  0.0282
   60loPI   C5A  955  12.294   3.297   7.910 -0.1608 -0.1528  0.2385
   60loPI   C6A  956  12.372   3.265   7.574  0.0153  0.0423 -0.0060
   60loPI   C1B  957  12.193   2.386   9.005 -0.2412  0.0518  0.2624
   60loPI   C2B  958  12.273   2.266   8.499 -0.1652  0.1169  0.3439
   60loPI   C3B  959  12.562   1.926   8.259  0.2483 -0.2038  0.1042
   60loPI   C4B  960  12.499   1.897   7.867  0.1361  0.1122  0.1809
   61loPI    C1  961  17.780   8.492   9.622  0.3600 -0.0699 -0.0638
   61loPI    C2  962  17.708   8.194   9.879  0.0541 -0.0481 -0.1203
   61loPI    C3  963  17.705   8.573  10.006  0.1560 -0.0517 -0.1065
   61loPI   PO4  964  17.590   8.451   9.425  0.0007 -0.2703 -0.0672
   61loPI   GL1  965  17.592   8.550   9.046  0.1469  0.0121 -0.2439
   61loPI   GL2  966  17.228   8.563   8.855  0.0116 -0.0426 -0.0003
   61loPI   C1A  967  17.707   8.494   8.571  0.0395  0.3060  0.1684
   61loPI   C2A  968  18.026   8.503   8.170  0.1218  0.0583  0.0674
   61loPI   C3A  969  18.451   8.598   7.928 -0.1032 -0.3116 -0.1731
   61loPI   C4A  970  18.618   8.916   7.665  0.1898  0.0053  0.1048
   61loPI   C5A  971  18.717   9.260   7.408  0.1624 -0.1242  0.0872
   61loPI   C6A  972  18.571   9.257   7.082  0.1774 -0.0657  0.0203
   61loPI   C1B  973  17.136   8.487   8.431 -0.2626  0.0370 -0.0365
   61loPI   C2B  974  17.381   8.287   8.100 -0.0791 -0.2946  0.1217
   61loPI   C3B  975  17.388   8.190   7.630 -0.0625  0.1191  0.1476
   61loPI   C4B  976  17.233   8.161   7.186  0.1165  0.0757  0.1026
   62loPI    C1  977  16.801   9.731   9.457  0.2470  0.1671 -0.0945
   62loPI    C2  978  16.679   9.872   9.103 -0.0846  0.0694 -0.0221
   62loPI    C3  979  16.441   9.902   9.423  0.0261 -0.2478  0.0936
   62loPI   PO4  980  16.895   9.494   9.398 -0.0271  0.0403  0.1637
   62loPI   GL1  981  16.780   9.292   9.018  0.2221 -0.4830 -0.0271
   62loPI   GL2  982  16.839   8.939   9.031 -0.1303 -0.0960  0.3319
   62loPI   C1A  983  16.523   9.178   8.574 -0.1148 -0.1907  0.0987
   62loPI   C2A  984  16.468   9.276   8.202 -0.1585  0.0895  0.0308
   62loPI   C3A  985  16.490   9.302   7.769  0.2880  0.0687  0.0585
   62loPI   C4A  986  16.240   9.080   7.366 -0.1727 -0.0652  0.2531
   62loPI   C5A  987  16.033   8.709   7.275 -0.1232 -0.2067  0.0646
   62loPI   C6A  988  16.214   8.348   7.053  0.3165  0.2603 -0.0005
   62loPI   C1B  989  16.986   8.962   8.578 -0.0881 -0.0822 -0.2302
   62loPI   C2B  990  17.081   8.946   8.122 -0.1664  0.1287  0.4197
   62loPI   C3B  991  17.451   9.125   7.870 -0.0670 -0.2345 -0.1892
   62loPI   C4B  992  17.727   9.137   7.498  0.0820 -0.1013 -0.0409
   63loPI    C1  993   6.260   9.873  10.092  0.1231 -0.0278  0.1126
   63loPI    C2  994   6.173   9.586  10.357  0.0048 -0.1632 -0.0702
   63loPI    C3  995   6.538   9.604  10.194  0.0566 -0.1211  0.0495
   63loPI   PO4  996   6.076   9.884   9.869 -0.1666  0.1827  0.0968
   63loPI   GL1  997   6.175   9.770   9.391  0.0056  0.1491 -0.1377
   63loPI   GL2  998   6.231  10.148   9.203  0.0677 -0.0625 -0.1302
   63loPI   C1A  999   6.288   9.685   8.960  0.4001  0.0425 -0.1388
   63loPI   C2A 1000   6.402   9.790   8.615 -0.1487 -0.1114 -0.0422
   63loPI   C3A 1001   6.510  10.013   8.236  0.0447 -0.0138 -0.1663
   63loPI   C4A 1002   6.652  10.400   8.220  0.0648 -0.0874  0.3089
   63loPI   C5A 1003   6.755  10.736   8.034 -0.1034 -0.0066 -0.1671
   63loPI   C6A 1004   6.783  11.088   7.979  0.0401  0.0104 -0.0077
   63loPI   C1B 1005   5.999  10.163   8.955  0.0439  0.0143  0.2842
   63loPI   C2B 1006   5.511  10.195   8.788 -0.0768  0.3217 -0.4585
   63loPI   C3B 1007   5.526   9.901   8.359  0.2601 -0.1489 -0.0682
   63loPI   C4B 1008   5.656   9.447   8.365  0.1108  0.0868  0.2797
   64loPI    C1 1009   7.262  15.110   9.694  0.2765 -0.0366  0.1135
   64loPI    C2 1010   6.884  15.031   9.592  0.2675 -0.1843  0.2580
   64loPI    C3 1011   7.048  14.851   9.910  0.4049  0.0082  0.2980
   64loPI   PO4 1012   7.293  15.253   9.356 -0.1021  0.1328 -0.0403
   64loPI   GL1 1013   7.356  15.105   8.919 -0.1468 -0.1089 -0.0049
   64loPI   GL2 1014   7.613  14.920   8.841  0.0800  0.0869 -0.1097
   64loPI   C1A 1015   7.299  15.136   8.434 -0.2508 -0.2428 -0.2857
   64loPI   C2A 1016   7.011  15.006   8.110  0.0534 -0.0062  0.2444
   64loPI   C3A 1017   6.698  14.851   7.751  0.2254 -0.2205  0.1722
   64loPI   C4A 1018   6.271  14.934   7.706 -0.1520  0.1368  0.1457
   64loPI   C5A 1019   5.844  14.937   7.722 -0.0754 -0.0519  0.3332
   64loPI   C6A 1020   5.515  15.143   7.841 -0.2767 -0.1115  0.1000
   64loPI   C1B 1021   7.402  14.692   8.630 -0.1180 -0.3157 -0.0953
   64loPI   C2B 1022   7.471  14.535   8.222  0.0777 -0.3237 -0.0974
   64loPI   C3B 1023   7.435  14.477   7.832 -0.0118  0.2438  0.2862
   64loPI   C4B 1024   7.510  14.439   7.408 -0.1913  0.2757 -0.1454
   65loPI    C1 1025  12.657  13.314  10.023  0.3172 -0.0140  0.2817
   65loPI    C2 1026  12.466  12.980  10.133  0.2904 -0.0601  0.0985
   65loPI    C3 1027  12.669  13.194  10.404  0.1661 -0.1323  0.2498
   65loPI   PO4 1028  12.769  13.321   9.818  0.2269  0.2540 -0.0020
   65loPI   GL1 1029  12.744  13.442   9.388 -0.1328 -0.2020  0.3294
   65loPI   GL2 1030  13.116  13.466   9.244 -0.0117 -0.1488 -0.0975
   65loPI   C1A 1031  12.698  13.536   8.935  0.2147  0.3444  0.2778
   65loPI   C2A 1032  12.801  13.567   8.629  0.0711  0.0244  0.1377
   65loPI   C3A 1033  12.991  13.519   8.260 -0.1196  0.1742  0.1339
   65loPI   C4A 1034  13.030  13.226   7.899 -0.2569  0.0646 -0.0325
   65loPI   C5A 1035  12.918  12.772   7.665  0.0959 -0.2309  0.3125
   65loPI   C6A 1036  12.580  12.712   7.384 -0.0066  0.0568  0.2172
   65loPI   C1B 1037  13.499  13.460   9.136 -0.1784  0.0044 -0.2672
   65loPI   C2B 1038  13.662  13.341   8.710 -0.0125  0.0520 -0.1065
   65loPI   C3B 1039  13.915  13.239   8.300  0.2069 -0.0676  0.1489
   65loPI   C4B 1040  14.331  13.224   8.082  0.0231  0.3541  0.2746
   66loPI    C1 1041  15.398   0.761  10.250 -0.2590 -0.2653 -0.0180
   66loPI    C2 1042  15.233   0.826  10.608 -0.0836  0.0384  0.0111
   66loPI    C3 1043  15.563   0.601  10.578 -0.2760 -0.2476 -0.0009
   66loPI   PO4 1044  15.186   0.978  10.111 -0.0074  0.1719  0.0103
   66loPI   GL1 1045  14.887   1.065   9.775  0.1729  0.0576 -0.1429
   66loPI   GL2 1046  14.664   0.954   9.930 -0.1961 -0.3672  0.1438
   66loPI   C1A 1047  14.834   1.125   9.271  0.0283 -0.4285  0.1999
   66loPI   C2A 1048  14.923   1.345   8.869  0.3098 -0.3240 -0.0454
   66loPI   C3A 1049  15.079   1.172   8.389 -0.0568  0.0536  0.2771
   66loPI   C4A 1050  15.087   1.012   7.941  0.1851 -0.3622  0.2202
   66loPI   C5A 1051  15.286   1.227   7.642  0.0206 -0.3728  0.4062
   66loPI   C6A 1052  15.617   1.214   7.307  0.3619 -0.1051 -0.0149
   66loPI   C1B 1053  14.604   0.707   9.538  0.4071 -0.0941  0.2561
   66loPI   C2B 1054  14.711   0.671   9.156 -0.2076  0.2250  0.2449
   66loPI   C3B 1055  14.848   0.795   8.674  0.2227 -0.0734 -0.0807
   66loPI   C4B 1056  14.764   0.800   8.206  0.3705 -0.1744  0.1792
   67loPI    C1 1057  17.467  14.269   9.935 -0.1178 -0.1164  0.0780
   67loPI    C2 1058  17.596  13.958  10.150  0.1445 -0.0674 -0.0054
   67loPI    C3 1059  17.455  14.283  10.335 -0.0123 -0.1845  0.0838
   67loPI   PO4 1060  17.663  14.275   9.764 -0.4663  0.0615 -0.2167
   67loPI   GL1 1061  17.665  14.347   9.278 -0.0446 -0.0150 -0.2031
   67loPI   GL2 1062  17.996  14.604   9.242 -0.1535 -0.0777 -0.1716
   67loPI   C1A 1063  17.670  14.454   8.893 -0.1918 -0.3720 -0.2574
   67loPI   C2A 1064  17.772  14.562   8.551  0.1877 -0.0161 -0.1804
   67loPI   C3A 1065  17.807  14.691   8.094  0.2631  0.0736  0.3394
   67loPI   C4A 1066  17.643  15.028   7.819 -0.0308  0.3116  0.0513
   67loPI   C5A 1067  17.609  15.432   7.513  0.3103 -0.1083  0.2658
   67loPI   C6A 1068  17.289  15.754   7.454 -0.4221  0.1342  0.2753
   67loPI   C1B 1069  18.007  14.848   8.923 -0.1864 -0.1967  0.2225
   67loPI   C2B 1070  17.768  15.089   8.624  0.0417 -0.4085 -0.1754
   67loPI   C3B 1071  17.442  15.120   8.309  0.1810  0.2184 -0.0211
   67loPI   C4B 1072  16.997  15.035   8.339  0.2632  0.1212 -0.1749
   68loPI    C1 1073  16.742  12.566   9.944  0.0594  0.0206 -0.1168
   68loPI    C2 1074  16.895  12.769  10.253  0.1070 -0.0956 -0.0634
   68loPI    C3 1075  16.563  12.550  10.302  0.0347 -0.0014 -0.1301
   68loPI   PO4 1076  16.865  12.486   9.758 -0.0375 -0.0467 -0.0062
   68loPI   GL1 1077  16.856  12.376   9.373  0.0155  0.0321  0.1819
   68loPI   GL2 1078  16.699  12.747   9.353  0.0593  0.0980 -0.2193
   68loPI   C1A 1079  16.541  12.358   9.056  0.0999  0.1422 -0.1415
   68loPI   C2A 1080  16.553  12.381   8.577  0.0826 -0.3009 -0.2766
   68loPI   C3A 1081  16.574  12.300   8.178  0.1175 -0.0514  0.1692
   68loPI   C4A 1082  16.600  12.296   7.750  0.0156 -0.0526  0.0643
   68loPI   C5A 1083  16.613  12.394   7.357  0.0491 -0.0130 -0.0597
   68loPI   C6A 1084  16.305  12.618   7.007 -0.1711  0.0156  0.1997
   68loPI   C1B 1085  16.648  12.885   8.981 -0.0175  0.0974 -0.0954
   68loPI   C2B 1086  16.618  12.861   8.525 -0.0476 -0.3930  0.0187
   68loPI   C3B 1087  16.666  12.872   8.106  0.4162  0.0389 -0.3642
   68loPI   C4B 1088  16.580  13.172   7.754 -0.2850 -0.1477 -0.2224
   69loPI    C1 1089  11.842  10.562  10.108  0.0163 -0.1233 -0.1287
   69loPI    C2 1090  11.581  10.261  10.076 -0.1901  0.0423 -0.0225
   69loPI    C3 1091  11.872  10.245  10.350 -0.2712 -0.0092  0.0611
   69loPI   PO4 1092  11.974  10.600   9.826 -0.2680  0.3231  0.2314
   69loPI   GL1 1093  11.907  10.511   9.379 -0.1015 -0.1963 -0.0257
   69loPI   GL2 1094  12.132  10.309   9.340 -0.2685  0.1850 -0.2620
   69loPI   C1A 1095  12.022  10.692   9.042  0.1188  0.1539 -0.2178
   69loPI   C2A 1096  11.772  11.015   8.831 -0.0520  0.4682 -0.2131
   69loPI   C3A 1097  11.563  11.302   8.492 -0.1052 -0.0517  0.0951
   69loPI   C4A 1098  11.554  11.296   8.038  0.2873  0.0039 -0.0095
   69loPI   C5A 1099  11.506  11.394   7.522 -0.0571  0.2905  0.0590
   69loPI   C6A 1100  11.828  11.391   7.161  0.3656  0.1519 -0.0089
   69loPI   C1B 1101  12.426  10.403   9.049 -0.1365 -0.0037 -0.3782
   69loPI   C2B 1102  12.857  10.516   8.866  0.1875  0.2583 -0.2995
   69loPI   C3B 1103  13.393  10.541   8.750  0.4100  0.0571  0.0629
   69loPI   C4B 1104  13.624  10.860   8.506 -0.3075  0.1326 -0.2944
   70loPI    C1 1105  15.949  12.631   9.833 -0.0657 -0.1640 -0.2228
   70loPI    C2 1106  16.255  12.400   9.949 -0.0068 -0.0199 -0.0871
   70loPI    C3 1107  16.324  12.733   9.738 -0.0772 -0.0300 -0.1268
   70loPI   PO4 1108  15.808  12.429   9.694  0.0749 -0.0295 -0.1400
   70loPI   GL1 1109  15.845  12.531   9.320  0.0783 -0.0909 -0.1468
   70loPI   GL2 1110  16.080  12.733   9.236 -0.0697 -0.2857 -0.0589
   70loPI   C1A 1111  15.769  12.322   8.922 -0.1522 -0.1298 -0.0360
   70loPI   C2A 1112  15.500  12.000   8.724 -0.0526 -0.1124 -0.0973
   70loPI   C3A 1113  15.309  11.806   8.445  0.1055  0.3705 -0.0108
   70loPI   C4A 1114  15.066  11.615   8.093  0.1492  0.0138 -0.0144
   70loPI   C5A 1115  14.861  11.506   7.688 -0.1575  0.1990 -0.0771
   70loPI   C6A 1116  14.550  11.444   7.480 -0.3362  0.1897 -0.1653
   70loPI   C1B 1117  16.155  12.682   8.837 -0.3802  0.2551  0.0533
   70loPI   C2B 1118  16.208  12.649   8.339  0.1169 -0.1884 -0.2183
   70loPI   C3B 1119  16.207  12.649   7.948  0.1003  0.0402 -0.1569
   70loPI   C4B 1120  16.319  12.782   7.492  0.0279  0.0941  0.0942
   71loPI    C1 1121   0.213   1.810  10.348  0.1701 -0.0567 -0.0496
   71loPI    C2 1122   0.101   1.475  10.160 -0.0394  0.1312 -0.2658
   71loPI    C3 1123  -0.041   1.557  10.525  0.0520 -0.0385 -0.1912
   71loPI   PO4 1124   0.272   1.967  10.044 -0.1635  0.0155  0.1987
   71loPI   GL1 1125   0.359   1.854   9.658 -0.2307 -0.1097  0.0743
   71loPI   GL2 1126   0.295   2.110   9.571  0.0990  0.1193  0.2894
   71loPI   C1A 1127   0.502   1.577   9.375 -0.2399 -0.1457  0.0333
   71loPI   C2A 1128   0.511   1.404   8.908 -0.0367  0.2611 -0.1271
   71loPI   C3A 1129   0.731   1.174   8.517  0.1423 -0.0823  0.0268
   71loPI   C4A 1130   0.825   1.370   8.075  0.0337  0.2023  0.2901
   71loPI   C5A 1131   1.022   1.568   7.695 -0.3555  0.2451 -0.5068
   71loPI   C6A 1132   1.383   1.988   7.563  0.1609 -0.0312  0.2073
   71loPI   C1B 1133   0.208   2.130   9.232 -0.5201 -0.0286  0.2473
   71loPI   C2B 1134  -0.058   2.061   8.821 -0.2512  0.0561 -0.1081
   71loPI   C3B 1135  -0.249   1.790   8.545  0.2215 -0.0313  0.0771
   71loPI   C4B 1136  -0.612   1.605   8.278  0.1466 -0.0858  0.1205
   72loPI    C1 1137   1.535   0.262  10.432  0.1192 -0.0281 -0.0567
   72loPI    C2 1138   1.237   0.231  10.698  0.3339 -0.1977  0.1680
   72loPI    C3 1139   1.555  -0.011  10.724  0.4305 -0.1096 -0.1511
   72loPI   PO4 1140   1.454   0.334  10.143  0.1817  0.0596  0.3414
   72loPI   GL1 1141   1.435   0.611   9.783  0.0909 -0.2527  0.0103
   72loPI   GL2 1142   1.337   0.815   9.622  0.0726  0.0572 -0.1137
   72loPI   C1A 1143   1.574   0.441   9.456 -0.3395 -0.1468  0.3819
   72loPI   C2A 1144   1.527   0.598   8.985  0.1167  0.3238  0.0202
   72loPI   C3A 1145   1.544   0.426   8.521 -0.0041 -0.1331 -0.0309
   72loPI   C4A 1146   1.623   0.366   8.085  0.0294 -0.0567  0.0486
   72loPI   C5A 1147   1.611   0.317   7.605 -0.1015 -0.2488 -0.0474
   72loPI   C6A 1148   1.367   0.150   7.244  0.1497  0.2423 -0.0230
   72loPI   C1B 1149   1.230   0.937   9.207 -0.0261  0.1058 -0.1256
   72loPI   C2B 1150   1.292   1.000   8.814  0.0426  0.0686 -0.1856
   72loPI   C3B 1151   1.123   0.882   8.400 -0.0435 -0.0293 -0.1156
   72loPI   C4B 1152   1.033   0.832   7.986  0.0082  0.0312  0.0528
   73loPI    C1 1153  18.460   2.568  10.369  0.2351  0.0644  0.1426
   73loPI    C2 1154  18.422   2.889  10.605 -0.1696  0.0831  0.0585
   73loPI    C3 1155  18.127   2.620  10.584 -0.1141  0.0482 -0.3775
   73loPI   PO4 1156  18.564   2.682  10.126  0.1589  0.1128  0.1672
   73loPI   GL1 1157  18.747   2.446   9.807 -0.3353 -0.1192 -0.0780
   73loPI   GL2 1158  19.007   2.510  10.000  0.3161  0.1178 -0.0045
   73loPI   C1A 1159  18.670   2.501   9.340  0.1473 -0.3420  0.2674
   73loPI   C2A 1160  18.646   2.755   9.002 -0.1730 -0.3130  0.1000
   73loPI   C3A 1161  18.641   2.948   8.657  0.0308  0.0825  0.1217
   73loPI   C4A 1162  18.412   2.942   8.305  0.1374  0.4792  0.0401
   73loPI   C5A 1163  18.427   2.644   7.993 -0.1580 -0.1762 -0.1159
   73loPI   C6A 1164  18.672   2.459   7.703 -0.0307 -0.3518 -0.0068
   73loPI   C1B 1165  19.155   2.660   9.551  0.0689  0.3293 -0.1946
   73loPI   C2B 1166  19.419   2.595   9.265 -0.2017 -0.0502 -0.1059
   73loPI   C3B 1167  19.573   2.626   8.941  0.2032  0.0732  0.1776
   73loPI   C4B 1168  19.763   2.724   8.645 -0.4988 -0.0093 -0.1872
   74loPI    C1 1169   5.414  15.930  10.020  0.1054  0.1168  0.0030
   74loPI    C2 1170   5.795  15.857   9.921  0.0779 -0.0442  0.0122
   74loPI    C3 1171   5.708  16.017  10.277  0.1409  0.0559 -0.0168
   74loPI   PO4 1172   5.351  15.959   9.679 -0.0638  0.0884 -0.0467
   74loPI   GL1 1173   5.590  15.850   9.393  0.2066  0.1139  0.2655
   74loPI   GL2 1174   5.834  15.600   9.457 -0.0035 -0.0594  0.2770
   74loPI   C1A 1175   5.565  16.051   8.996  0.0109  0.4054  0.4352
   74loPI   C2A 1176   5.263  16.272   8.762  0.1225 -0.2153  0.0674
   74loPI   C3A 1177   5.133  16.542   8.412  0.1578 -0.2399 -0.0395
   74loPI   C4A 1178   5.186  16.698   7.847 -0.0091  0.0549 -0.1033
   74loPI   C5A 1179   5.333  16.399   7.415  0.0346 -0.1167  0.1228
   74loPI   C6A 1180   5.691  16.339   7.298  0.2361  0.2992 -0.1093
   74loPI   C1B 1181   6.013  15.848   9.141  0.2284 -0.4080 -0.0685
   74loPI   C2B 1182   5.975  16.238   8.941 -0.1103 -0.2418  0.0879
   74loPI   C3B 1183   5.724  16.330   8.604  0.0237 -0.2599  0.1481
   74loPI   C4B 1184   5.615  16.549   8.216  0.0191  0.0842 -0.0898
   75loPI    C1 1185  11.508   5.104  10.555 -0.0017  0.0766  0.0429
   75loPI    C2 1186  11.428   5.429  10.774  0.1849 -0.0268  0.2678
   75loPI    C3 1187  11.437   5.068  10.947  0.1735 -0.1292  0.0575
   75loPI   PO4 1188  11.444   5.123  10.313 -0.1810 -0.1385  0.0699
   75loPI   GL1 1189  11.686   5.362   9.949 -0.1181  0.1985 -0.3355
   75loPI   GL2 1190  11.466   5.489   9.916  0.3139 -0.0027 -0.1199
   75loPI   C1A 1191  11.747   5.084   9.585 -0.2773  0.1698 -0.4546
   75loPI   C2A 1192  11.782   4.635   9.626 -0.0046 -0.1673  0.2072
   75loPI   C3A 1193  11.878   4.261   9.382 -0.3052 -0.2289 -0.0137
   75loPI   C4A 1194  11.821   4.309   8.983  0.0390  0.2994  0.3114
   75loPI   C5A 1195  11.825   4.446   8.511 -0.3483 -0.2582 -0.1942
   75loPI   C6A 1196  12.087   4.500   8.208  0.1655  0.1406 -0.4811
   75loPI   C1B 1197  11.658   5.555   9.505  0.1524 -0.3753 -0.0162
   75loPI   C2B 1198  11.767   5.302   9.100 -0.0252 -0.0429  0.0023
   75loPI   C3B 1199  11.779   5.202   8.737  0.3599  0.1939  0.0002
   75loPI   C4B 1200  11.771   5.335   8.316 -0.1602 -0.0690 -0.2672
   76loPI    C1 1201  17.546   0.351   9.867 -0.0154  0.0467  0.0191
   76loPI    C2 1202  17.232   0.588   9.941  0.0166  0.1036 -0.0258
   76loPI    C3 1203  17.310   0.278  10.182 -0.1232  0.0388 -0.0628
   76loPI   PO4 1204  17.624   0.454   9.664 -0.1417  0.0766 -0.1228
   76loPI   GL1 1205  17.589   0.638   9.265 -0.1538  0.0744 -0.2198
   76loPI   GL2 1206  17.747   0.906   9.193 -0.0293  0.2005 -0.0489
   76loPI   C1A 1207  17.688   0.214   9.042 -0.0111  0.0389  0.0802
   76loPI   C2A 1208  18.139   0.172   8.861 -0.1391  0.1966  0.3852
   76loPI   C3A 1209  18.386   0.142   8.515  0.0004  0.1673 -0.1764
   76loPI   C4A 1210  18.789  -0.108   8.361  0.0612 -0.0140 -0.0735
   76loPI   C5A 1211  18.922  -0.314   8.030 -0.1153 -0.1544  0.3014
   76loPI   C6A 1212  19.315  -0.241   7.711  0.0936  0.2047  0.0228
   76loPI   C1B 1213  17.514   0.655   8.778  0.0834 -0.2250  0.1763
   76loPI   C2B 1214  17.292   0.695   8.479  0.2949  0.2288  0.1632
   76loPI   C3B 1215  17.455   0.647   8.106  0.1195 -0.0645 -0.0012
   76loPI   C4B 1216  17.452   0.677   7.654 -0.3131  0.2009 -0.1527
   77loPI    C1 1217   7.901   0.141  10.744  0.0030 -0.0438  0.2210
   77loPI    C2 1218   7.628  -0.024  10.985 -0.2732  0.1177  0.0250
   77loPI    C3 1219   7.873   0.260  11.125 -0.3716  0.1475  0.1397
   77loPI   PO4 1220   7.692   0.206  10.469 -0.1412 -0.0651  0.0032
   77loPI   GL1 1221   7.702   0.121   9.946 -0.2494  0.1883 -0.4550
   77loPI   GL2 1222   7.931  -0.247  10.073  0.2372 -0.0220 -0.1898
   77loPI   C1A 1223   7.645   0.237   9.648 -0.0944  0.0423  0.0230
   77loPI   C2A 1224   7.464   0.114   9.222  0.0381 -0.2824  0.0729
   77loPI   C3A 1225   7.462   0.332   8.819 -0.1787  0.1702  0.0937
   77loPI   C4A 1226   7.477   0.254   8.461 -0.1356 -0.1614 -0.0082
   77loPI   C5A 1227   7.552   0.224   8.097 -0.1324  0.1392  0.2028
   77loPI   C6A 1228   7.785   0.368   7.750  0.0307 -0.1109  0.1161
   77loPI   C1B 1229   7.787  -0.440   9.674  0.0989  0.2964 -0.2706
   77loPI   C2B 1230   7.810  -0.356   9.229 -0.0304 -0.0028 -0.0412
   77loPI   C3B 1231   7.662  -0.224   8.818  0.0278 -0.3696  0.3727
   77loPI   C4B 1232   7.676  -0.211   8.466 -0.1535  0.2246  0.2954
   78loPI    C1 1233  19.246  18.106  10.037 -0.1573  0.1115 -0.0097
   78loPI    C2 1234  19.107  17.752  10.160  0.1563 -0.0734 -0.1741
   78loPI    C3 1235  19.179  18.043  10.426  0.2346 -0.2544  0.0050
   78loPI   PO4 1236  19.470  17.996   9.856  0.2057 -0.2784 -0.1391
   78loPI   GL1 1237  19.592  18.068   9.472  0.1261  0.1396  0.1075
   78loPI   GL2 1238  19.895  17.955   9.340  0.4860 -0.1336  0.2348
   78loPI   C1A 1239  19.550  18.297   9.120  0.0269 -0.3671  0.1976
   78loPI   C2A 1240  19.562  18.253   8.684  0.1194 -0.0528 -0.0910
   78loPI   C3A 1241  19.329  18.197   8.265  0.0566 -0.0320  0.0733
   78loPI   C4A 1242  19.207  18.029   7.878 -0.1632  0.1505  0.2144
   78loPI   C5A 1243  19.161  18.317   7.559  0.2204 -0.0355  0.0074
   78loPI   C6A 1244  19.285  18.312   7.130  0.1922 -0.0329 -0.0641
   78loPI   C1B 1245  19.800  17.799   8.898 -0.1444  0.0278  0.2288
   78loPI   C2B 1246  19.980  18.005   8.474  0.0280  0.2213 -0.1085
   78loPI   C3B 1247  20.162  18.260   8.012 -0.1675  0.0538 -0.0042
   78loPI   C4B 1248  20.287  18.562   7.774  0.1475 -0.2875  0.0742
   79loPI    C1 1249  10.020  12.131  10.050 -0.1143 -0.0129 -0.0282
   79loPI    C2 1250   9.640  12.008  10.079 -0.0250 -0.2819  0.0261
   79loPI    C3 1251   9.829  12.150  10.401 -0.0352 -0.2783  0.0306
   79loPI   PO4 1252  10.069  12.296   9.821  0.0561 -0.1871 -0.1508
   79loPI   GL1 1253  10.116  12.038   9.443 -0.2644  0.1156  0.0998
   79loPI   GL2 1254  10.266  11.811   9.331 -0.0180 -0.0848 -0.0986
   79loPI   C1A 1255   9.966  12.142   9.064 -0.0052  0.2916 -0.0943
   79loPI   C2A 1256   9.981  12.333   8.618  0.3325  0.1158  0.1501
   79loPI   C3A 1257   9.985  12.370   8.225 -0.2648  0.1055 -0.1095
   79loPI   C4A 1258   9.941  12.373   7.754  0.2906  0.3950 -0.0386
   79loPI   C5A 1259  10.257  12.605   7.495  0.1166 -0.4903 -0.0483
   79loPI   C6A 1260  10.249  12.895   7.120 -0.0570  0.2902 -0.0122
   79loPI   C1B 1261  10.133  11.700   8.948  0.1717  0.0285 -0.1649
   79loPI   C2B 1262  10.067  11.842   8.619  0.0581  0.0203 -0.2167
   79loPI   C3B 1263  10.026  11.899   8.149  0.0435 -0.0975 -0.0547
   79loPI   C4B 1264  10.213  11.900   7.682 -0.3674 -0.1115 -0.1677
   80loPI    C1 1265   7.399  12.957   9.761 -0.2776 -0.1108  0.3023
   80loPI    C2 1266   7.320  13.323   9.901 -0.0151  0.1367 -0.1729
   80loPI    C3 1267   7.020  13.074   9.813 -0.1932  0.1919  0.2548
   80loPI   PO4 1268   7.566  12.959   9.504 -0.0725  0.0272  0.2216
   80loPI   GL1 1269   7.467  12.979   9.113  0.0335  0.3806 -0.0703
   80loPI   GL2 1270   7.630  13.283   9.106  0.4019  0.1037  0.1878
   80loPI   C1A 1271   7.545  12.721   8.764 -0.4388  0.2104 -0.3240
   80loPI   C2A 1272   7.704  12.748   8.362 -0.2268  0.3467  0.0008
   80loPI   C3A 1273   7.605  12.789   7.965 -0.0595  0.1678 -0.2137
   80loPI   C4A 1274   7.656  12.868   7.483  0.2429  0.2353 -0.2335
   80loPI   C5A 1275   7.555  12.811   7.059 -0.1903  0.1249  0.2783
   80loPI   C6A 1276   7.585  12.491   6.680  0.0251 -0.0101 -0.0121
   80loPI   C1B 1277   7.819  13.155   8.699 -0.2094 -0.0625  0.2289
   80loPI   C2B 1278   7.918  13.186   8.261 -0.1912  0.0554  0.2216
   80loPI   C3B 1279   8.035  13.312   7.940 -0.4156  0.2401  0.0864
   80loPI   C4B 1280   8.051  13.464   7.481  0.1028 -0.3261  0.0469
   81loPI    C1 1281   8.783   4.338  10.010  0.0526  0.0393  0.0751
   81loPI    C2 1282   8.813   4.269  10.403  0.2027 -0.2116  0.0221
   81loPI    C3 1283   8.489   4.145  10.203 -0.0396  0.2294  0.1276
   81loPI   PO4 1284   9.070   4.186   9.919  0.3771 -0.0713 -0.1639
   81loPI   GL1 1285   9.207   4.219   9.559  0.1930  0.0491 -0.1496
   81loPI   GL2 1286   9.532   4.250   9.741 -0.1075  0.1904  0.0922
   81loPI   C1A 1287   9.378   4.151   9.180  0.0321  0.4073 -0.0524
   81loPI   C2A 1288   9.507   4.039   8.783  0.1674  0.1492 -0.0199
   81loPI   C3A 1289   9.434   3.699   8.395  0.1873 -0.1875 -0.3492
   81loPI   C4A 1290   9.390   3.788   7.964 -0.0975  0.0334  0.2561
   81loPI   C5A 1291   9.552   3.858   7.500 -0.0943  0.2041  0.0263
   81loPI   C6A 1292   9.408   4.248   7.345  0.1305  0.0367 -0.1950
   81loPI   C1B 1293   9.543   3.789   9.586 -0.2409  0.0996  0.0617
   81loPI   C2B 1294   9.548   3.618   9.217  0.1904  0.3010  0.1647
   81loPI   C3B 1295   9.390   3.578   8.869 -0.0184  0.0335  0.2372
   81loPI   C4B 1296   9.156   3.373   8.666 -0.0408  0.1944  0.1426
   82loPI    C1 1297   2.354   0.879  10.610 -0.0542 -0.1525 -0.0075
   82loPI    C2 1298   2.492   0.557  10.803 -0.0577 -0.2255 -0.1268
   82loPI    C3 1299   2.184   0.763  10.953  0.3391  0.0906  0.2793
   82loPI   PO4 1300   2.492   0.925  10.504 -0.2160 -0.0918 -0.2772
   82loPI   GL1 1301   2.580   1.001  10.058  0.4662 -0.0702  0.0266
   82loPI   GL2 1302   2.750   0.735   9.820 -0.1520  0.0994 -0.4362
   82loPI   C1A 1303   2.317   0.941   9.733 -0.3227  0.0367 -0.3346
   82loPI   C2A 1304   2.310   0.939   9.298  0.0815  0.1679 -0.1409
   82loPI   C3A 1305   2.307   0.975   8.831  0.1407 -0.0026 -0.1718
   82loPI   C4A 1306   2.275   0.972   8.472  0.0001 -0.1176  0.1419
   82loPI   C5A 1307   2.275   1.085   8.081 -0.1754 -0.0339  0.0755
   82loPI   C6A 1308   2.510   1.371   7.638 -0.0644 -0.2051 -0.1678
   82loPI   C1B 1309   2.607   0.562   9.407  0.1258  0.0699 -0.0509
   82loPI   C2B 1310   2.590   0.567   8.949  0.1072  0.1865 -0.1810
   82loPI   C3B 1311   2.599   0.538   8.461  0.1154  0.1763 -0.2190
   82loPI   C4B 1312   2.602   0.565   8.019  0.2134 -0.3682  0.0903
   83loPI    C1 1313   2.762   9.014   9.875  0.2653 -0.1415 -0.0640
   83loPI    C2 1314   2.957   9.360   9.920 -0.0877  0.0573 -0.0254
   83loPI    C3 1315   2.954   9.092  10.217 -0.0520  0.1449  0.0544
   83loPI   PO4 1316   2.776   8.950   9.631 -0.1736  0.0082  0.2218
   83loPI   GL1 1317   2.807   8.932   9.148  0.2155 -0.1178 -0.2035
   83loPI   GL2 1318   3.003   8.705   8.937  0.2226 -0.0983  0.2220
   83loPI   C1A 1319   2.566   9.127   8.772  0.3369  0.1353  0.0703
   83loPI   C2A 1320   2.363   9.143   8.443  0.0992 -0.2600  0.3355
   83loPI   C3A 1321   2.381   9.300   7.987 -0.0810  0.2884 -0.1472
   83loPI   C4A 1322   2.290   9.176   7.616 -0.1060  0.0111  0.0344
   83loPI   C5A 1323   2.049   8.802   7.527 -0.3114  0.0253 -0.3169
   83loPI   C6A 1324   1.502   8.723   7.446 -0.2076 -0.1204  0.1459
   83loPI   C1B 1325   2.833   8.774   8.567 -0.0643 -0.1477  0.1951
   83loPI   C2B 1326   2.653   8.750   8.168  0.3383 -0.1110 -0.0600
   83loPI   C3B 1327   2.766   9.064   7.825 -0.1266 -0.2535  0.2327
   83loPI   C4B 1328   3.036   9.030   7.433 -0.2858 -0.1909  0.1522
   84loPI    C1 1329   7.748   6.572   9.890  0.1426  0.1203  0.0727
   84loPI    C2 1330   8.112   6.545  10.053  0.1178  0.1022  0.1255
   84loPI    C3 1331   7.802   6.364  10.228  0.1402 -0.1519 -0.0910
   84loPI   PO4 1332   7.757   6.803   9.745  0.0239 -0.3508  0.0115
   84loPI   GL1 1333   7.878   6.641   9.310 -0.2509 -0.3609  0.0384
   84loPI   GL2 1334   7.596   6.777   9.283  0.2606 -0.3309 -0.0377
   84loPI   C1A 1335   7.996   6.585   8.893 -0.0634 -0.1351 -0.0200
   84loPI   C2A 1336   8.101   6.581   8.512 -0.0335 -0.0398  0.3103
   84loPI   C3A 1337   8.190   6.567   8.049 -0.0370  0.1114  0.1993
   84loPI   C4A 1338   8.159   6.712   7.667 -0.1431  0.0864  0.0998
   84loPI   C5A 1339   8.193   6.965   7.325 -0.0954 -0.0664  0.1074
   84loPI   C6A 1340   8.571   6.866   7.020 -0.2205 -0.2486 -0.0429
   84loPI   C1B 1341   7.379   6.652   8.872 -0.0234  0.2181 -0.2977
   84loPI   C2B 1342   7.331   6.568   8.371 -0.1413  0.1700  0.1017
   84loPI   C3B 1343   7.126   6.472   7.952 -0.3394 -0.1091 -0.1772
   84loPI   C4B 1344   6.836   6.401   7.609  0.2559 -0.1210  0.1066
   85loPI    C1 1345  15.171  18.289  10.579  0.1214  0.0491 -0.0047
   85loPI    C2 1346  14.847  18.505  10.670  0.0263 -0.0234 -0.1673
   85loPI    C3 1347  15.209  18.674  10.680 -0.0025  0.0254  0.1368
   85loPI   PO4 1348  15.242  18.224  10.269 -0.2024  0.0389 -0.3962
   85loPI   GL1 1349  15.200  18.343   9.849  0.0889  0.0269  0.1837
   85loPI   GL2 1350  14.851  18.271   9.927  0.1640  0.0239  0.0873
   85loPI   C1A 1351  15.275  18.353   9.422 -0.0837  0.4089 -0.2969
   85loPI   C2A 1352  15.478  18.489   9.041  0.1239 -0.0112  0.1689
   85loPI   C3A 1353  15.534  18.799   8.831 -0.0210  0.1610  0.1409
   85loPI   C4A 1354  15.492  19.061   8.524 -0.2797  0.2756  0.0467
   85loPI   C5A 1355  15.513  19.138   8.158 -0.0964  0.2012 -0.1552
   85loPI   C6A 1356  15.754  19.050   7.816  0.1796 -0.2248 -0.2845
   85loPI   C1B 1357  14.775  18.138   9.468  0.1938 -0.2512  0.2672
   85loPI   C2B 1358  14.948  18.224   9.051 -0.2233 -0.0385  0.2553
   85loPI   C3B 1359  14.671  18.387   8.706  0.0818 -0.0241  0.3440
   85loPI   C4B 1360  14.478  18.281   8.307 -0.1665  0.3258  0.1238
   86loPI    C1 1361   5.215  18.513  10.400 -0.0971 -0.0521  0.0773
   86loPI    C2 1362   5.167  18.364  10.768  0.0582 -0.0299  0.1073
   86loPI    C3 1363   5.401  18.684  10.711  0.0097 -0.0143 -0.0064
   86loPI   PO4 1364   4.900  18.483  10.365  0.0833  0.2451 -0.0377
   86loPI   GL1 1365   4.981  18.183   9.928  0.0450  0.0205  0.1297
   86loPI   GL2 1366   4.844  17.998   9.756 -0.2959  0.1488  0.1104
   86loPI   C1A 1367   4.792  18.477   9.582 -0.3471 -0.2588  0.1572
   86loPI   C2A 1368   4.874  18.534   9.151 -0.2251 -0.3792 -0.3839
   86loPI   C3A 1369   5.032  18.660   8.780 -0.2386 -0.0837  0.1825
   86loPI   C4A 1370   4.974  18.654   8.382  0.2945 -0.0672 -0.0586
   86loPI   C5A 1371   4.820  18.622   7.954  0.1289  0.0970  0.0301
   86loPI   C6A 1372   4.774  18.588   7.547 -0.1685 -0.0714 -0.0875
   86loPI   C1B 1373   4.589  18.037   9.392 -0.0402 -0.2127  0.3074
   86loPI   C2B 1374   4.660  18.118   9.014  0.0195  0.2176  0.3339
   86loPI   C3B 1375   4.686  18.213   8.639 -0.0491 -0.3338 -0.1426
   86loPI   C4B 1376   4.643  18.198   8.218 -0.1935 -0.2570 -0.2485
   87loPI    C1 1377  14.726   5.341  10.269 -0.0497  0.0933 -0.1238
   87loPI    C2 1378  14.772   4.945  10.238 -0.2872  0.0621 -0.0974
   87loPI    C3 1379  15.070   5.190  10.132 -0.1038 -0.1255 -0.0222
   87loPI   PO4 1380  14.493   5.367  10.061  0.0213  0.1027 -0.0970
   87loPI   GL1 1381  14.395   5.484   9.685 -0.1043  0.1920 -0.0217
   87loPI   GL2 1382  14.341   5.745   9.579  0.0647 -0.0430  0.1805
   87loPI   C1A 1383  14.299   5.222   9.417 -0.1727 -0.2026 -0.1386
   87loPI   C2A 1384  14.016   5.075   9.014 -0.1700  0.2302  0.4473
   87loPI   C3A 1385  14.111   4.766   8.662  0.1601 -0.0590 -0.1795
   87loPI   C4A 1386  14.307   4.700   8.290  0.0435  0.2053 -0.1612
   87loPI   C5A 1387  14.445   4.469   7.891  0.0022  0.0490  0.3642
   87loPI   C6A 1388  14.576   4.253   7.518 -0.0994  0.1366  0.3413
   87loPI   C1B 1389  14.165   5.579   9.099 -0.1473 -0.1899 -0.0230
   87loPI   C2B 1390  14.126   5.513   8.594  0.1078 -0.0208 -0.1776
   87loPI   C3B 1391  13.880   5.557   8.259 -0.0370  0.3025  0.0225
   87loPI   C4B 1392  13.635   5.649   7.908 -0.3419 -0.1504 -0.1796
   88loPI    C1 1393  18.432   8.989   9.432 -0.1334  0.1428  0.0349
   88loPI    C2 1394  18.445   9.254   9.731 -0.3185  0.1237  0.0618
   88loPI    C3 1395  18.563   8.877   9.793 -0.1741  0.1673  0.0574
   88loPI   PO4 1396  18.609   9.087   9.202  0.1617  0.2163 -0.1803
   88loPI   GL1 1397  18.553   8.949   8.829 -0.0087 -0.0257 -0.2580
   88loPI   GL2 1398  18.803   9.216   8.696 -0.2690  0.1742 -0.2051
   88loPI   C1A 1399  18.599   8.900   8.322  0.0738 -0.0937  0.0262
   88loPI   C2A 1400  18.735   9.287   8.168 -0.2825 -0.2880  0.0695
   88loPI   C3A 1401  18.970   9.730   8.119  0.2048  0.1654 -0.0840
   88loPI   C4A 1402  18.913  10.151   8.158  0.2767  0.0147 -0.4077
   88loPI   C5A 1403  18.717  10.406   7.798  0.1333  0.1066  0.1427
   88loPI   C6A 1404  18.696  10.568   7.441  0.3050 -0.2114  0.1438
   88loPI   C1B 1405  19.145   9.291   8.560 -0.0385  0.1384 -0.1280
   88loPI   C2B 1406  19.329   9.322   8.183  0.1703 -0.0342  0.1434
   88loPI   C3B 1407  19.567   9.269   7.814  0.0456  0.1573  0.5431
   88loPI   C4B 1408  19.731   9.056   7.401 -0.3204  0.0732  0.1773
   89loPI    C1 1409   0.568   6.022   9.875 -0.1294  0.0569 -0.1231
   89loPI    C2 1410   0.286   6.193  10.101 -0.1484 -0.1153 -0.0149
   89loPI    C3 1411   0.602   6.019  10.274  0.0938  0.1926 -0.1393
   89loPI   PO4 1412   0.314   5.835   9.719 -0.1551 -0.0031  0.3993
   89loPI   GL1 1413   0.144   5.831   9.308  0.0284 -0.1811 -0.0125
   89loPI   GL2 1414   0.282   6.089   9.167  0.0298  0.2817  0.1151
   89loPI   C1A 1415   0.130   5.576   8.955  0.0057  0.1951  0.2094
   89loPI   C2A 1416   0.181   5.282   8.743 -0.3434  0.0355 -0.0523
   89loPI   C3A 1417   0.368   5.100   8.395  0.4105 -0.1227 -0.1110
   89loPI   C4A 1418   0.350   5.084   8.000 -0.1955 -0.2443  0.3163
   89loPI   C5A 1419   0.069   4.805   7.826  0.1691  0.1058  0.1856
   89loPI   C6A 1420  -0.184   4.446   7.602  0.3288 -0.2195 -0.0409
   89loPI   C1B 1421   0.392   5.945   8.773 -0.3553 -0.1091  0.0260
   89loPI   C2B 1422   0.400   6.036   8.297 -0.1064 -0.0766 -0.0236
   89loPI   C3B 1423   0.019   5.900   7.956  0.0806 -0.2082  0.0644
   89loPI   C4B 1424  -0.239   6.196   8.161  0.3636 -0.4461  0.0237
   90loPI    C1 1425  12.365  11.959  10.037 -0.1785  0.1042  0.2349
   90loPI    C2 1426  12.509  11.685  10.290  0.1530 -0.0339 -0.0928
   90loPI    C3 1427  12.481  12.068  10.404  0.0998 -0.1276  0.2193
   90loPI   PO4 1428  12.421  11.827   9.826 -0.2644  0.0271  0.2402
   90loPI   GL1 1429  12.742  11.852   9.429 -0.0419  0.0295 -0.1308
   90loPI   GL2 1430  12.408  11.790   9.355 -0.2045  0.2501 -0.2560
   90loPI   C1A 1431  12.838  11.690   9.010  0.0948  0.1041 -0.0479
   90loPI   C2A 1432  12.718  11.319   8.725 -0.1825 -0.1612 -0.1293
   90loPI   C3A 1433  12.373  11.232   8.516  0.0179 -0.3703 -0.1571
   90loPI   C4A 1434  11.977  11.184   8.335 -0.2652  0.2440  0.0706
   90loPI   C5A 1435  11.618  10.856   8.241 -0.1464 -0.3077  0.0888
   90loPI   C6A 1436  11.611  10.716   7.876  0.1082 -0.0058  0.0530
   90loPI   C1B 1437  12.369  11.750   8.900 -0.2225 -0.0496 -0.1773
   90loPI   C2B 1438  12.426  11.728   8.424 -0.1373 -0.0593 -0.1696
   90loPI   C3B 1439  12.268  11.452   8.026 -0.1552 -0.1016  0.1953
   90loPI   C4B 1440  11.953  11.083   7.878  0.1499  0.3481 -0.0908
   91loPI    C1 1441  16.474  14.618  10.274  0.0338 -0.1590  0.3119
   91loPI    C2 1442  16.314  14.736  10.621  0.0382 -0.0668  0.2827
   91loPI    C3 1443  16.666  14.885  10.502  0.0219 -0.0754  0.2241
   91loPI   PO4 1444  16.184  14.580  10.051 -0.0226 -0.2276  0.2576
   91loPI   GL1 1445  16.016  14.455   9.655  0.1171 -0.1777 -0.1019
   91loPI   GL2 1446  16.187  14.186   9.515  0.1571  0.3999  0.1571
   91loPI   C1A 1447  15.816  14.558   9.317 -0.0954 -0.0079  0.2825
   91loPI   C2A 1448  15.669  14.790   8.983  0.0289 -0.0841 -0.0233
   91loPI   C3A 1449  15.501  14.769   8.560  0.3497 -0.2092 -0.3752
   91loPI   C4A 1450  15.521  14.770   8.028 -0.0927 -0.0460  0.0414
   91loPI   C5A 1451  15.398  14.803   7.652  0.0505 -0.1091 -0.0115
   91loPI   C6A 1452  15.299  14.809   7.176  0.0220 -0.1176  0.4395
   91loPI   C1B 1453  16.418  14.201   9.057 -0.2291  0.1958 -0.2512
   91loPI   C2B 1454  16.382  14.293   8.619 -0.1749 -0.2821 -0.0348
   91loPI   C3B 1455  16.364  14.327   8.159  0.2110 -0.0263 -0.1013
   91loPI   C4B 1456  16.568  14.308   7.797  0.1213  0.1158  0.4106
   92loPI    C1 1457   6.560  17.587  10.329 -0.1573  0.1952  0.1536
   92loPI    C2 1458   6.771  17.280  10.476 -0.0605  0.1528 -0.0698
   92loPI    C3 1459   6.565  17.518  10.723  0.0639  0.0567  0.1285
   92loPI   PO4 1460   6.359  17.472  10.093  0.3018 -0.0579  0.2662
   92loPI   GL1 1461   6.128  17.495   9.746  0.1202  0.0097 -0.0179
   92loPI   GL2 1462   6.088  17.881   9.698  0.3238  0.0574 -0.3265
   92loPI   C1A 1463   5.920  17.552   9.391 -0.1719  0.1377  0.0368
   92loPI   C2A 1464   5.892  17.711   8.960 -0.2892 -0.2567 -0.0666
   92loPI   C3A 1465   5.935  17.783   8.560  0.1445  0.2015 -0.1453
   92loPI   C4A 1466   6.000  17.805   8.106 -0.0938  0.3900  0.2257
   92loPI   C5A 1467   6.223  17.705   7.690 -0.3723 -0.2605 -0.2436
   92loPI   C6A 1468   6.629  17.852   7.508 -0.0919 -0.2676 -0.0070
   92loPI   C1B 1469   6.158  18.116   9.245 -0.0732  0.0379 -0.1429
   92loPI   C2B 1470   6.212  18.324   8.825  0.1256 -0.1988  0.4498
   92loPI   C3B 1471   6.201  18.222   8.423 -0.4202 -0.0139 -0.1279
   92loPI   C4B 1472   6.305  18.206   7.917  0.2641 -0.3492  0.0555
   93loPI    C1 1473  10.628   5.100  10.517  0.2537  0.0744 -0.0481
   93loPI    C2 1474  11.002   4.979  10.592  0.2288  0.0359  0.0149
   93loPI    C3 1475  10.692   4.745  10.690  0.1963 -0.0282 -0.2350
   93loPI   PO4 1476  10.538   5.128  10.298  0.0445  0.2304 -0.2443
   93loPI   GL1 1477  10.526   5.144   9.804 -0.3055 -0.0707  0.0615
   93loPI   GL2 1478  10.837   4.989   9.583  0.1138  0.1525 -0.0813
   93loPI   C1A 1479  10.367   5.494   9.625  0.0230  0.0094  0.2267
   93loPI   C2A 1480  10.159   5.659   9.358 -0.2287  0.0839  0.1938
   93loPI   C3A 1481  10.070   5.767   8.945 -0.0526 -0.2032 -0.1510
   93loPI   C4A 1482  10.129   5.950   8.576  0.1776  0.0546  0.4765
   93loPI   C5A 1483  10.099   5.841   8.080 -0.2918 -0.3252 -0.0573
   93loPI   C6A 1484   9.868   5.492   7.914 -0.2517 -0.0348 -0.0170
   93loPI   C1B 1485  10.999   4.951   9.067  0.0238  0.0044  0.1008
   93loPI   C2B 1486  11.008   4.813   8.609  0.0559 -0.1748 -0.1916
   93loPI   C3B 1487  10.955   4.625   8.180 -0.4911  0.1092  0.1416
   93loPI   C4B 1488  10.766   4.624   7.803 -0.3445  0.0900 -0.0087
   94loPI    C1 1489   5.869  18.851  10.505 -0.1399  0.0325 -0.0868
   94loPI    C2 1490   5.637  19.176  10.531  0.0269  0.1525 -0.0820
   94loPI    C3 1491   5.783  19.007  10.863  0.0331  0.1402 -0.0910
   94loPI   PO4 1492   5.667  18.730  10.309 -0.1246 -0.0372  0.0567
   94loPI   GL1 1493   5.436  18.795   9.969 -0.1364  0.0874  0.0671
   94loPI   GL2 1494   5.304  18.507   9.828  0.0288 -0.1330 -0.3647
   94loPI   C1A 1495   5.713  18.938   9.559 -0.0002 -0.1008 -0.0571
   94loPI   C2A 1496   5.677  19.168   9.182  0.1863 -0.1555 -0.0876
   94loPI   C3A 1497   5.706  19.175   8.746 -0.0720 -0.1559 -0.1177
   94loPI   C4A 1498   5.675  19.135   8.332 -0.0703  0.0017  0.0203
   94loPI   C5A 1499   5.703  19.209   7.874  0.0894  0.3519  0.1214
   94loPI   C6A 1500   5.406  19.593   7.711  0.0545  0.0536 -0.0668
   94loPI   C1B 1501   5.465  18.532   9.395  0.2560  0.1908 -0.0619
   94loPI   C2B 1502   5.503  18.727   8.978 -0.1984 -0.2097 -0.2328
   94loPI   C3B 1503   5.464  18.636   8.494  0.0915 -0.2127  0.1600
   94loPI   C4B 1504   5.511  18.754   8.117 -0.1637  0.1553 -0.1419
   95loPI    C1 1505  11.060   1.783   9.987  0.0460 -0.2825 -0.1405
   95loPI    C2 1506  11.132   1.413   9.852 -0.0442 -0.3065 -0.1233
   95loPI    C3 1507  11.125   1.485  10.246 -0.2317 -0.3292 -0.1214
   95loPI   PO4 1508  10.862   1.944   9.822  0.1253  0.0024  0.3589
   95loPI   GL1 1509  10.940   2.289   9.564  0.0079  0.0176 -0.2007
   95loPI   GL2 1510  10.894   2.539   9.352 -0.2026  0.0935 -0.0495
   95loPI   C1A 1511  10.893   2.088   9.099  0.0216 -0.0200 -0.2722
   95loPI   C2A 1512  10.939   2.060   8.622  0.4045  0.2861 -0.3258
   95loPI   C3A 1513  10.709   2.251   8.230  0.0240 -0.0248  0.4313
   95loPI   C4A 1514  10.421   2.296   7.904  0.0036  0.2987 -0.0101
   95loPI   C5A 1515  10.349   2.164   7.576 -0.0844 -0.0799 -0.0030
   95loPI   C6A 1516  10.270   2.413   7.167 -0.1561  0.0128  0.0851
   95loPI   C1B 1517  10.622   2.532   9.064  0.0345  0.0470 -0.3744
   95loPI   C2B 1518  10.278   2.781   8.826  0.4498 -0.0616 -0.0160
   95loPI   C3B 1519  10.351   3.162   8.642  0.3345  0.1926 -0.1795
   95loPI   C4B 1520  10.193   3.565   8.452 -0.2016  0.0053  0.0323
   96loPI    C1 1521   0.783  13.696   9.572  0.0413  0.0031 -0.0364
   96loPI    C2 1522   0.745  14.015   9.810 -0.1522  0.0880 -0.1796
   96loPI    C3 1523   0.467  13.727   9.815  0.1066 -0.1632  0.0719
   96loPI   PO4 1524   0.794  13.780   9.395  0.1125 -0.0136  0.2086
   96loPI   GL1 1525   0.648  13.691   8.986 -0.2451 -0.1360  0.0159
   96loPI   GL2 1526   0.583  13.962   8.902 -0.0047 -0.0681  0.1262
   96loPI   C1A 1527   0.488  13.537   8.608 -0.0618  0.1300  0.1951
   96loPI   C2A 1528   0.388  13.422   8.223  0.0680  0.3719  0.1859
   96loPI   C3A 1529   0.262  13.524   7.846 -0.4230  0.1600  0.0610
   96loPI   C4A 1530   0.213  13.557   7.432  0.0960 -0.0810  0.1234
   96loPI   C5A 1531  -0.156  13.585   7.144  0.1087 -0.2935 -0.1617
   96loPI   C6A 1532  -0.502  13.806   6.873 -0.2307 -0.0045  0.0969
   96loPI   C1B 1533   0.590  13.971   8.436 -0.1295  0.0669  0.1504
   96loPI   C2B 1534   0.668  13.810   7.996 -0.0083  0.2628  0.1985
   96loPI   C3B 1535   0.717  13.782   7.524 -0.4132  0.2326  0.0917
   96loPI   C4B 1536   0.833  14.016   7.286 -0.0319  0.4595 -0.1830
   97loPI    C1 1537  15.624  11.326   9.944 -0.1472  0.0999 -0.3010
   97loPI    C2 1538  15.410  11.019   9.803  0.0115 -0.1016 -0.1110
   97loPI    C3 1539  15.809  11.015   9.774  0.0176  0.0658 -0.0649
   97loPI   PO4 1540  15.539  11.538   9.843  0.3127  0.1013 -0.2700
   97loPI   GL1 1541  15.730  11.782   9.466 -0.2626  0.1450  0.0091
   97loPI   GL2 1542  15.650  12.047   9.390  0.3161 -0.3466  0.2239
   97loPI   C1A 1543  15.825  11.690   9.067 -0.1824 -0.0033  0.1596
   97loPI   C2A 1544  15.919  11.649   8.564  0.0946  0.1163  0.0623
   97loPI   C3A 1545  15.865  11.751   8.195 -0.1524 -0.0987  0.2107
   97loPI   C4A 1546  15.787  11.705   7.815 -0.3939 -0.1538 -0.0313
   97loPI   C5A 1547  15.843  11.836   7.470  0.0490  0.0445 -0.0143
   97loPI   C6A 1548  15.592  12.188   7.328 -0.2219  0.0116  0.0545
   97loPI   C1B 1549  15.154  11.983   9.262 -0.1842 -0.0766 -0.1080
   97loPI   C2B 1550  14.968  12.030   8.918  0.1353  0.1767 -0.1908
   97loPI   C3B 1551  14.821  12.161   8.537 -0.2824 -0.1014 -0.0610
   97loPI   C4B 1552  14.636  12.386   8.256  0.0608  0.1429  0.1571
   98loPI    C1 1553   4.922   8.997  10.211 -0.2825  0.1225  0.3365
   98loPI    C2 1554   5.057   8.672  10.402 -0.0228 -0.0041 -0.0490
   98loPI    C3 1555   5.197   9.034  10.499 -0.0979 -0.0362  0.1842
   98loPI   PO4 1556   4.954   8.985   9.930 -0.2560  0.0312  0.0164
   98loPI   GL1 1557   4.832   8.716   9.590  0.2776  0.2113  0.2623
   98loPI   GL2 1558   4.994   8.991   9.413 -0.0925 -0.0279  0.0509
   98loPI   C1A 1559   4.639   8.755   9.238 -0.1487 -0.1819 -0.0960
   98loPI   C2A 1560   4.334   8.856   8.886 -0.0804  0.2459 -0.2162
   98loPI   C3A 1561   4.303   8.792   8.445  0.3901  0.2291 -0.0780
   98loPI   C4A 1562   4.116   8.996   8.118 -0.0750  0.1406  0.3123
   98loPI   C5A 1563   4.181   8.920   7.653  0.0660  0.0404 -0.1649
   98loPI   C6A 1564   4.523   9.188   7.429  0.2928  0.1750  0.2410
   98loPI   C1B 1565   5.165   9.300   9.079  0.0071 -0.1486  0.1516
   98loPI   C2B 1566   5.512   9.262   8.845 -0.0299 -0.1199 -0.0348
   98loPI   C3B 1567   5.743   8.919   8.836  0.0341  0.1994 -0.0304
   98loPI   C4B 1568   6.059   8.511   8.906  0.3510 -0.0367  0.1284
   99loPI    C1 1569  12.865   1.975  10.068  0.1188 -0.0029  0.0467
   99loPI    C2 1570  12.878   2.222  10.382  0.2472  0.1034 -0.0415
   99loPI    C3 1571  12.990   1.841  10.424  0.0844  0.0688  0.0860
   99loPI   PO4 1572  12.672   2.109   9.944 -0.0566  0.0447 -0.0258
   99loPI   GL1 1573  12.658   2.479   9.675  0.0793 -0.0471  0.0851
   99loPI   GL2 1574  12.748   2.806   9.605  0.1570 -0.0557  0.0247
   99loPI   C1A 1575  12.820   2.199   9.300  0.2005  0.1342 -0.0390
   99loPI   C2A 1576  13.134   1.969   8.926  0.0173  0.0048 -0.1202
   99loPI   C3A 1577  13.174   1.877   8.490  0.1554 -0.2501 -0.3952
   99loPI   C4A 1578  13.299   2.087   8.067  0.1329 -0.2800  0.3296
   99loPI   C5A 1579  13.437   2.253   7.774  0.1238  0.0013 -0.2480
   99loPI   C6A 1580  13.803   2.446   7.623  0.1820  0.0659 -0.1088
   99loPI   C1B 1581  12.640   2.705   9.207  0.0745 -0.1105  0.3950
   99loPI   C2B 1582  12.821   2.501   8.878 -0.0159  0.1770 -0.1886
   99loPI   C3B 1583  12.649   2.035   8.759 -0.0237 -0.0484 -0.3539
   99loPI   C4B 1584  12.816   1.528   8.502 -0.2268 -0.2155  0.0580
  100loPI    C1 1585   3.443  11.303   9.389 -0.0749 -0.0620  0.0315
  100loPI    C2 1586   3.783  11.135   9.260 -0.1527 -0.1457 -0.0660
  100loPI    C3 1587   3.555  10.946   9.530 -0.0892 -0.0598  0.0484
  100loPI   PO4 1588   3.279  11.361   9.208 -0.3547 -0.1266 -0.2502
  100loPI   GL1 1589   3.331  11.325   8.850  0.0249 -0.1376 -0.3184
  100loPI   GL2 1590   3.491  11.084   8.764  0.0220  0.2704 -0.1123
  100loPI   C1A 1591   3.050  11.475   8.484  0.1494 -0.0223 -0.0975
  100loPI   C2A 1592   3.197  11.548   8.105 -0.1277 -0.1742 -0.2595
  100loPI   C3A 1593   3.482  11.638   7.789  0.2680  0.1663  0.1681
  100loPI   C4A 1594   3.719  11.779   7.513  0.1314  0.2711 -0.1499
  100loPI   C5A 1595   3.977  12.196   7.484 -0.1017 -0.4009 -0.0483
  100loPI   C6A 1596   4.212  12.525   7.255 -0.1139 -0.1111  0.1512
  100loPI   C1B 1597   3.566  11.328   8.458 -0.2232  0.0315  0.2396
  100loPI   C2B 1598   3.843  11.395   8.144 -0.2099 -0.2498 -0.1600
  100loPI   C3B 1599   4.049  11.472   7.639 -0.1966  0.2286 -0.1930
  100loPI   C4B 1600   4.091  11.533   7.192  0.0975  0.0902  0.0091
  101loPI    C1 1601  14.986   9.794   9.473  0.0365 -0.1465 -0.1472
  101loPI    C2 1602  15.175   9.528   9.705 -0.1422 -0.1014  0.0536
  101loPI    C3 1603  14.851   9.718   9.842 -0.0890  0.1298 -0.1340
  101loPI   PO4 1604  15.026   9.714   9.302  0.0232  0.0902 -0.3232
  101loPI   GL1 1605  14.841   9.467   8.977 -0.1726 -0.4093 -0.3082
  101loPI   GL2 1606  14.608   9.561   8.901  0.0605 -0.3647 -0.0124
  101loPI   C1A 1607  14.849   9.594   8.467  0.0177  0.1587 -0.3111
  101loPI   C2A 1608  14.642   9.689   8.049 -0.2067  0.1719 -0.1483
  101loPI   C3A 1609  14.670  10.018   7.780 -0.2033  0.1659  0.1041
  101loPI   C4A 1610  14.459  10.105   7.448 -0.0359 -0.1806 -0.2409
  101loPI   C5A 1611  14.244  10.468   7.200  0.2516 -0.0779 -0.0418
  101loPI   C6A 1612  13.878  10.941   7.244  0.0211 -0.0492 -0.4284
  101loPI   C1B 1613  14.375   9.616   8.575 -0.1664 -0.0936  0.0833
  101loPI   C2B 1614  14.149   9.404   8.274  0.1678  0.1014  0.2308
  101loPI   C3B 1615  14.155   9.161   7.925  0.3206  0.1759  0.3508
  101loPI   C4B 1616  14.058   9.008   7.429  0.2333  0.1613  0.0583
  102loPI    C1 1617  12.901  18.694  10.235 -0.3029  0.5076  0.0765
  102loPI    C2 1618  12.627  18.593   9.962 -0.1103  0.3212 -0.0509
  102loPI    C3 1619  12.549  18.543  10.351 -0.0950 -0.1478 -0.1025
  102loPI   PO4 1620  13.040  18.959  10.136  0.3762  0.3100  0.0977
  102loPI   GL1 1621  13.142  19.043   9.751 -0.2233 -0.1644  0.0766
  102loPI   GL2 1622  12.878  18.927   9.613 -0.0129  0.0018  0.0443
  102loPI   C1A 1623  13.364  19.000   9.328  0.0263 -0.1763  0.0665
  102loPI   C2A 1624  13.538  19.187   9.102 -0.2345  0.2997 -0.0605
  102loPI   C3A 1625  13.544  19.401   8.783  0.1376 -0.3010 -0.2140
  102loPI   C4A 1626  13.575  19.649   8.415  0.0905  0.0172  0.0884
  102loPI   C5A 1627  13.479  19.918   8.215 -0.0472 -0.1201 -0.0421
  102loPI   C6A 1628  13.197  20.253   8.058 -0.0981  0.2350  0.1109
  102loPI   C1B 1629  12.754  18.895   9.300 -0.1229 -0.4383  0.0610
  102loPI   C2B 1630  12.597  19.068   8.937 -0.2882 -0.1623 -0.2138
  102loPI   C3B 1631  12.391  18.989   8.676  0.2047 -0.0086  0.3033
  102loPI   C4B 1632  12.384  19.015   8.223 -0.0887 -0.1834 -0.1152
  103loPI    C1 1633   6.767  16.826  10.742 -0.0413  0.1244 -0.2535
  103loPI    C2 1634   6.370  16.783  10.742 -0.0262 -0.0333 -0.0209
  103loPI    C3 1635   6.540  17.069  10.964 -0.0110  0.0624 -0.1543
  103loPI   PO4 1636   6.786  16.731  10.414 -0.2751 -0.2359  0.4055
  103loPI   GL1 1637   6.739  16.919  10.086 -0.0073 -0.3399  0.0310
  103loPI   GL2 1638   6.655  16.620   9.895 -0.2724 -0.2017  0.0393
  103loPI   C1A 1639   6.806  17.145   9.721  0.3832  0.1066  0.1376
  103loPI   C2A 1640   6.823  17.277   9.308 -0.1672  0.1396 -0.1766
  103loPI   C3A 1641   6.689  17.394   8.816  0.0498 -0.0532  0.1012
  103loPI   C4A 1642   6.723  17.320   8.400 -0.0866 -0.0245  0.2968
  103loPI   C5A 1643   6.702  17.078   7.945  0.3754  0.1212  0.0315
  103loPI   C6A 1644   6.964  16.765   7.723  0.4062  0.0043 -0.2728
  103loPI   C1B 1645   6.593  16.691   9.469  0.4243 -0.3280  0.0798
  103loPI   C2B 1646   6.634  16.934   9.034 -0.0882  0.1354  0.0486
  103loPI   C3B 1647   6.532  16.875   8.701 -0.1206  0.4009 -0.0306
  103loPI   C4B 1648   6.382  16.960   8.282  0.1758 -0.0404 -0.1953
  104loPI    C1 1649   7.088   3.582  10.116  0.1166 -0.2901  0.2050
  104loPI    C2 1650   6.826   3.836  10.283  0.3716  0.0015  0.1713
  104loPI    C3 1651   6.784   3.441  10.335 -0.2433  0.0226 -0.0780
  104loPI   PO4 1652   7.151   3.679   9.847 -0.0991 -0.0002  0.1640
  104loPI   GL1 1653   7.197   3.525   9.427  0.0968 -0.1164  0.2734
  104loPI   GL2 1654   6.893   3.332   9.401 -0.0027 -0.1403 -0.1402
  104loPI   C1A 1655   7.006   3.543   8.982 -0.0665 -0.1677  0.2548
  104loPI   C2A 1656   6.921   3.535   8.539  0.1923 -0.1772 -0.0546
  104loPI   C3A 1657   6.867   3.437   8.117  0.0907 -0.1703  0.2597
  104loPI   C4A 1658   6.830   3.249   7.637  0.0275  0.2167  0.1251
  104loPI   C5A 1659   6.730   3.165   7.230 -0.2151 -0.1921 -0.1160
  104loPI   C6A 1660   6.489   2.737   7.189  0.1908 -0.0554 -0.0264
  104loPI   C1B 1661   6.710   3.209   9.126 -0.1887 -0.1550 -0.3142
  104loPI   C2B 1662   6.580   3.225   8.717  0.0821  0.0631 -0.0721
  104loPI   C3B 1663   6.505   3.121   8.314  0.0696 -0.1652  0.1604
  104loPI   C4B 1664   6.118   3.179   8.041  0.0823  0.2851  0.2745
  105loPI    C1 1665  17.462  17.102   9.619  0.1391 -0.1706 -0.1592
  105loPI    C2 1666  17.275  16.750   9.586 -0.0216 -0.1194  0.1635
  105loPI    C3 1667  17.269  16.948   9.933  0.2172  0.1197  0.0354
  105loPI   PO4 1668  17.827  17.092   9.648  0.3804 -0.0048 -0.3853
  105loPI   GL1 1669  18.053  17.491   9.316 -0.1954  0.0399 -0.2505
  105loPI   GL2 1670  17.817  17.321   9.219 -0.4968 -0.1711 -0.4178
  105loPI   C1A 1671  18.194  17.582   8.926 -0.3031 -0.1335 -0.3457
  105loPI   C2A 1672  18.060  17.521   8.484 -0.1332  0.0522 -0.1017
  105loPI   C3A 1673  17.901  17.501   8.115 -0.0655  0.0631 -0.1437
  105loPI   C4A 1674  17.884  17.601   7.747  0.0225 -0.0755 -0.1152
  105loPI   C5A 1675  18.047  17.814   7.454 -0.0246  0.1535  0.1127
  105loPI   C6A 1676  18.358  18.063   7.326  0.2191  0.1210  0.3683
  105loPI   C1B 1677  17.860  17.208   8.786  0.2726  0.0948 -0.1131
  105loPI   C2B 1678  17.584  17.257   8.456  0.0033 -0.1520  0.3305
  105loPI   C3B 1679  17.537  17.219   7.998 -0.0151  0.0784 -0.2875
  105loPI   C4B 1680  17.219  17.316   7.716 -0.1881  0.2293  0.0624
  106loPI    C1 1681   3.350   7.335  10.197  0.4202  0.2819 -0.4868
  106loPI    C2 1682   3.503   7.637  10.411  0.1312 -0.0257  0.1841
  106loPI    C3 1683   3.731   7.321  10.319  0.2295  0.0628  0.1208
  106loPI   PO4 1684   3.243   7.399   9.997  0.2622 -0.0103 -0.3212
  106loPI   GL1 1685   3.254   7.100   9.624  0.2435  0.1355 -0.0638
  106loPI   GL2 1686   2.961   7.159   9.564  0.1016  0.0154 -0.2042
  106loPI   C1A 1687   3.191   6.793   9.197  0.2419 -0.0914 -0.0206
  106loPI   C2A 1688   3.159   6.827   8.756  0.2067 -0.1045  0.0508
  106loPI   C3A 1689   3.049   6.870   8.325  0.0892 -0.3018 -0.2817
  106loPI   C4A 1690   3.195   6.762   7.938 -0.0180  0.2082 -0.0137
  106loPI   C5A 1691   3.013   6.987   7.627 -0.4017  0.0434  0.1024
  106loPI   C6A 1692   2.731   7.247   7.441 -0.0710  0.1675 -0.3213
  106loPI   C1B 1693   2.871   7.193   9.196 -0.2233  0.2342 -0.2954
  106loPI   C2B 1694   2.876   7.270   8.800 -0.1266  0.0029 -0.1975
  106loPI   C3B 1695   2.765   7.317   8.399 -0.1438  0.0509  0.1877
  106loPI   C4B 1696   3.042   7.317   8.004 -0.0097 -0.2106 -0.1714
  107loPI    C1 1697  17.748   6.602   9.879 -0.0973  0.0935  0.0725
  107loPI    C2 1698  17.936   6.378  10.152 -0.0114 -0.0428 -0.0962
  107loPI    C3 1699  17.690   6.206   9.887 -0.0492  0.0810 -0.1423
  107loPI   PO4 1700  17.869   6.789   9.794  0.0049 -0.2833 -0.0716
  107loPI   GL1 1701  18.150   6.973   9.454  0.0173 -0.0360  0.1680
  107loPI   GL2 1702  18.378   6.707   9.161 -0.0693 -0.1675 -0.1659
  107loPI   C1A 1703  17.909   6.789   9.110  0.2544  0.0108  0.1507
  107loPI   C2A 1704  17.785   6.890   8.675  0.2221 -0.1664 -0.0752
  107loPI   C3A 1705  17.727   7.057   8.232  0.1405 -0.0679 -0.0913
  107loPI   C4A 1706  17.574   7.437   8.170  0.1580  0.2595  0.1530
  107loPI   C5A 1707  17.525   7.497   7.742  0.1483  0.1476  0.0134
  107loPI   C6A 1708  17.734   7.865   7.431  0.0888 -0.0456  0.2757
  107loPI   C1B 1709  18.180   6.546   8.777 -0.2077 -0.4106 -0.3035
  107loPI   C2B 1710  18.550   6.475   8.538  0.0629 -0.2240 -0.5266
  107loPI   C3B 1711  18.725   6.546   8.095 -0.1200  0.0521  0.1299
  107loPI   C4B 1712  18.586   6.435   7.713 -0.3580  0.1331  0.1362
  108loPI    C1 1713   4.927  11.750   9.621  0.0858 -0.0402  0.3138
  108loPI    C2 1714   5.041  12.097   9.458 -0.1922 -0.0690  0.0499
  108loPI    C3 1715   5.002  12.065   9.855  0.1258  0.1121  0.0983
  108loPI   PO4 1716   5.064  11.569   9.458  0.1330  0.0722 -0.2165
  108loPI   GL1 1717   4.858  11.357   9.160  0.3201  0.0291 -0.2754
  108loPI   GL2 1718   4.714  11.758   9.157 -0.0920  0.1959 -0.1047
  108loPI   C1A 1719   5.069  11.466   8.843  0.1608 -0.3693 -0.0482
  108loPI   C2A 1720   5.098  11.390   8.368  0.3190  0.0565 -0.1489
  108loPI   C3A 1721   5.092  11.371   7.874  0.0891 -0.0867 -0.2870
  108loPI   C4A 1722   4.981  11.589   7.576  0.0341 -0.0297  0.0186
  108loPI   C5A 1723   5.022  11.706   7.173 -0.0231  0.2426  0.0580
  108loPI   C6A 1724   5.107  11.439   6.799 -0.0090  0.0679 -0.0734
  108loPI   C1B 1725   5.073  12.052   8.985 -0.0037  0.2349  0.1123
  108loPI   C2B 1726   5.202  12.410   8.691  0.1559 -0.1765 -0.0812
  108loPI   C3B 1727   5.431  12.361   8.393 -0.4164  0.1578 -0.2114
  108loPI   C4B 1728   5.702  12.520   8.387  0.2383 -0.0282  0.2205
  109loPI    C1 1729   4.758   8.183   9.690  0.3941  0.0564 -0.1858
  109loPI    C2 1730   4.925   8.004  10.007 -0.1013 -0.0717  0.0121
  109loPI    C3 1731   4.869   8.400  10.007  0.0206 -0.0543  0.0278
  109loPI   PO4 1732   4.640   7.928   9.599 -0.3553 -0.0269 -0.2315
  109loPI   GL1 1733   4.579   7.926   9.219 -0.1820  0.0681 -0.3166
  109loPI   GL2 1734   4.929   7.849   9.146 -0.3649  0.0036  0.2132
  109loPI   C1A 1735   4.432   8.213   8.889 -0.1442  0.0400 -0.0366
  109loPI   C2A 1736   4.301   8.272   8.519  0.2171 -0.1920 -0.2849
  109loPI   C3A 1737   3.978   8.545   8.287  0.0826  0.2093 -0.1366
  109loPI   C4A 1738   3.797   8.656   7.841 -0.1812 -0.1187 -0.0303
  109loPI   C5A 1739   3.977   8.567   7.440 -0.1032 -0.2060  0.2178
  109loPI   C6A 1740   4.047   8.727   6.987 -0.2239  0.1317  0.0982
  109loPI   C1B 1741   5.083   8.139   8.774 -0.1680 -0.2539 -0.5056
  109loPI   C2B 1742   5.222   8.420   8.411 -0.0586  0.1464 -0.0709
  109loPI   C3B 1743   5.136   8.730   8.128 -0.1970 -0.1945  0.0111
  109loPI   C4B 1744   5.274   8.656   7.650  0.2421 -0.1321  0.3119
  110loPI    C1 1745  16.327  10.397   9.661  0.0740  0.0096 -0.2253
  110loPI    C2 1746  16.211  10.706   9.887 -0.1623 -0.1211 -0.1635
  110loPI    C3 1747  16.548  10.509   9.975  0.0346  0.1671 -0.2529
  110loPI   PO4 1748  16.279  10.464   9.419  0.1815 -0.2860 -0.1238
  110loPI   GL1 1749  15.962  10.657   9.287  0.0059 -0.1387 -0.0046
  110loPI   GL2 1750  15.910  10.419   9.080 -0.0124  0.0262  0.2287
  110loPI   C1A 1751  15.929  10.844   8.856 -0.4079  0.1938  0.3230
  110loPI   C2A 1752  15.835  11.141   8.453  0.0519  0.2970  0.3512
  110loPI   C3A 1753  15.579  11.352   8.110 -0.1738  0.0103  0.0756
  110loPI   C4A 1754  15.398  11.375   7.771  0.0444 -0.0250  0.1043
  110loPI   C5A 1755  15.378  11.616   7.404  0.1198  0.2929 -0.2423
  110loPI   C6A 1756  15.064  11.800   7.161 -0.0669 -0.2454  0.1635
  110loPI   C1B 1757  16.210  10.230   8.668  0.1062  0.2145 -0.1270
  110loPI   C2B 1758  16.425  10.362   8.369 -0.0046 -0.1803 -0.0607
  110loPI   C3B 1759  16.625  10.444   8.010 -0.4358  0.0923  0.0090
  110loPI   C4B 1760  16.785  10.427   7.562  0.1422 -0.0595  0.1723
  111loPI    C1 1761  11.584  11.549   9.811  0.3278  0.0058  0.1168
  111loPI    C2 1762  11.311  11.753  10.021 -0.2014 -0.3207 -0.2303
  111loPI    C3 1763  11.534  11.474  10.201  0.2433  0.2600  0.1570
  111loPI   PO4 1764  11.457  11.440   9.593  0.0309 -0.0619  0.0343
  111loPI   GL1 1765  11.656  11.479   9.105 -0.0598  0.3812 -0.0779
  111loPI   GL2 1766  11.500  11.742   9.134  0.1514  0.2720  0.2930
  111loPI   C1A 1767  11.902  11.577   8.754 -0.2590 -0.2693  0.1126
  111loPI   C2A 1768  11.874  11.683   8.340  0.1491  0.1076 -0.0083
  111loPI   C3A 1769  11.860  11.653   7.835 -0.2050 -0.0862  0.0807
  111loPI   C4A 1770  12.243  11.766   7.482 -0.0302 -0.0530  0.1022
  111loPI   C5A 1771  12.297  11.550   7.049  0.2516 -0.2615  0.1742
  111loPI   C6A 1772  12.147  11.375   6.617 -0.1396  0.1482 -0.2100
  111loPI   C1B 1773  11.446  11.870   8.742 -0.1652 -0.0180  0.0914
  111loPI   C2B 1774  11.383  11.755   8.242 -0.0845  0.0570  0.0912
  111loPI   C3B 1775  11.382  11.851   7.855 -0.0055  0.1386  0.1252
  111loPI   C4B 1776  11.575  11.882   7.452  0.0324  0.1971 -0.0454
  112loPI    C1 1777  14.563  11.556  10.220  0.4071  0.0205 -0.0770
  112loPI    C2 1778  14.869  11.372  10.399  0.3551 -0.0360 -0.0457
  112loPI    C3 1779  14.669  11.660  10.591  0.2779 -0.1198  0.0004
  112loPI   PO4 1780  14.606  11.624   9.960 -0.0188  0.2076  0.1750
  112loPI   GL1 1781  14.458  11.525   9.499 -0.0865  0.0001  0.0717
  112loPI   GL2 1782  14.742  11.438   9.539  0.0748 -0.0042  0.3299
  112loPI   C1A 1783  14.560  11.833   9.227  0.1030  0.0637  0.2938
  112loPI   C2A 1784  14.525  11.823   8.740 -0.0926  0.0346  0.0522
  112loPI   C3A 1785  14.491  11.876   8.272  0.0895  0.0451  0.1006
  112loPI   C4A 1786  14.436  11.874   7.745  0.4008  0.0590 -0.3350
  112loPI   C5A 1787  14.417  12.160   7.362  0.1864  0.1941 -0.3824
  112loPI   C6A 1788  14.059  12.348   7.115  0.2084 -0.0318 -0.0741
  112loPI   C1B 1789  14.766  11.355   9.142 -0.3038  0.2395 -0.1517
  112loPI   C2B 1790  15.021  11.080   8.887 -0.4188  0.0309  0.2445
  112loPI   C3B 1791  14.948  10.799   8.466 -0.0909 -0.0186  0.1648
  112loPI   C4B 1792  14.873  10.342   8.145 -0.0531 -0.1191  0.1349
  113loPI    C1 1793   3.385  10.447   9.489  0.1066  0.1524  0.1038
  113loPI    C2 1794   3.324  10.071   9.365 -0.1228  0.3225 -0.3216
  113loPI    C3 1795   3.232  10.175   9.740  0.0607 -0.0717 -0.1611
  113loPI   PO4 1796   3.640  10.491   9.362  0.3161  0.1943 -0.1500
  113loPI   GL1 1797   3.759  10.756   8.941 -0.1331  0.0023 -0.1797
  113loPI   GL2 1798   3.874  10.527   8.951 -0.3430  0.1094  0.1792
  113loPI   C1A 1799   3.567  10.621   8.530 -0.1439  0.3117 -0.1855
  113loPI   C2A 1800   3.659  10.463   8.103 -0.1818  0.0108 -0.0784
  113loPI   C3A 1801   3.544  10.310   7.725  0.0176  0.3577 -0.1929
  113loPI   C4A 1802   3.517  10.149   7.331 -0.0310 -0.0006  0.2375
  113loPI   C5A 1803   3.414  10.021   6.845 -0.2685  0.0157 -0.0956
  113loPI   C6A 1804   3.741   9.886   6.568  0.0494 -0.1564 -0.2633
  113loPI   C1B 1805   3.951  10.329   8.610  0.1073  0.1008 -0.0474
  113loPI   C2B 1806   4.180  10.401   8.303 -0.0467  0.3142 -0.1888
  113loPI   C3B 1807   4.130  10.445   7.842 -0.2076  0.1683  0.3931
  113loPI   C4B 1808   3.932  10.591   7.439  0.1019  0.1631  0.2597
  114loPI    C1 1809  14.195   7.840   9.863  0.2578  0.1825 -0.1023
  114loPI    C2 1810  14.202   7.459   9.744  0.1745  0.1927 -0.1409
  114loPI    C3 1811  14.092   7.549  10.118  0.2583  0.1744 -0.1115
  114loPI   PO4 1812  14.093   7.900   9.598  0.1054  0.1462 -0.0780
  114loPI   GL1 1813  14.218   7.929   9.236  0.0139 -0.5017 -0.0270
  114loPI   GL2 1814  14.145   7.611   9.146  0.1674  0.2143 -0.0846
  114loPI   C1A 1815  14.416   7.955   8.841 -0.1260  0.0205 -0.1637
  114loPI   C2A 1816  14.529   7.772   8.503 -0.2429  0.2560 -0.2222
  114loPI   C3A 1817  14.578   7.788   8.115  0.0011 -0.1072 -0.1479
  114loPI   C4A 1818  14.268   7.653   7.790  0.1255 -0.0074  0.1126
  114loPI   C5A 1819  13.936   7.593   7.751 -0.2279  0.1772  0.0387
  114loPI   C6A 1820  13.576   7.818   7.593 -0.2728 -0.3078 -0.1155
  114loPI   C1B 1821  14.239   7.441   8.766  0.2704  0.2668  0.3273
  114loPI   C2B 1822  14.180   7.492   8.279  0.0400  0.2011  0.0462
  114loPI   C3B 1823  14.390   7.091   7.991 -0.0877  0.1542  0.0706
  114loPI   C4B 1824  14.285   6.773   7.882 -0.2016  0.0598  0.2518
  115loPI    C1 1825   9.739   3.302  10.348  0.0258 -0.1313  0.1180
  115loPI    C2 1826   9.473   3.566  10.491 -0.0522 -0.1267 -0.0339
  115loPI    C3 1827   9.347   3.242  10.291  0.0510 -0.1903  0.0034
  115loPI   PO4 1828   9.925   3.411  10.131  0.0843  0.1548 -0.2309
  115loPI   GL1 1829   9.885   3.404   9.750 -0.0127 -0.0904 -0.0768
  115loPI   GL2 1830  10.240   3.453   9.613 -0.0482  0.0908 -0.3282
  115loPI   C1A 1831   9.745   3.206   9.449  0.1075  0.1097 -0.1669
  115loPI   C2A 1832   9.876   3.246   9.089  0.0142  0.2120  0.0933
  115loPI   C3A 1833   9.781   3.295   8.730  0.0545  0.1788  0.3890
  115loPI   C4A 1834   9.705   3.353   8.264  0.0889  0.0033  0.2608
  115loPI   C5A 1835   9.953   3.540   7.992  0.1742 -0.0467  0.2036
  115loPI   C6A 1836  10.011   3.570   7.530  0.0967  0.1164  0.0194
  115loPI   C1B 1837  10.079   3.696   9.341  0.2104 -0.1289 -0.2913
  115loPI   C2B 1838   9.924   3.872   8.938 -0.2832 -0.2887  0.0928
  115loPI   C3B 1839   9.890   3.953   8.460  0.0973 -0.1114 -0.1721
  115loPI   C4B 1840   9.835   4.084   7.992  0.0383 -0.0959  0.0630
  116loPI    C1 1841   4.422   7.347  10.400 -0.0306 -0.0882  0.0480
  116loPI    C2 1842   4.380   7.495  10.769  0.1775  0.0867  0.0036
  116loPI    C3 1843   4.625   7.185  10.704 -0.0048 -0.0675  0.0418
  116loPI   PO4 1844   4.252   7.304  10.312  0.0382 -0.0172  0.4686
  116loPI   GL1 1845   4.173   7.195   9.929 -0.1903  0.1916 -0.0785
  116loPI   GL2 1846   3.859   7.138   9.825  0.1659 -0.2508 -0.4901
  116loPI   C1A 1847   4.149   7.049   9.452  0.2241 -0.3221 -0.0185
  116loPI   C2A 1848   4.012   7.160   9.041 -0.0163 -0.0664  0.0474
  116loPI   C3A 1849   4.017   7.089   8.559 -0.0106 -0.5000 -0.1365
  116loPI   C4A 1850   4.007   7.084   8.220  0.1491  0.0323  0.1093
  116loPI   C5A 1851   4.174   7.282   7.942 -0.0166 -0.0422  0.2802
  116loPI   C6A 1852   4.545   7.380   7.645 -0.3795 -0.1148  0.1935
  116loPI   C1B 1853   3.771   7.333   9.445  0.0605 -0.0793  0.2084
  116loPI   C2B 1854   3.737   7.628   9.083 -0.2210  0.2642  0.0984
  116loPI   C3B 1855   3.645   7.702   8.609 -0.1479  0.1072  0.0930
  116loPI   C4B 1856   3.777   7.513   8.217 -0.1597  0.1748 -0.2966
  117loPI    C1 1857  16.522   3.471  10.195 -0.1470 -0.1300 -0.2134
  117loPI    C2 1858  16.301   3.138  10.199 -0.2310 -0.0735 -0.0619
  117loPI    C3 1859  16.284   3.393  10.507 -0.0506 -0.0051 -0.1072
  117loPI   PO4 1860  16.469   3.655  10.036  0.0764  0.1273  0.1918
  117loPI   GL1 1861  16.512   3.607   9.562  0.0656  0.0305 -0.0830
  117loPI   GL2 1862  16.341   3.808   9.429  0.0909  0.2023 -0.0518
  117loPI   C1A 1863  16.711   3.585   9.110  0.3825 -0.0178 -0.0888
  117loPI   C2A 1864  16.937   3.568   8.717 -0.0391 -0.3034 -0.0708
  117loPI   C3A 1865  17.043   3.497   8.301  0.0377 -0.0264  0.1088
  117loPI   C4A 1866  17.144   3.415   7.896 -0.2149 -0.4147 -0.0087
  117loPI   C5A 1867  17.487   3.423   7.720  0.0332  0.1198  0.1258
  117loPI   C6A 1868  17.504   3.306   7.257  0.2472  0.5032 -0.1647
  117loPI   C1B 1869  16.443   4.131   9.057 -0.1795 -0.0010  0.2578
  117loPI   C2B 1870  16.486   4.337   8.780  0.1246 -0.0085 -0.0338
  117loPI   C3B 1871  16.234   4.321   8.336  0.0088 -0.0531 -0.1097
  117loPI   C4B 1872  15.997   4.385   7.992 -0.2323 -0.1827  0.1087
  118loPI    C1 1873  15.527   1.392  10.147  0.2530 -0.1458  0.0186
  118loPI    C2 1874  15.228   1.647  10.223 -0.0490 -0.4403 -0.1523
  118loPI    C3 1875  15.285   1.329  10.459  0.2472 -0.2889 -0.0142
  118loPI   PO4 1876  15.558   1.504   9.888  0.1367 -0.1532 -0.0772
  118loPI   GL1 1877  15.374   1.722   9.662 -0.1172 -0.0459  0.1062
  118loPI   GL2 1878  15.543   1.950   9.534  0.0439 -0.0944  0.0121
  118loPI   C1A 1879  15.249   1.492   9.218 -0.1076 -0.0899 -0.1148
  118loPI   C2A 1880  15.372   1.602   8.889 -0.3244 -0.2285 -0.0869
  118loPI   C3A 1881  15.307   1.665   8.472  0.0866 -0.1022 -0.2313
  118loPI   C4A 1882  15.231   1.545   8.010  0.0899 -0.1992  0.1147
  118loPI   C5A 1883  15.251   1.931   7.736 -0.2444 -0.1834 -0.0475
  118loPI   C6A 1884  14.935   2.128   7.488 -0.1412  0.1108  0.0402
  118loPI   C1B 1885  15.498   1.952   9.231  0.0971 -0.0904  0.0040
  118loPI   C2B 1886  15.326   2.165   8.890  0.1168 -0.2892  0.0381
  118loPI   C3B 1887  15.408   2.162   8.480  0.2590 -0.0611  0.0306
  118loPI   C4B 1888  15.487   2.527   8.200 -0.2179 -0.1054  0.3659
  119loPI    C1 1889   9.322  12.716  10.051 -0.1248  0.2144  0.0684
  119loPI    C2 1890   8.958  12.672  10.210 -0.2297  0.0453 -0.2097
  119loPI    C3 1891   9.235  12.889  10.401 -0.4833  0.1996 -0.0095
  119loPI   PO4 1892   9.251  12.801   9.747 -0.0841 -0.1669  0.0789
  119loPI   GL1 1893   9.336  12.870   9.294 -0.3068 -0.1907  0.0333
  119loPI   GL2 1894   9.040  12.963   9.009 -0.1296  0.0720 -0.0199
  119loPI   C1A 1895   9.468  12.986   8.876 -0.1006  0.2837  0.0487
  119loPI   C2A 1896   9.433  13.140   8.429  0.2109  0.1310  0.0545
  119loPI   C3A 1897   9.452  13.039   8.006  0.3739  0.2983  0.0676
  119loPI   C4A 1898   9.572  13.114   7.643  0.2055 -0.2854  0.1081
  119loPI   C5A 1899   9.527  13.308   7.263 -0.0573  0.2079 -0.1320
  119loPI   C6A 1900   9.612  13.600   6.998  0.3720  0.0073 -0.0349
  119loPI   C1B 1901   9.046  12.876   8.578  0.0156  0.0887 -0.2191
  119loPI   C2B 1902   8.897  12.776   8.157  0.1607 -0.1224 -0.0325
  119loPI   C3B 1903   8.906  12.757   7.775  0.0668  0.0183 -0.2917
  119loPI   C4B 1904   9.143  12.963   7.519  0.1090 -0.2051 -0.0458
  120loPI    C1 1905   7.721  17.924  10.168  0.0077 -0.1497 -0.0515
  120loPI    C2 1906   7.924  18.217  10.350 -0.0377 -0.1824  0.0527
  120loPI    C3 1907   7.777  17.913  10.565 -0.2432 -0.1320 -0.0143
  120loPI   PO4 1908   7.533  18.002  10.010  0.0729 -0.0035  0.0773
  120loPI   GL1 1909   7.191  17.790   9.788  0.2135 -0.0407 -0.0714
  120loPI   GL2 1910   7.165  17.524   9.652 -0.1404 -0.1413  0.2406
  120loPI   C1A 1911   6.904  17.811   9.307 -0.0418 -0.0235  0.0704
  120loPI   C2A 1912   6.926  17.883   8.833 -0.3860  0.0100 -0.1546
  120loPI   C3A 1913   7.015  17.839   8.445  0.3476 -0.0028 -0.0593
  120loPI   C4A 1914   7.104  17.952   8.045  0.0970 -0.0336  0.1423
  120loPI   C5A 1915   7.105  17.872   7.641 -0.0326  0.3358  0.1840
  120loPI   C6A 1916   7.345  17.705   7.217 -0.0004  0.0738 -0.1255
  120loPI   C1B 1917   7.364  17.600   9.284 -0.0108 -0.2847  0.1091
  120loPI   C2B 1918   7.704  17.466   9.001 -0.1126 -0.0675 -0.1849
  120loPI   C3B 1919   7.776  17.350   8.608  0.1141  0.0353  0.2377
  120loPI   C4B 1920   8.083  17.319   8.224  0.2553 -0.0625  0.0378
  121loPI    C1 1921   1.198   0.782  10.707 -0.0626 -0.1847 -0.0158
  121loPI    C2 1922   0.801   0.752  10.740 -0.0517 -0.2039  0.1034
  121loPI    C3 1923   1.019   0.867  11.055 -0.0121  0.3249 -0.1061
  121loPI   PO4 1924   1.176   0.684  10.436 -0.1714  0.2428  0.1719
  121loPI   GL1 1925   0.987   0.774  10.023  0.4700  0.2893  0.0261
  121loPI   GL2 1926   0.838   1.099   9.895 -0.4213  0.0960  0.0047
  121loPI   C1A 1927   0.780   0.610   9.498  0.0824 -0.1044 -0.3026
  121loPI   C2A 1928   0.999   0.514   9.111 -0.2978 -0.1044 -0.1752
  121loPI   C3A 1929   1.082   0.467   8.754 -0.1102 -0.1342  0.1235
  121loPI   C4A 1930   1.118   0.351   8.248 -0.0073  0.0858 -0.0573
  121loPI   C5A 1931   1.173   0.385   7.823  0.0507 -0.1962  0.0334
  121loPI   C6A 1932   0.947   0.576   7.505 -0.3310  0.2019 -0.1212
  121loPI   C1B 1933   0.843   1.110   9.480 -0.0590  0.1649  0.0644
  121loPI   C2B 1934   0.765   0.945   8.980  0.0066  0.1290  0.0949
  121loPI   C3B 1935   0.636   0.661   8.627 -0.0018  0.0544  0.4882
  121loPI   C4B 1936   0.522   0.430   8.369  0.1289 -0.3339  0.2080
  122loPI    C1 1937  10.871  15.222   9.962  0.0600 -0.1092 -0.1585
  122loPI    C2 1938  10.844  14.853   9.810  0.0490 -0.1889  0.0343
  122loPI    C3 1939  10.983  14.907  10.181  0.1429  0.0095 -0.0281
  122loPI   PO4 1940  10.930  15.385   9.830  0.3273 -0.0394 -0.2037
  122loPI   GL1 1941  10.724  15.318   9.398  0.1854 -0.3833  0.0862
  122loPI   GL2 1942  10.862  15.565   9.379  0.1450 -0.2893  0.1615
  122loPI   C1A 1943  10.631  15.234   8.916 -0.1491  0.3104 -0.0937
  122loPI   C2A 1944  10.670  15.116   8.502 -0.1504 -0.0966 -0.0713
  122loPI   C3A 1945  10.612  15.121   8.095  0.2813  0.5022  0.0308
  122loPI   C4A 1946  10.561  15.077   7.600 -0.0838  0.0720 -0.0649
  122loPI   C5A 1947  10.744  14.973   7.206  0.0078 -0.0234  0.4129
  122loPI   C6A 1948  10.659  14.702   6.963  0.0951 -0.1565  0.0743
  122loPI   C1B 1949  10.822  15.700   8.988 -0.0445 -0.0584 -0.3302
  122loPI   C2B 1950  10.675  15.696   8.568 -0.0276 -0.2826  0.2324
  122loPI   C3B 1951  10.495  15.559   8.274  0.3123  0.1289 -0.1463
  122loPI   C4B 1952  10.299  15.544   7.937  0.1829 -0.4136  0.2719
  123loPI    C1 1953   1.255  11.372   9.544 -0.1286  0.1239  0.3375
  123loPI    C2 1954   1.641  11.324   9.637 -0.0358  0.1612 -0.0124
  123loPI    C3 1955   1.383  11.452   9.914  0.2184  0.2209  0.2013
  123loPI   PO4 1956   1.367  11.280   9.238 -0.6205  0.3215 -0.1912
  123loPI   GL1 1957   0.960  11.366   8.871 -0.1262 -0.0404  0.0838
  123loPI   GL2 1958   0.847  11.267   8.681 -0.2375  0.0244 -0.0441
  123loPI   C1A 1959   1.316  11.353   8.499 -0.2041  0.0999  0.0602
  123loPI   C2A 1960   1.588  11.062   8.377 -0.0330  0.1796  0.5704
  123loPI   C3A 1961   1.637  10.823   8.041  0.0699 -0.0213 -0.0201
  123loPI   C4A 1962   1.942  10.686   7.636 -0.0233  0.1306 -0.0090
  123loPI   C5A 1963   2.171  10.385   7.302  0.2656 -0.0435 -0.0217
  123loPI   C6A 1964   2.174  10.029   7.021 -0.0324 -0.1222 -0.1405
  123loPI   C1B 1965   0.967  11.165   8.233  0.0795  0.1085 -0.4844
  123loPI   C2B 1966   1.249  11.213   8.011  0.0868 -0.0604 -0.1649
  123loPI   C3B 1967   1.231  11.172   7.514  0.1305 -0.2578 -0.1068
  123loPI   C4B 1968   1.067  11.443   7.227  0.0070  0.1567  0.2835
  124loPI    C1 1969   5.171   9.542   9.769 -0.2265 -0.0394  0.0928
  124loPI    C2 1970   5.381   9.205   9.720 -0.0305  0.1149 -0.1486
  124loPI    C3 1971   5.306   9.342  10.088  0.0469 -0.0939 -0.0537
  124loPI   PO4 1972   4.930   9.430   9.636 -0.0654 -0.1374 -0.1808
  124loPI   GL1 1973   4.681   9.553   9.289  0.1057 -0.0525 -0.1345
  124loPI   GL2 1974   4.600   9.241   9.260  0.3760 -0.1690  0.0784
  124loPI   C1A 1975   4.729   9.638   8.939 -0.4233  0.3312  0.0688
  124loPI   C2A 1976   4.862   9.738   8.533 -0.0003  0.2540 -0.0815
  124loPI   C3A 1977   5.014   9.777   8.193 -0.0121 -0.2664  0.2522
  124loPI   C4A 1978   5.099   9.770   7.753  0.2986  0.1073  0.0459
  124loPI   C5A 1979   5.055  10.040   7.331  0.1461 -0.0015 -0.1827
  124loPI   C6A 1980   5.170  10.316   6.930 -0.0008  0.0090 -0.0461
  124loPI   C1B 1981   4.740   9.158   8.872  0.1935 -0.2118  0.2248
  124loPI   C2B 1982   4.790   8.977   8.453 -0.4674  0.2416 -0.2627
  124loPI   C3B 1983   4.626   8.827   8.073 -0.1274  0.0981  0.1237
  124loPI   C4B 1984   4.314   8.461   7.920  0.3908  0.0260 -0.0212
  125loPI    C1 1985  14.116  13.252   9.988 -0.0053 -0.1305  0.0752
  125loPI    C2 1986  14.392  13.538  10.033  0.0006 -0.1382  0.0887
  125loPI    C3 1987  14.031  13.580  10.200 -0.0847 -0.0232 -0.1196
  125loPI   PO4 1988  14.055  13.271   9.685 -0.1439  0.0547 -0.0193
  125loPI   GL1 1989  14.005  13.512   9.300  0.2462 -0.0399  0.0677
  125loPI   GL2 1990  14.139  13.237   9.167  0.0161 -0.4599  0.3560
  125loPI   C1A 1991  13.871  13.881   9.072  0.0525  0.0157 -0.2253
  125loPI   C2A 1992  13.799  13.869   8.689  0.0769  0.2586  0.3170
  125loPI   C3A 1993  13.517  14.084   8.363 -0.2512 -0.1097 -0.1195
  125loPI   C4A 1994  13.441  14.014   7.949 -0.0924  0.0046  0.2859
  125loPI   C5A 1995  13.647  13.908   7.589 -0.0276 -0.5840 -0.2321
  125loPI   C6A 1996  13.766  13.579   7.298 -0.1660  0.1337 -0.0509
  125loPI   C1B 1997  14.262  13.346   8.706  0.4881  0.1249 -0.0301
  125loPI   C2B 1998  14.172  13.680   8.394 -0.3062 -0.0755 -0.1925
  125loPI   C3B 1999  13.946  13.943   8.072  0.3349  0.2452  0.1340
  125loPI   C4B 2000  13.809  14.359   8.003 -0.1559 -0.0166 -0.2679
  126loPI    C1 2001   8.386   5.478  10.096 -0.0779  0.2019 -0.0219
  126loPI    C2 2002   8.080   5.497  10.353 -0.1600  0.0051 -0.1030
  126loPI    C3 2003   8.404   5.723  10.412 -0.2005  0.0020  0.1433
  126loPI   PO4 2004   8.321   5.595   9.756 -0.2886  0.1761  0.0143
  126loPI   GL1 2005   8.477   5.713   9.415 -0.1537 -0.1267 -0.2912
  126loPI   GL2 2006   8.397   6.056   9.404 -0.0496  0.0831  0.0216
  126loPI   C1A 2007   8.384   5.407   8.971  0.0941 -0.0682 -0.0367
  126loPI   C2A 2008   8.477   5.183   8.659 -0.0568  0.1698  0.3801
  126loPI   C3A 2009   8.328   5.056   8.321 -0.1896 -0.0831  0.0023
  126loPI   C4A 2010   8.492   5.005   7.956  0.1883 -0.1130 -0.2703
  126loPI   C5A 2011   8.422   4.973   7.455  0.0636 -0.0064  0.1242
  126loPI   C6A 2012   8.120   4.985   7.075  0.0122  0.1538  0.2148
  126loPI   C1B 2013   8.584   5.899   8.983  0.3477  0.0975  0.5341
  126loPI   C2B 2014   8.633   5.726   8.481  0.0912  0.2692  0.2548
  126loPI   C3B 2015   8.510   5.821   8.076  0.0784 -0.2513 -0.5646
  126loPI   C4B 2016   8.293   6.137   7.668  0.3804 -0.0469 -0.1653
  127loPI    C1 2017   9.297   9.674   9.958 -0.1126  0.2373  0.1812
  127loPI    C2 2018   9.072   9.682  10.289 -0.0755 -0.0223  0.2154
  127loPI    C3 2019   9.415   9.477  10.286 -0.0838 -0.0352  0.0103
  127loPI   PO4 2020   9.094   9.640   9.711 -0.2528 -0.0240  0.2777
  127loPI   GL1 2021   9.177   9.732   9.287 -0.1621 -0.2816 -0.0817
  127loPI   GL2 2022   9.420   9.748   9.319  0.0258 -0.2138  0.1242
  127loPI   C1A 2023   9.081   9.731   8.807  0.0354  0.0075 -0.0033
  127loPI   C2A 2024   8.999   9.613   8.416  0.0725  0.2013 -0.1229
  127loPI   C3A 2025   9.112   9.526   8.005 -0.3947  0.0412  0.3170
  127loPI   C4A 2026   8.971   9.252   7.627  0.4471  0.0896  0.0328
  127loPI   C5A 2027   9.086   8.967   7.318  0.1808 -0.2040 -0.2520
  127loPI   C6A 2028   8.894   8.698   7.030  0.1012 -0.2496  0.0275
  127loPI   C1B 2029   9.553   9.946   8.904  0.1369 -0.1122  0.1675
  127loPI   C2B 2030   9.433  10.036   8.465 -0.4043  0.1931  0.1181
  127loPI   C3B 2031   9.392  10.065   8.035 -0.0841  0.3605  0.3350
  127loPI   C4B 2032   9.672   9.899   7.795 -0.0856 -0.0258  0.1428
  128loPI    C1 2033  12.502   9.295  10.077 -0.0168  0.1732 -0.2797
  128loPI    C2 2034  12.808   9.470  10.267 -0.0899 -0.0642  0.0643
  128loPI    C3 2035  12.435   9.508  10.409 -0.1285 -0.3519  0.0463
  128loPI   PO4 2036  12.719   9.123   9.880 -0.0944  0.1313 -0.2623
  128loPI   GL1 2037  12.692   8.993   9.415  0.0509 -0.2742  0.0452
  128loPI   GL2 2038  12.541   8.731   9.345  0.1438 -0.1521 -0.0498
  128loPI   C1A 2039  12.562   9.204   9.082 -0.1554  0.1508  0.0166
  128loPI   C2A 2040  12.387   9.413   8.743 -0.0915  0.1533 -0.0951
  128loPI   C3A 2041  12.222   9.717   8.326  0.0188 -0.1570 -0.0241
  128loPI   C4A 2042  12.268  10.097   8.090  0.2629  0.0359  0.0145
  128loPI   C5A 2043  12.623  10.126   7.693  0.1253 -0.4195  0.3713
  128loPI   C6A 2044  12.878  10.174   7.403 -0.1653  0.1281  0.0376
  128loPI   C1B 2045  12.674   8.549   9.013 -0.1513 -0.2008 -0.1317
  128loPI   C2B 2046  12.644   8.615   8.645 -0.1516  0.1740 -0.0299
  128loPI   C3B 2047  12.631   8.635   8.200 -0.0675 -0.1243 -0.2341
  128loPI   C4B 2048  12.363   8.443   7.904 -0.3608  0.0220  0.4235
  129loPI    C1 2049   0.721  19.055  10.337  0.0340 -0.2844 -0.1756
  129loPI    C2 2050   0.323  19.022  10.308 -0.0099  0.0117  0.0389
  129loPI    C3 2051   0.543  18.709  10.426 -0.1467 -0.2383 -0.3497
  129loPI   PO4 2052   0.773  19.140  10.099  0.0347 -0.2895  0.0914
  129loPI   GL1 2053   1.026  19.195   9.660  0.2671  0.0902 -0.2897
  129loPI   GL2 2054   0.861  19.323   9.648  0.0200 -0.1386 -0.1517
  129loPI   C1A 2055   1.347  19.351   9.407 -0.2103  0.0896  0.2878
  129loPI   C2A 2056   1.390  19.566   9.053 -0.0699 -0.0423  0.1684
  129loPI   C3A 2057   1.798  19.576   8.852 -0.2641 -0.1944 -0.0854
  129loPI   C4A 2058   1.895  19.485   8.555  0.2998  0.1756  0.1609
  129loPI   C5A 2059   1.887  19.351   8.197 -0.0392 -0.0713  0.2360
  129loPI   C6A 2060   1.933  19.179   7.843 -0.2375  0.1384  0.0952
  129loPI   C1B 2061   0.870  19.482   9.286  0.0911 -0.1646  0.0028
  129loPI   C2B 2062   1.005  19.326   8.932  0.1122 -0.2315 -0.2861
  129loPI   C3B 2063   0.967  18.976   8.605  0.2181  0.0327 -0.5083
  129loPI   C4B 2064   1.098  18.804   8.247  0.0707 -0.0650 -0.0029
  130loPI    C1 2065  17.273   7.002  10.011 -0.0175 -0.2089 -0.1393
  130loPI    C2 2066  17.486   6.787  10.273 -0.1984 -0.0716  0.1257
  130loPI    C3 2067  17.217   7.053  10.404 -0.2421  0.0508 -0.2014
  130loPI   PO4 2068  17.321   6.919   9.791 -0.1901 -0.0551  0.2733
  130loPI   GL1 2069  17.245   6.994   9.328 -0.0658 -0.5077  0.1419
  130loPI   GL2 2070  17.562   7.084   9.374 -0.1145  0.0190 -0.0764
  130loPI   C1A 2071  17.392   6.668   8.967  0.1941  0.0258  0.1441
  130loPI   C2A 2072  17.320   6.759   8.511 -0.3766 -0.0360  0.1445
  130loPI   C3A 2073  17.285   6.743   8.080  0.2345  0.1551 -0.0535
  130loPI   C4A 2074  16.990   6.722   7.652  0.0615  0.2814  0.1043
  130loPI   C5A 2075  16.551   6.816   7.583  0.1130  0.0500  0.0811
  130loPI   C6A 2076  16.130   7.079   7.543  0.2246  0.4845  0.0646
  130loPI   C1B 2077  17.472   7.179   8.955  0.1743  0.0282  0.0270
  130loPI   C2B 2078  17.273   7.236   8.527  0.0696 -0.0030  0.0233
  130loPI   C3B 2079  17.131   7.277   8.044 -0.0198 -0.3449 -0.1519
  130loPI   C4B 2080  17.234   7.135   7.677  0.2441 -0.1546  0.1853
  131loPI    C1 2081   0.404   2.264  10.456 -0.0059 -0.0279  0.0271
  131loPI    C2 2082   0.663   2.377  10.739  0.0715 -0.0734 -0.0249
  131loPI    C3 2083   0.271   2.437  10.791  0.0884 -0.0469  0.0750
  131loPI   PO4 2084   0.494   2.366  10.190  0.0900  0.1943 -0.2589
  131loPI   GL1 2085   0.730   2.161   9.848 -0.0161 -0.1845 -0.2690
  131loPI   GL2 2086   0.701   2.473   9.792  0.2991  0.2929  0.2927
  131loPI   C1A 2087   0.857   1.946   9.528  0.2360  0.1713  0.0932
  131loPI   C2A 2088   0.750   1.885   9.042  0.1689 -0.0658 -0.1391
  131loPI   C3A 2089   0.395   1.920   8.748  0.2185 -0.0040  0.0068
  131loPI   C4A 2090   0.173   1.983   8.321  0.0995 -0.0032 -0.2482
  131loPI   C5A 2091  -0.065   1.748   8.078  0.1399 -0.4651 -0.0998
  131loPI   C6A 2092  -0.270   1.561   7.848  0.3638  0.0752 -0.0464
  131loPI   C1B 2093   0.661   2.369   9.381 -0.1315 -0.0711  0.2824
  131loPI   C2B 2094   0.627   2.419   8.923 -0.0391  0.1340 -0.2680
  131loPI   C3B 2095   0.551   2.331   8.489 -0.1969 -0.0603 -0.2767
  131loPI   C4B 2096   0.236   2.400   8.116  0.1828  0.1308  0.2750
  132loPI    C1 2097   1.113  10.020   9.943  0.0609 -0.0054  0.3877
  132loPI    C2 2098   0.835   9.733   9.944  0.0708 -0.0291 -0.1953
  132loPI    C3 2099   0.733  10.111  10.026 -0.0948 -0.0692 -0.2128
  132loPI   PO4 2100   1.219  10.077   9.692 -0.0723 -0.2216  0.0187
  132loPI   GL1 2101   1.141  10.068   9.231  0.1991 -0.0997 -0.2314
  132loPI   GL2 2102   1.062   9.796   9.029 -0.3409  0.0987 -0.0375
  132loPI   C1A 2103   1.013  10.248   8.806 -0.4994 -0.1447  0.0141
  132loPI   C2A 2104   0.748  10.341   8.484 -0.2587  0.1842  0.0808
  132loPI   C3A 2105   0.865  10.245   8.044 -0.2006 -0.1205 -0.0452
  132loPI   C4A 2106   0.838  10.482   7.593 -0.0641 -0.2141  0.0191
  132loPI   C5A 2107   1.013  10.741   7.246 -0.1191  0.0738  0.3137
  132loPI   C6A 2108   1.236  11.039   7.019 -0.2632  0.3289  0.2540
  132loPI   C1B 2109   1.168   9.774   8.660 -0.0643 -0.1313  0.1260
  132loPI   C2B 2110   1.236   9.987   8.314  0.1675  0.0365  0.2094
  132loPI   C3B 2111   1.302  10.135   7.822  0.0718 -0.1735  0.3977
  132loPI   C4B 2112   1.291  10.128   7.438 -0.1150  0.0259  0.0230
  133loPI    C1 2113  16.877   1.218   9.778  0.3143  0.2202  0.2590
  133loPI    C2 2114  16.611   1.083  10.044 -0.1123  0.2992 -0.1167
  133loPI    C3 2115  16.839   1.399  10.133 -0.2282  0.3062  0.1653
  133loPI   PO4 2116  16.993   0.983   9.729 -0.0042  0.0799  0.0513
  133loPI   GL1 2117  16.989   0.743   9.391 -0.1714 -0.0581  0.2710
  133loPI   GL2 2118  16.759   0.535   9.265 -0.0872  0.0641  0.0613
  133loPI   C1A 2119  17.096   0.837   9.068 -0.1126 -0.1400 -0.0353
  133loPI   C2A 2120  16.986   1.001   8.625 -0.0273 -0.1356 -0.1947
  133loPI   C3A 2121  17.214   1.102   8.228 -0.0909  0.2201  0.0074
  133loPI   C4A 2122  17.583   1.128   7.950  0.2348  0.0265  0.3255
  133loPI   C5A 2123  17.737   1.157   7.587 -0.0831  0.0971 -0.0077
  133loPI   C6A 2124  17.423   1.035   7.234 -0.0299 -0.3752  0.1352
  133loPI   C1B 2125  16.739   0.578   8.851 -0.2009 -0.1433  0.2190
  133loPI   C2B 2126  16.830   0.476   8.601  0.2681  0.2931 -0.0600
  133loPI   C3B 2127  16.826   0.195   8.336 -0.1846 -0.1070 -0.1330
  133loPI   C4B 2128  16.664   0.076   7.947  0.3036  0.0182  0.2302
  134loPI    C1 2129   9.922   3.902  10.494 -0.0607 -0.0395 -0.0286
  134loPI    C2 2130  10.113   4.012  10.827 -0.1419 -0.2777  0.0992
  134loPI    C3 2131  10.278   3.743  10.582  0.1559  0.2691 -0.3231
  134loPI   PO4 2132   9.840   4.027  10.227  0.2289 -0.0129  0.4401
  134loPI   GL1 2133   9.927   3.935   9.787 -0.3657 -0.1978 -0.0673
  134loPI   GL2 2134  10.227   4.089   9.715 -0.0511  0.2297  0.2177
  134loPI   C1A 2135   9.838   4.249   9.407 -0.1455  0.1267 -0.2368
  134loPI   C2A 2136  10.328   4.241   9.188  0.1158 -0.1803 -0.1479
  134loPI   C3A 2137  10.314   4.305   8.808  0.0491 -0.2260  0.0073
  134loPI   C4A 2138  10.164   4.399   8.322 -0.2442 -0.1499 -0.1198
  134loPI   C5A 2139   9.906   4.569   8.087 -0.1605 -0.1046  0.1457
  134loPI   C6A 2140   9.747   4.873   7.795  0.2719 -0.1270 -0.2298
  134loPI   C1B 2141  10.609   3.935   9.513  0.2919 -0.0795 -0.0471
  134loPI   C2B 2142  10.799   3.953   9.149 -0.0518  0.1025 -0.3285
  134loPI   C3B 2143  11.016   3.889   8.762 -0.0776  0.0503 -0.0436
  134loPI   C4B 2144  11.088   3.796   8.324  0.1847  0.1966 -0.1654
  135loPI    C1 2145   8.316   1.881  10.110  0.0586 -0.1725 -0.1654
  135loPI    C2 2146   8.176   1.777   9.750  0.2189 -0.2483 -0.2064
  135loPI    C3 2147   8.088   1.555  10.071 -0.0574 -0.0917 -0.1707
  135loPI   PO4 2148   8.556   1.900  10.121  0.0047  0.0068  0.0319
  135loPI   GL1 2149   8.769   1.917   9.717 -0.0703  0.0018 -0.1915
  135loPI   GL2 2150   9.100   1.827   9.693 -0.0958  0.2454  0.0774
  135loPI   C1A 2151   8.504   2.018   9.333 -0.2554  0.1459 -0.0160
  135loPI   C2A 2152   8.168   2.411   9.057  0.0620  0.1913 -0.0170
  135loPI   C3A 2153   8.227   2.569   8.676  0.2512  0.0718  0.1018
  135loPI   C4A 2154   8.117   2.815   8.366 -0.2561  0.1374  0.1699
  135loPI   C5A 2155   8.327   3.204   8.238  0.3011 -0.1335  0.0035
  135loPI   C6A 2156   8.522   3.427   7.914  0.0336  0.3807  0.3421
  135loPI   C1B 2157   9.322   1.690   9.329  0.1666  0.0370 -0.2703
  135loPI   C2B 2158   9.226   1.650   8.945 -0.0362  0.1440  0.0331
  135loPI   C3B 2159   9.391   1.613   8.519 -0.1352 -0.0093  0.1517
  135loPI   C4B 2160   9.349   1.419   8.185  0.3267 -0.0860 -0.2132
  136loPI    C1 2161   6.585  11.239   9.724 -0.1791  0.1774  0.0138
  136loPI    C2 2162   6.914  11.291   9.945  0.0700 -0.1149 -0.2773
  136loPI    C3 2163   6.563  11.216  10.123  0.1328  0.3017  0.0406
  136loPI   PO4 2164   6.464  11.412   9.589 -0.1174  0.2711  0.2592
  136loPI   GL1 2165   6.570  11.482   9.175 -0.0567  0.0487 -0.1688
  136loPI   GL2 2166   6.570  11.735   9.072  0.0786 -0.0508 -0.4209
  136loPI   C1A 2167   6.848  11.402   8.812 -0.0954 -0.1355  0.0549
  136loPI   C2A 2168   6.743  11.265   8.497  0.0154  0.3091  0.1968
  136loPI   C3A 2169   6.379  11.208   8.228 -0.2632  0.1622 -0.2903
  136loPI   C4A 2170   6.140  11.149   7.799 -0.4150  0.0313  0.0734
  136loPI   C5A 2171   5.873  10.892   7.572  0.0402 -0.2772 -0.1459
  136loPI   C6A 2172   5.535  10.851   7.301  0.0260  0.1484  0.3768
  136loPI   C1B 2173   6.493  11.652   8.631 -0.3081  0.1579  0.0286
  136loPI   C2B 2174   6.608  11.717   8.219 -0.2468 -0.1766  0.1556
  136loPI   C3B 2175   6.739  11.567   7.901  0.1903  0.2320 -0.1638
  136loPI   C4B 2176   6.650  11.748   7.502  0.1639  0.0535 -0.1675
  137loPI    C1 2177   8.051  11.681   9.607  0.1977 -0.1051 -0.0211
  137loPI    C2 2178   8.181  11.499   9.939 -0.1549  0.0106  0.1856
  137loPI    C3 2179   7.859  11.736   9.953 -0.1377  0.0671 -0.2291
  137loPI   PO4 2180   8.282  11.644   9.442  0.0923 -0.1721 -0.1219
  137loPI   GL1 2181   8.471  11.775   9.087  0.0705 -0.1920  0.0328
  137loPI   GL2 2182   8.036  11.856   9.082 -0.1694 -0.2908  0.0805
  137loPI   C1A 2183   8.684  11.544   8.777  0.1500 -0.0880 -0.1570
  137loPI   C2A 2184   9.036  11.253   8.569  0.2253 -0.1582 -0.2026
  137loPI   C3A 2185   9.152  11.259   8.209 -0.2095  0.0570  0.1567
  137loPI   C4A 2186   9.227  11.342   7.773 -0.0066 -0.0772 -0.0203
  137loPI   C5A 2187   9.150  11.354   7.323  0.0539 -0.1626  0.1853
  137loPI   C6A 2188   9.059  11.327   6.902 -0.3261  0.0710  0.0616
  137loPI   C1B 2189   7.885  11.595   8.742 -0.3297 -0.0887 -0.0283
  137loPI   C2B 2190   7.493  11.375   8.644  0.1393  0.2261  0.2356
  137loPI   C3B 2191   7.149  11.545   8.429  0.2217 -0.3131  0.0560
  137loPI   C4B 2192   7.082  11.830   8.183 -0.2098 -0.1902 -0.1412
  138loPI    C1 2193  10.531   8.023  10.217  0.1318  0.0637 -0.0007
  138loPI    C2 2194  10.299   8.347  10.249  0.1061  0.0341  0.1171
  138loPI    C3 2195  10.546   8.248  10.547  0.1330 -0.0401  0.0705
  138loPI   PO4 2196  10.530   8.057   9.889 -0.2798  0.3308  0.0787
  138loPI   GL1 2197  10.453   7.708   9.594  0.1536  0.0436 -0.1529
  138loPI   GL2 2198  10.118   7.618   9.516 -0.0347 -0.2499 -0.0889
  138loPI   C1A 2199  10.444   7.811   9.191  0.2320  0.3267  0.2512
  138loPI   C2A 2200  10.180   7.917   9.022  0.1308 -0.1586  0.0575
  138loPI   C3A 2201   9.953   8.203   8.725  0.1798 -0.0829 -0.0676
  138loPI   C4A 2202   9.852   8.195   8.291 -0.1237  0.3149 -0.0959
  138loPI   C5A 2203   9.878   8.110   7.834 -0.2254  0.0423  0.0927
  138loPI   C6A 2204   9.964   7.925   7.408 -0.0161 -0.5334  0.1342
  138loPI   C1B 2205  10.335   7.270   9.317  0.0911  0.0153 -0.0642
  138loPI   C2B 2206  10.641   7.209   8.980 -0.1195 -0.1577 -0.0987
  138loPI   C3B 2207  10.929   7.212   8.734 -0.2122  0.0081 -0.1999
  138loPI   C4B 2208  10.852   7.250   8.247 -0.1527  0.0357  0.3794
  139loPI    C1 2209  14.557   3.222  10.475  0.0715  0.1582  0.0105
  139loPI    C2 2210  14.643   2.840  10.558  0.2440  0.2067  0.0594
  139loPI    C3 2211  14.413   3.051  10.807  0.0248  0.0924 -0.0434
  139loPI   PO4 2212  14.468   3.213  10.228  0.2511  0.0057 -0.0706
  139loPI   GL1 2213  14.576   3.203   9.796  0.0221  0.2099 -0.0220
  139loPI   GL2 2214  14.792   2.942   9.593 -0.1291  0.1023  0.2102
  139loPI   C1A 2215  14.488   3.180   9.365  0.0799  0.0934  0.1251
  139loPI   C2A 2216  14.319   3.539   9.103 -0.0093  0.3166  0.0608
  139loPI   C3A 2217  14.203   3.709   8.665  0.1593  0.0673 -0.0876
  139loPI   C4A 2218  13.916   3.840   8.430  0.3140  0.1304  0.2690
  139loPI   C5A 2219  13.649   4.046   8.122  0.2236  0.4521 -0.1071
  139loPI   C6A 2220  13.490   4.333   7.844 -0.2412 -0.2298 -0.2575
  139loPI   C1B 2221  14.903   2.955   9.152  0.1050  0.0768 -0.2941
  139loPI   C2B 2222  14.832   2.985   8.707  0.0155 -0.0149  0.0567
  139loPI   C3B 2223  14.835   3.176   8.356 -0.0567  0.1176  0.1168
  139loPI   C4B 2224  14.727   3.286   7.932 -0.1929  0.2572  0.0612
  140loPI    C1 2225  18.867  15.660  10.073 -0.3242  0.2083  0.0873
  140loPI    C2 2226  18.783  15.292  10.206  0.2378  0.0302 -0.0253
  140loPI    C3 2227  18.973  15.552  10.443 -0.0659  0.2182  0.0177
  140loPI   PO4 2228  18.894  15.515   9.777  0.1566 -0.0416 -0.1421
  140loPI   GL1 2229  18.641  15.594   9.494  0.0298 -0.0964 -0.0144
  140loPI   GL2 2230  18.673  15.340   9.384 -0.3825  0.0257 -0.1635
  140loPI   C1A 2231  18.895  15.872   9.159 -0.1540  0.1202 -0.4177
  140loPI   C2A 2232  19.055  15.860   8.704 -0.2638 -0.0338  0.2380
  140loPI   C3A 2233  19.073  16.023   8.278 -0.3312  0.1687  0.0478
  140loPI   C4A 2234  18.791  16.060   7.830  0.1803  0.0818  0.2086
  140loPI   C5A 2235  18.537  16.288   7.507 -0.0269  0.1833  0.0614
  140loPI   C6A 2236  18.254  16.241   7.221 -0.1257 -0.0083  0.1604
  140loPI   C1B 2237  18.816  15.375   9.017  0.1171 -0.1993  0.0762
  140loPI   C2B 2238  18.640  15.612   8.719 -0.1128 -0.0301  0.2049
  140loPI   C3B 2239  18.265  15.567   8.232  0.1954  0.2889  0.0806
  140loPI   C4B 2240  17.917  15.539   7.856 -0.0294 -0.0290  0.0362
  141loPI    C1 2241   6.705  13.283   9.497  0.0569  0.0981 -0.0890
  141loPI    C2 2242   6.391  13.499   9.618  0.0534 -0.0860  0.2409
  141loPI    C3 2243   6.586  13.266   9.878  0.1116 -0.4134 -0.0883
  141loPI   PO4 2244   6.638  13.166   9.323 -0.1661 -0.1717 -0.0453
  141loPI   GL1 2245   6.475  13.181   8.924  0.0634  0.0132 -0.1300
  141loPI   GL2 2246   6.308  13.034   8.712 -0.0841 -0.0412 -0.1353
  141loPI   C1A 2247   6.741  13.215   8.569  0.0796  0.2344  0.2283
  141loPI   C2A 2248   6.840  13.088   8.118 -0.0098  0.0472 -0.0254
  141loPI   C3A 2249   6.817  13.046   7.661  0.1735 -0.2085 -0.0124
  141loPI   C4A 2250   6.664  12.780   7.305 -0.2260  0.0862  0.0960
  141loPI   C5A 2251   6.586  12.461   7.103 -0.0556 -0.2885  0.2022
  141loPI   C6A 2252   6.736  12.286   6.706  0.0120 -0.1892  0.0297
  141loPI   C1B 2253   6.351  13.095   8.285 -0.2104  0.0457  0.2046
  141loPI   C2B 2254   6.335  13.017   7.834 -0.2975  0.0292  0.2140
  141loPI   C3B 2255   6.129  12.984   7.392 -0.1234 -0.1147  0.0677
  141loPI   C4B 2256   5.937  12.887   7.076 -0.1860  0.2187 -0.1138
  142loPI    C1 2257  15.660  14.056   9.930 -0.2188 -0.0056 -0.0309
  142loPI    C2 2258  16.016  14.109  10.104 -0.2365 -0.1116  0.0383
  142loPI    C3 2259  15.681  14.161  10.315 -0.2650  0.1119 -0.0602
  142loPI   PO4 2260  15.725  14.015   9.732  0.2009 -0.1498  0.2414
  142loPI   GL1 2261  15.693  14.012   9.369 -0.1094  0.1701 -0.1501
  142loPI   GL2 2262  15.416  13.877   9.243  0.4096 -0.1698 -0.3478
  142loPI   C1A 2263  15.943  14.164   8.958  0.0677 -0.1203 -0.2132
  142loPI   C2A 2264  15.983  14.005   8.600  0.2106 -0.0181  0.0194
  142loPI   C3A 2265  15.986  14.080   8.092 -0.3682  0.3026  0.0115
  142loPI   C4A 2266  16.099  14.053   7.754  0.2200 -0.1561  0.0347
  142loPI   C5A 2267  16.196  14.125   7.401  0.2456  0.0953 -0.2459
  142loPI   C6A 2268  15.990  14.365   7.165 -0.2153 -0.0486  0.1639
  142loPI   C1B 2269  15.512  13.853   8.785 -0.0103  0.0446 -0.1415
  142loPI   C2B 2270  15.499  13.984   8.302 -0.0549 -0.0956 -0.2283
  142loPI   C3B 2271  15.570  14.276   7.926  0.0198  0.1010 -0.1769
  142loPI   C4B 2272  15.662  14.325   7.513  0.0949 -0.2006  0.1235
  143loPI    C1 2273  17.852   5.434  10.188 -0.0489 -0.3175 -0.1192
  143loPI    C2 2274  17.788   5.171  10.483 -0.2287  0.0186  0.1499
  143loPI    C3 2275  17.955   5.525  10.564 -0.1633  0.0661 -0.1766
  143loPI   PO4 2276  17.995   5.289  10.013 -0.0078 -0.3154  0.0747
  143loPI   GL1 2277  18.101   5.371   9.617 -0.1857  0.2076  0.0371
  143loPI   GL2 2278  18.088   5.134   9.401  0.1980 -0.0069  0.4010
  143loPI   C1A 2279  18.263   5.545   9.081  0.4590  0.0221 -0.2610
  143loPI   C2A 2280  18.107   5.653   8.656  0.0172  0.0910 -0.0270
  143loPI   C3A 2281  18.055   5.810   8.247  0.2017 -0.1526  0.1898
  143loPI   C4A 2282  18.039   6.001   7.865 -0.1666 -0.1572 -0.1181
  143loPI   C5A 2283  18.103   6.429   7.846 -0.1118  0.0793  0.1379
  143loPI   C6A 2284  18.231   6.760   8.114  0.1883  0.2444 -0.3182
  143loPI   C1B 2285  18.199   4.973   9.013 -0.0513  0.1692 -0.1547
  143loPI   C2B 2286  18.282   4.951   8.558 -0.3059  0.0335  0.0274
  143loPI   C3B 2287  18.188   5.077   8.054  0.0542 -0.1249 -0.3156
  143loPI   C4B 2288  18.186   5.310   7.651 -0.1045 -0.1366 -0.0291
  144loPI    C1 2289  11.532  19.112   9.917 -0.0091  0.0423 -0.0309
  144loPI    C2 2290  11.343  19.170   9.569  0.0260 -0.2630 -0.1029
  144loPI    C3 2291  11.380  19.472   9.828  0.0636 -0.0130 -0.3939
  144loPI   PO4 2292  11.687  18.890   9.797  0.1335  0.2742 -0.2794
  144loPI   GL1 2293  11.801  18.900   9.477  0.2245 -0.1260  0.1155
  144loPI   GL2 2294  11.971  18.604   9.427  0.1503 -0.0236 -0.1133
  144loPI   C1A 2295  11.612  18.978   9.158 -0.2456 -0.1437 -0.0171
  144loPI   C2A 2296  11.746  19.003   8.783  0.0974  0.0386  0.1312
  144loPI   C3A 2297  11.736  18.922   8.290 -0.2087 -0.1222 -0.2371
  144loPI   C4A 2298  11.586  18.742   7.989 -0.0697 -0.1891  0.2577
  144loPI   C5A 2299  11.505  18.794   7.549  0.2187 -0.1325  0.1243
  144loPI   C6A 2300  11.390  18.450   7.227  0.0503 -0.0684  0.1898
  144loPI   C1B 2301  11.719  18.478   9.097  0.1351  0.3146  0.1224
  144loPI   C2B 2302  11.489  18.522   8.816 -0.0861 -0.2502  0.0141
  144loPI   C3B 2303  11.465  18.430   8.408  0.3795 -0.0838  0.1153
  144loPI   C4B 2304  11.444  18.102   8.116  0.0470 -0.1480 -0.1837
  145loPI    C1 2305  15.711   7.102   9.912 -0.1155 -0.0885 -0.0853
  145loPI    C2 2306  15.652   7.272  10.270 -0.1750 -0.1680 -0.0572
  145loPI    C3 2307  16.022   7.244  10.120 -0.1668  0.0020 -0.0699
  145loPI   PO4 2308  15.534   7.190   9.798  0.0188  0.2293  0.0347
  145loPI   GL1 2309  15.278   7.253   9.335  0.0875 -0.1552  0.1209
  145loPI   GL2 2310  15.087   7.598   9.283 -0.0036 -0.1194 -0.1381
  145loPI   C1A 2311  15.018   7.212   9.007 -0.1466 -0.1647 -0.1715
  145loPI   C2A 2312  14.801   7.431   8.716  0.3281  0.2488  0.0889
  145loPI   C3A 2313  14.678   7.313   8.327  0.2758 -0.1311  0.3562
  145loPI   C4A 2314  14.750   7.434   7.821 -0.1980 -0.2068  0.0381
  145loPI   C5A 2315  14.595   7.753   7.450 -0.2467 -0.2381  0.2227
  145loPI   C6A 2316  14.432   7.938   7.088 -0.0027  0.0384  0.0899
  145loPI   C1B 2317  15.270   7.715   8.947 -0.0708  0.0901  0.2093
  145loPI   C2B 2318  15.298   7.692   8.490 -0.3894 -0.1345  0.2513
  145loPI   C3B 2319  15.156   7.783   8.013  0.1250 -0.1136 -0.3136
  145loPI   C4B 2320  15.113   8.070   7.674  0.1995 -0.4838 -0.0308
  146loPI    C1 2321   9.835   5.734  10.327 -0.2962  0.3874 -0.0871
  146loPI    C2 2322  10.195   5.906  10.296 -0.0235 -0.1443  0.0202
  146loPI    C3 2323  10.045   5.821  10.656 -0.2212 -0.0015 -0.0272
  146loPI   PO4 2324   9.705   5.822  10.136 -0.0337  0.4769  0.2871
  146loPI   GL1 2325   9.829   5.799   9.716 -0.2727  0.1663 -0.3983
  146loPI   GL2 2326   9.557   6.038   9.672  0.0904  0.0787 -0.0534
  146loPI   C1A 2327   9.958   6.100   9.359  0.0756 -0.3296 -0.4000
  146loPI   C2A 2328  10.346   6.196   9.149  0.2418  0.1290 -0.0556
  146loPI   C3A 2329  10.563   5.942   8.805  0.4299 -0.0108  0.2359
  146loPI   C4A 2330  10.563   6.007   8.316  0.0336 -0.0774 -0.0668
  146loPI   C5A 2331  10.691   5.935   7.851  0.0143 -0.0732 -0.1819
  146loPI   C6A 2332  10.862   5.552   7.785  0.0995 -0.0646 -0.2987
  146loPI   C1B 2333   9.424   6.126   9.295 -0.1983  0.3717  0.1400
  146loPI   C2B 2334   9.729   6.265   8.953  0.0832 -0.3091  0.1431
  146loPI   C3B 2335  10.038   6.381   8.780 -0.1939  0.1320 -0.1190
  146loPI   C4B 2336   9.889   6.756   8.482 -0.2853 -0.2906 -0.3122
  147loPI    C1 2337   9.401  15.370   9.976 -0.2247 -0.1419  0.0273
  147loPI    C2 2338   9.156  15.685  10.009 -0.1039 -0.0403 -0.0386
  147loPI    C3 2339   9.367  15.562  10.326 -0.0085  0.0626 -0.0616
  147loPI   PO4 2340   9.342  15.214   9.904  0.2214  0.1683  0.0345
  147loPI   GL1 2341   9.149  15.030   9.548  0.0759 -0.0563 -0.3212
  147loPI   GL2 2342   9.451  14.816   9.426  0.3397 -0.3186 -0.0954
  147loPI   C1A 2343   9.052  15.075   9.095  0.0675  0.1526 -0.1762
  147loPI   C2A 2344   8.807  14.912   8.745  0.0671  0.2650  0.1698
  147loPI   C3A 2345   8.756  14.766   8.271  0.1444  0.2943  0.0037
  147loPI   C4A 2346   8.488  14.651   7.922  0.0135 -0.0906 -0.0692
  147loPI   C5A 2347   8.325  14.824   7.516  0.0461 -0.2997 -0.2956
  147loPI   C6A 2348   8.432  15.028   7.109 -0.3925  0.1744 -0.0162
  147loPI   C1B 2349   9.701  14.711   9.070 -0.1608  0.0566 -0.2143
  147loPI   C2B 2350   9.772  14.517   8.660 -0.0629 -0.0485 -0.3385
  147loPI   C3B 2351   9.760  14.369   8.282  0.0158  0.0403  0.2373
  147loPI   C4B 2352   9.786  14.176   7.855 -0.0662 -0.0568 -0.3963
  148loPI    C1 2353   7.539   9.829   9.972 -0.2879  0.1444 -0.1747
  148loPI    C2 2354   7.258  10.054  10.146 -0.2223  0.0806  0.0164
  148loPI    C3 2355   7.435   9.761  10.352 -0.0808  0.0604 -0.1317
  148loPI   PO4 2356   7.352   9.728   9.700 -0.3103  0.1029  0.0866
  148loPI   GL1 2357   7.049   9.655   9.380 -0.2700 -0.0365  0.2148
  148loPI   GL2 2358   7.270   9.539   9.245  0.0554 -0.0508 -0.0825
  148loPI   C1A 2359   6.858   9.574   8.943  0.3642 -0.4885 -0.0923
  148loPI   C2A 2360   6.932   9.464   8.576 -0.0310  0.2814  0.2544
  148loPI   C3A 2361   6.706   9.466   8.175 -0.2713  0.1610  0.1419
  148loPI   C4A 2362   6.422   9.624   7.959  0.2030  0.2227  0.1248
  148loPI   C5A 2363   6.380   9.696   7.553 -0.2309  0.0898 -0.3304
  148loPI   C6A 2364   6.004   9.658   7.343  0.1777 -0.0061 -0.0500
  148loPI   C1B 2365   7.356   9.587   8.785 -0.0216  0.0305  0.2663
  148loPI   C2B 2366   7.373   9.615   8.347  0.5316 -0.0564 -0.1631
  148loPI   C3B 2367   7.622   9.549   8.041  0.0501 -0.0088 -0.0367
  148loPI   C4B 2368   7.817   9.357   7.603  0.0998 -0.0383  0.1656
  149loPI    C1 2369   5.025  10.940   9.560  0.0284 -0.0327 -0.1607
  149loPI    C2 2370   5.144  10.827   9.925  0.0751 -0.1709 -0.2183
  149loPI    C3 2371   5.192  11.206   9.808 -0.0477 -0.0985 -0.0378
  149loPI   PO4 2372   5.200  10.814   9.351 -0.0798 -0.1256  0.2572
  149loPI   GL1 2373   5.415  11.015   9.116 -0.3365 -0.0784  0.1523
  149loPI   GL2 2374   5.679  11.143   9.004  0.0190 -0.1455  0.1486
  149loPI   C1A 2375   5.374  11.075   8.649  0.1317 -0.0693  0.1530
  149loPI   C2A 2376   5.395  10.992   8.210 -0.0304  0.1019 -0.2416
  149loPI   C3A 2377   5.520  10.683   7.834  0.0598 -0.3322  0.6252
  149loPI   C4A 2378   5.515  10.369   7.481 -0.1837 -0.2532 -0.0839
  149loPI   C5A 2379   5.530   9.890   7.402  0.0861  0.2621  0.3584
  149loPI   C6A 2380   5.332   9.499   7.333  0.0204  0.0805 -0.1458
  149loPI   C1B 2381   5.593  11.501   8.845 -0.0687 -0.1429  0.2447
  149loPI   C2B 2382   5.613  11.606   8.382 -0.0401  0.0650 -0.1623
  149loPI   C3B 2383   5.385  11.743   8.058  0.2615  0.2047 -0.1513
  149loPI   C4B 2384   5.361  11.911   7.552 -0.0141 -0.1768 -0.4068
  150loPI    C1 2385   3.808  12.870   9.338  0.2231  0.0768 -0.0283
  150loPI    C2 2386   3.827  12.527   9.544  0.0214  0.1419  0.1012
  150loPI    C3 2387   3.908  12.874   9.725  0.0753  0.1776  0.0095
  150loPI   PO4 2388   3.540  12.892   9.231  0.3414 -0.3605 -0.3614
  150loPI   GL1 2389   3.389  12.829   8.864 -0.1087 -0.3026 -0.1301
  150loPI   GL2 2390   3.079  12.983   8.768  0.0060  0.0742  0.0156
  150loPI   C1A 2391   3.497  13.113   8.537 -0.1896 -0.1853 -0.1759
  150loPI   C2A 2392   3.506  13.320   8.138  0.0138 -0.1093 -0.0196
  150loPI   C3A 2393   3.834  13.386   7.880  0.2838  0.1746  0.0535
  150loPI   C4A 2394   4.198  13.395   7.560 -0.2035  0.1255 -0.0300
  150loPI   C5A 2395   4.370  13.827   7.351 -0.0153  0.0943 -0.1486
  150loPI   C6A 2396   4.403  14.330   7.169 -0.4576  0.1859 -0.3492
  150loPI   C1B 2397   3.170  12.836   8.344 -0.2231  0.3117 -0.0410
  150loPI   C2B 2398   3.226  12.935   7.867 -0.1564  0.1888  0.4111
  150loPI   C3B 2399   3.212  12.734   7.472  0.3146  0.0919  0.0286
  150loPI   C4B 2400   3.288  12.595   7.048 -0.1517  0.1580  0.1365
  151loPI    C1 2401  12.257  14.646  10.054  0.1367  0.1038  0.0718
  151loPI    C2 2402  12.603  14.618   9.855  0.1854  0.1183  0.1542
  151loPI    C3 2403  12.554  14.902  10.132  0.0856  0.1551  0.0993
  151loPI   PO4 2404  12.101  14.412   9.922  0.0881 -0.0397 -0.0637
  151loPI   GL1 2405  12.012  14.315   9.517  0.3284 -0.4207  0.3147
  151loPI   GL2 2406  12.362  14.168   9.597  0.0015 -0.2641  0.1555
  151loPI   C1A 2407  11.852  14.517   9.086  0.2861  0.2849  0.2296
  151loPI   C2A 2408  11.692  14.612   8.556  0.1422  0.3093 -0.2059
  151loPI   C3A 2409  11.595  14.643   8.110  0.1613  0.0110  0.0525
  151loPI   C4A 2410  11.779  14.530   7.720  0.0906  0.1456  0.3329
  151loPI   C5A 2411  11.963  14.436   7.375  0.1110 -0.3221 -0.1911
  151loPI   C6A 2412  12.008  14.606   6.907 -0.4536  0.1230  0.0695
  151loPI   C1B 2413  12.377  14.394   9.134  0.0958  0.0170  0.0217
  151loPI   C2B 2414  12.213  14.435   8.672 -0.2699 -0.2208 -0.2701
  151loPI   C3B 2415  12.026  14.176   8.486  0.1127  0.1761  0.1099
  151loPI   C4B 2416  11.628  14.095   8.239  0.1738 -0.1701 -0.0573
  152loPI    C1 2417   2.023   0.472  10.511  0.1196  0.0502  0.1603
  152loPI    C2 2418   1.970   0.300  10.869 -0.0794 -0.0660  0.0767
  152loPI    C3 2419   1.745   0.612  10.762 -0.0178 -0.0293  0.0536
  152loPI   PO4 2420   2.001   0.327  10.272  0.0465  0.1824 -0.1739
  152loPI   GL1 2421   1.905   0.378   9.873 -0.2512  0.0672  0.0908
  152loPI   GL2 2422   1.806   0.120   9.763 -0.1865  0.3284  0.2341
  152loPI   C1A 2423   2.096   0.458   9.488  0.5099  0.2607 -0.1183
  152loPI   C2A 2424   2.038   0.538   9.067 -0.0305 -0.0394  0.0343
  152loPI   C3A 2425   2.106   0.508   8.570  0.1554  0.1026  0.1771
  152loPI   C4A 2426   2.056   0.608   8.160  0.3385 -0.0597  0.0231
  152loPI   C5A 2427   1.979   0.666   7.713 -0.1781  0.1451 -0.0869
  152loPI   C6A 2428   1.973   0.700   7.282  0.1680 -0.3073  0.0652
  152loPI   C1B 2429   1.812   0.038   9.356 -0.0574 -0.2403  0.1740
  152loPI   C2B 2430   1.715  -0.318   9.152  0.4973 -0.2696 -0.1190
  152loPI   C3B 2431   1.444  -0.292   8.764  0.2171 -0.0098 -0.1895
  152loPI   C4B 2432   1.334   0.013   8.498  0.0793  0.0578 -0.3520
  153loPI    C1 2433   0.399   0.954  10.362  0.0125 -0.2101 -0.3535
  153loPI    C2 2434   0.021   1.040  10.460  0.1671 -0.0221  0.1027
  153loPI    C3 2435   0.158   0.666  10.499  0.0758 -0.0563  0.0979
  153loPI   PO4 2436   0.462   1.051  10.164  0.0743  0.0103 -0.1127
  153loPI   GL1 2437   0.374   1.148   9.681 -0.0541  0.1887 -0.2872
  153loPI   GL2 2438   0.145   1.376   9.662  0.0357  0.0308 -0.2313
  153loPI   C1A 2439   0.352   0.821   9.357 -0.0798 -0.3024  0.4262
  153loPI   C2A 2440   0.273   0.458   9.022  0.1098 -0.3804 -0.2191
  153loPI   C3A 2441   0.562   0.191   8.810  0.0699  0.2055 -0.1645
  153loPI   C4A 2442   0.810   0.028   8.492  0.0923 -0.1481  0.2477
  153loPI   C5A 2443   0.957  -0.126   8.170 -0.0355  0.1157  0.0245
  153loPI   C6A 2444   0.757  -0.235   7.801  0.2796  0.0501 -0.1294
  153loPI   C1B 2445   0.043   1.197   9.291  0.0233 -0.0626 -0.2178
  153loPI   C2B 2446   0.095   1.071   8.854  0.1279  0.0862 -0.3602
  153loPI   C3B 2447   0.304   0.931   8.453  0.1823 -0.3340  0.0861
  153loPI   C4B 2448   0.570   0.801   8.066 -0.1778  0.0270 -0.1070
  154loPI    C1 2449  18.453  13.081   9.651 -0.1073 -0.0458 -0.0856
  154loPI    C2 2450  18.178  12.812   9.760  0.0179 -0.1913 -0.1254
  154loPI    C3 2451  18.249  13.130   9.992 -0.3074 -0.0585 -0.2020
  154loPI   PO4 2452  18.432  13.026   9.347 -0.2487 -0.0424 -0.1899
  154loPI   GL1 2453  18.680  12.715   9.033  0.0988 -0.2659 -0.2039
  154loPI   GL2 2454  18.953  12.710   9.007  0.0014  0.0638  0.1076
  154loPI   C1A 2455  18.460  12.822   8.655  0.1262  0.4270  0.1402
  154loPI   C2A 2456  18.229  12.959   8.202  0.6059 -0.2636 -0.1015
  154loPI   C3A 2457  18.225  12.959   7.722 -0.1339 -0.0207 -0.1148
  154loPI   C4A 2458  18.409  13.052   7.303  0.0598  0.1312  0.1318
  154loPI   C5A 2459  18.822  13.052   7.109 -0.0483  0.0379 -0.2275
  154loPI   C6A 2460  19.001  13.284   6.830  0.0077  0.1153 -0.0159
  154loPI   C1B 2461  19.364  12.814   8.913  0.0221 -0.1215  0.0828
  154loPI   C2B 2462  19.397  12.893   8.428  0.0115  0.2533  0.0106
  154loPI   C3B 2463  19.383  12.572   8.082 -0.0812  0.2752 -0.0424
  154loPI   C4B 2464  19.066  12.359   7.906 -0.1727  0.2028  0.1328
  155loPI    C1 2465   8.608   6.468  10.150  0.0642  0.0957 -0.1641
  155loPI    C2 2466   8.978   6.544  10.282 -0.0471  0.1008  0.1528
  155loPI    C3 2467   8.785   6.216  10.406 -0.2572  0.2466  0.2182
  155loPI   PO4 2468   8.637   6.618   9.952 -0.0829 -0.0507  0.1113
  155loPI   GL1 2469   8.737   6.969   9.582  0.1839  0.0128  0.1876
  155loPI   GL2 2470   9.033   7.051   9.591  0.0758 -0.1965 -0.4762
  155loPI   C1A 2471   8.764   6.716   9.283  0.0525  0.1053  0.2256
  155loPI   C2A 2472   8.478   6.431   9.124  0.2484 -0.1680 -0.1932
  155loPI   C3A 2473   8.267   6.169   8.690 -0.0900 -0.2323  0.1325
  155loPI   C4A 2474   8.110   6.116   8.303  0.1421  0.2107  0.1523
  155loPI   C5A 2475   8.023   5.887   7.979  0.0746 -0.2463  0.0729
  155loPI   C6A 2476   7.974   5.713   7.558 -0.1784  0.0957 -0.0368
  155loPI   C1B 2477   9.062   7.001   9.078 -0.2025  0.1735  0.0381
  155loPI   C2B 2478   9.209   7.049   8.778  0.4051  0.2050  0.4026
  155loPI   C3B 2479   9.295   6.936   8.433  0.1765 -0.0752 -0.3376
  155loPI   C4B 2480   9.417   6.769   8.067 -0.1295 -0.0167 -0.2692
  156loPI    C1 2481  17.375  15.845  10.133  0.2817  0.1119  0.0156
  156loPI    C2 2482  17.676  15.764  10.383  0.0255 -0.0386  0.2828
  156loPI    C3 2483  17.309  15.629  10.463 -0.1092  0.1158 -0.0553
  156loPI   PO4 2484  17.447  16.065   9.981 -0.2368 -0.0778 -0.2615
  156loPI   GL1 2485  17.589  16.146   9.477 -0.1889 -0.1128 -0.0675
  156loPI   GL2 2486  17.315  16.276   9.579  0.3099 -0.1454  0.1628
  156loPI   C1A 2487  17.553  16.277   9.123  0.0574 -0.1546 -0.0293
  156loPI   C2A 2488  17.484  16.560   8.786  0.1231 -0.0757 -0.2029
  156loPI   C3A 2489  17.439  16.621   8.346  0.1217 -0.1124 -0.4653
  156loPI   C4A 2490  17.406  16.469   7.928 -0.0240 -0.0341  0.0048
  156loPI   C5A 2491  17.293  16.310   7.503  0.0446  0.3985  0.0497
  156loPI   C6A 2492  17.007  16.257   7.272  0.0525  0.0344  0.1485
  156loPI   C1B 2493  17.134  16.570   9.163 -0.2706  0.0415 -0.0931
  156loPI   C2B 2494  17.046  16.625   8.681 -0.0215  0.0064 -0.0753
  156loPI   C3B 2495  17.013  16.494   8.240 -0.2140 -0.0974  0.0316
  156loPI   C4B 2496  16.918  16.502   7.726  0.1611 -0.1801  0.3999
  157loPI    C1 2497  15.650  17.938  10.029  0.2539 -0.0177  0.0174
  157loPI    C2 2498  15.727  18.328   9.981  0.0836  0.0216  0.0579
  157loPI    C3 2499  15.873  18.133  10.298  0.1726  0.0515  0.0353
  157loPI   PO4 2500  15.623  17.877   9.735 -0.0687  0.1288 -0.0616
  157loPI   GL1 2501  15.305  17.662   9.365  0.0365  0.2299  0.1125
  157loPI   GL2 2502  14.995  17.659   9.381  0.1750  0.3608  0.0155
  157loPI   C1A 2503  15.423  17.920   8.976 -0.0500 -0.1509  0.0717
  157loPI   C2A 2504  15.267  18.059   8.664 -0.2516  0.1851 -0.1542
  157loPI   C3A 2505  15.529  18.397   8.464  0.0137 -0.3344  0.0874
  157loPI   C4A 2506  15.721  18.669   8.222  0.0128 -0.0791  0.1321
  157loPI   C5A 2507  15.716  18.548   7.792 -0.2668 -0.0660 -0.0852
  157loPI   C6A 2508  15.644  18.352   7.344 -0.4492  0.5057 -0.1837
  157loPI   C1B 2509  14.990  17.658   8.951  0.1889 -0.0972  0.2011
  157loPI   C2B 2510  15.161  17.630   8.461 -0.0938  0.2533 -0.1736
  157loPI   C3B 2511  15.220  17.716   7.945 -0.2083  0.1532  0.0217
  157loPI   C4B 2512  15.005  17.858   7.462  0.3713  0.0637 -0.1045
  158loPI    C1 2513  16.951  16.822  10.381  0.2043  0.0451 -0.0593
  158loPI    C2 2514  16.873  17.182  10.226 -0.0610  0.0877  0.1634
  158loPI    C3 2515  16.821  17.118  10.617 -0.1542 -0.2329  0.1014
  158loPI   PO4 2516  16.853  16.669  10.191  0.2702 -0.1063 -0.0796
  158loPI   GL1 2517  16.916  16.560   9.864  0.1856 -0.2972 -0.2289
  158loPI   GL2 2518  16.813  16.241   9.668 -0.1810 -0.0627  0.1297
  158loPI   C1A 2519  16.772  16.759   9.476  0.3222 -0.1116  0.2243
  158loPI   C2A 2520  16.633  16.707   8.996  0.0548 -0.0039 -0.0831
  158loPI   C3A 2521  16.519  16.553   8.527 -0.0617  0.0321  0.0918
  158loPI   C4A 2522  16.618  16.780   8.264 -0.2029 -0.1901 -0.0185
  158loPI   C5A 2523  16.648  17.025   7.947 -0.1746 -0.1589 -0.0969
  158loPI   C6A 2524  16.525  17.220   7.579  0.1729  0.5256 -0.4885
  158loPI   C1B 2525  16.842  16.195   9.249  0.0500  0.1602  0.0576
  158loPI   C2B 2526  16.464  16.225   8.913  0.0826  0.1251 -0.0081
  158loPI   C3B 2527  16.226  16.146   8.599  0.0430  0.2034  0.1200
  158loPI   C4B 2528  15.817  16.172   8.408  0.0392  0.0146 -0.0380
  159loPI    C1 2529   5.399   7.081  10.124  0.2365  0.0493  0.1846
  159loPI    C2 2530   5.254   6.733  10.256 -0.2170  0.0697 -0.2323
  159loPI    C3 2531   5.242   7.056  10.491 -0.0472 -0.1282  0.0548
  159loPI   PO4 2532   5.434   7.045   9.889  0.0895 -0.0773  0.3083
  159loPI   GL1 2533   5.198   7.145   9.443  0.1742  0.0563  0.1657
  159loPI   GL2 2534   4.970   6.934   9.373  0.1520 -0.0972  0.2483
  159loPI   C1A 2535   5.460   7.100   9.023 -0.2796 -0.2023 -0.2654
  159loPI   C2A 2536   5.701   7.380   8.696 -0.1848  0.4984 -0.1322
  159loPI   C3A 2537   5.661   7.533   8.348 -0.1745  0.3419  0.0994
  159loPI   C4A 2538   5.743   7.564   7.904 -0.1725 -0.0658  0.1222
  159loPI   C5A 2539   5.570   7.854   7.642 -0.5183 -0.0361 -0.0306
  159loPI   C6A 2540   5.744   8.264   7.649 -0.0333  0.3298  0.0369
  159loPI   C1B 2541   4.543   7.012   9.114  0.0875 -0.0474  0.0109
  159loPI   C2B 2542   4.521   6.950   8.673  0.0222 -0.0242 -0.0038
  159loPI   C3B 2543   4.530   6.967   8.196 -0.0219  0.1664  0.4256
  159loPI   C4B 2544   4.511   6.806   7.773  0.2124  0.0112  0.2354
  160loPI    C1 2545   5.769   2.160  10.117 -0.0618  0.0173 -0.1273
  160loPI    C2 2546   5.620   2.154  10.488  0.0685  0.1933 -0.0704
  160loPI    C3 2547   6.008   2.078  10.428  0.0503  0.1785 -0.1697
  160loPI   PO4 2548   5.524   2.311   9.996  0.1093 -0.0902  0.1877
  160loPI   GL1 2549   5.305   2.230   9.641  0.1739  0.1247  0.0420
  160loPI   GL2 2550   5.629   2.249   9.447  0.1807 -0.0078  0.0623
  160loPI   C1A 2551   5.167   2.389   9.264 -0.0568  0.2387 -0.2062
  160loPI   C2A 2552   5.095   2.376   8.839  0.1356 -0.1731 -0.2832
  160loPI   C3A 2553   5.064   2.466   8.359 -0.1401 -0.0004 -0.2081
  160loPI   C4A 2554   5.006   2.413   7.891 -0.0444  0.1356 -0.2751
  160loPI   C5A 2555   5.232   2.340   7.609 -0.4378 -0.0679  0.2086
  160loPI   C6A 2556   5.529   2.649   7.410  0.0197  0.1297 -0.3715
  160loPI   C1B 2557   5.594   2.311   9.016 -0.0963  0.1720  0.1812
  160loPI   C2B 2558   5.681   2.493   8.686 -0.0379  0.0309  0.1961
  160loPI   C3B 2559   5.682   2.479   8.228 -0.0905 -0.1762 -0.0166
  160loPI   C4B 2560   5.936   2.766   7.791 -0.2221  0.2054  0.0442
  161loPI    C1 2561  19.026   1.870  10.429 -0.0135 -0.1867 -0.0845
  161loPI    C2 2562  18.819   2.194  10.318 -0.1877 -0.3326 -0.1906
  161loPI    C3 2563  18.775   2.045  10.686  0.0521 -0.1135 -0.0700
  161loPI   PO4 2564  19.086   1.767  10.180  0.0592  0.2465  0.0054
  161loPI   GL1 2565  19.304   1.780   9.876 -0.0946  0.0721  0.2342
  161loPI   GL2 2566  19.292   2.091   9.757  0.0621 -0.0092  0.0061
  161loPI   C1A 2567  19.341   1.720   9.425 -0.1200  0.3101 -0.2293
  161loPI   C2A 2568  19.517   1.637   9.031 -0.0026 -0.1003  0.1598
  161loPI   C3A 2569  19.576   1.502   8.599 -0.1120 -0.1585  0.1746
  161loPI   C4A 2570  19.757   1.414   8.176  0.2474 -0.0412  0.0280
  161loPI   C5A 2571  19.774   1.615   7.774  0.2538  0.0259  0.0351
  161loPI   C6A 2572  19.977   1.808   7.498 -0.0563  0.0391  0.2319
  161loPI   C1B 2573  19.131   2.226   9.443  0.3084  0.0885  0.4271
  161loPI   C2B 2574  19.062   2.479   8.953  0.0020  0.0211  0.2152
  161loPI   C3B 2575  18.995   2.584   8.500  0.0351 -0.1154  0.1781
  161loPI   C4B 2576  19.209   2.569   8.073  0.1881 -0.1692  0.0108
  162loPI    C1 2577   4.260  14.713   9.879  0.0676 -0.0869  0.0064
  162loPI    C2 2578   3.925  14.573  10.046 -0.0450  0.0795 -0.0778
  162loPI    C3 2579   4.118  14.882  10.212  0.1380 -0.0965  0.0416
  162loPI   PO4 2580   4.168  14.780   9.513  0.0525 -0.1667  0.0707
  162loPI   GL1 2581   4.453  14.658   9.124 -0.0174 -0.0429  0.1219
  162loPI   GL2 2582   4.383  14.453   8.929 -0.1195  0.3322 -0.2666
  162loPI   C1A 2583   4.690  14.931   8.828 -0.2000  0.0087 -0.0731
  162loPI   C2A 2584   4.592  14.966   8.389 -0.2425 -0.1808 -0.0115
  162loPI   C3A 2585   4.584  14.871   7.991 -0.2316 -0.1166  0.1426
  162loPI   C4A 2586   4.493  14.840   7.465  0.1040  0.1397  0.1082
  162loPI   C5A 2587   4.509  15.070   7.079  0.0493 -0.3796 -0.1117
  162loPI   C6A 2588   4.762  15.380   6.855  0.2883  0.0593  0.1518
  162loPI   C1B 2589   4.458  14.476   8.504 -0.1066  0.0910 -0.1620
  162loPI   C2B 2590   4.508  14.394   7.966 -0.0851  0.1710  0.1605
  162loPI   C3B 2591   4.268  14.316   7.685 -0.0219  0.0877  0.2371
  162loPI   C4B 2592   4.032  14.638   7.323 -0.0223 -0.2311 -0.0712
  163loPI    C1 2593  15.775   8.338   9.926 -0.0879  0.2147  0.1184
  163loPI    C2 2594  15.714   8.611   9.640  0.1060  0.0892 -0.0449
  163loPI    C3 2595  15.404   8.411   9.795 -0.0308  0.3585  0.0344
  163loPI   PO4 2596  15.911   8.179   9.898  0.2914  0.2913  0.2587
  163loPI   GL1 2597  15.988   7.917   9.497  0.0490  0.2957 -0.2024
  163loPI   GL2 2598  15.854   8.114   9.385  0.3459 -0.1353  0.1116
  163loPI   C1A 2599  16.119   7.806   9.059 -0.0747 -0.0986 -0.0479
  163loPI   C2A 2600  16.282   7.699   8.685 -0.1559 -0.0233 -0.1487
  163loPI   C3A 2601  16.231   7.703   8.285  0.0541  0.1518 -0.0714
  163loPI   C4A 2602  16.344   7.658   7.843  0.0800 -0.0695 -0.0977
  163loPI   C5A 2603  16.200   7.594   7.368 -0.1165  0.2386  0.0887
  163loPI   C6A 2604  16.245   7.889   7.009  0.0522  0.1443 -0.1017
  163loPI   C1B 2605  15.715   8.035   9.047 -0.0451 -0.0183 -0.0894
  163loPI   C2B 2606  15.866   7.954   8.686  0.3009 -0.3557  0.0091
  163loPI   C3B 2607  15.727   7.882   8.253 -0.2484 -0.0843  0.2517
  163loPI   C4B 2608  15.624   8.025   7.952  0.2362  0.1329  0.0368
  164loPI    C1 2609   6.237  14.193   9.845 -0.3315 -0.1616 -0.1662
  164loPI    C2 2610   6.014  14.464  10.037 -0.0497 -0.1024  0.0844
  164loPI    C3 2611   5.931  14.074  10.073 -0.1193 -0.0802  0.1680
  164loPI   PO4 2612   6.249  14.313   9.536  0.0891 -0.1583  0.1761
  164loPI   GL1 2613   5.930  14.182   9.139 -0.2272 -0.2240  0.0470
  164loPI   GL2 2614   6.130  13.935   8.957  0.4020 -0.4912 -0.0843
  164loPI   C1A 2615   5.778  14.329   8.882  0.0197 -0.1041 -0.0092
  164loPI   C2A 2616   5.796  14.442   8.434 -0.2619  0.1844 -0.1038
  164loPI   C3A 2617   5.614  14.583   8.029 -0.2329 -0.0369  0.1127
  164loPI   C4A 2618   5.439  14.711   7.655  0.0111 -0.1359 -0.0617
  164loPI   C5A 2619   5.447  14.911   7.229  0.1490  0.2476 -0.2631
  164loPI   C6A 2620   5.744  14.958   6.851 -0.2236  0.0690 -0.4104
  164loPI   C1B 2621   6.211  13.966   8.462 -0.1386  0.0141  0.0240
  164loPI   C2B 2622   6.279  14.101   8.051  0.1887  0.1081 -0.5817
  164loPI   C3B 2623   6.320  13.938   7.624 -0.1300  0.1613 -0.4182
  164loPI   C4B 2624   6.159  13.951   7.307  0.1006  0.2464  0.1774
  165loPI    C1 2625  14.393   6.981   9.986  0.1249 -0.1124  0.1980
  165loPI    C2 2626  14.580   7.329  10.047  0.1504 -0.0922  0.0118
  165loPI    C3 2627  14.372   7.159  10.343  0.0196  0.1519  0.0630
  165loPI   PO4 2628  14.571   6.906   9.730  0.0693  0.0874  0.0630
  165loPI   GL1 2629  14.498   6.759   9.390 -0.1425  0.4275 -0.0345
  165loPI   GL2 2630  14.814   6.916   9.347  0.1720 -0.0587 -0.0642
  165loPI   C1A 2631  14.474   6.441   8.997 -0.0598  0.1585  0.1413
  165loPI   C2A 2632  14.203   6.204   8.733  0.2136 -0.2003 -0.0431
  165loPI   C3A 2633  14.011   5.982   8.425 -0.0441  0.0561 -0.2747
  165loPI   C4A 2634  14.014   6.002   8.087  0.1128  0.0907  0.2177
  165loPI   C5A 2635  14.175   5.755   7.788  0.2286 -0.0967  0.3183
  165loPI   C6A 2636  14.094   5.339   7.595 -0.1482  0.1609  0.0706
  165loPI   C1B 2637  14.863   6.711   8.946  0.0779  0.0993  0.0193
  165loPI   C2B 2638  14.832   6.487   8.597 -0.3525 -0.2614  0.0294
  165loPI   C3B 2639  14.736   6.550   8.151  0.3577  0.2426 -0.0110
  165loPI   C4B 2640  14.792   6.424   7.699 -0.0767 -0.1703  0.4943
  166loPI    C1 2641   9.244  12.258   9.796 -0.1309 -0.1396 -0.1918
  166loPI    C2 2642   9.244  12.261  10.196 -0.1374  0.0421 -0.1926
  166loPI    C3 2643   9.175  11.920   9.999  0.2036 -0.1205 -0.0388
  166loPI   PO4 2644   9.531  12.368   9.685 -0.0039  0.0041 -0.1128
  166loPI   GL1 2645   9.678  12.433   9.358  0.2443 -0.0026  0.2911
  166loPI   GL2 2646  10.004  12.535   9.372 -0.0498 -0.0622  0.1223
  166loPI   C1A 2647   9.619  12.466   8.916 -0.0612 -0.3432 -0.1323
  166loPI   C2A 2648   9.518  12.651   8.490  0.1578 -0.1431  0.1059
  166loPI   C3A 2649   9.464  12.582   8.025  0.1823 -0.0769 -0.5299
  166loPI   C4A 2650   9.303  12.478   7.604 -0.1675 -0.1124  0.3808
  166loPI   C5A 2651   8.902  12.550   7.307  0.7196 -0.0219 -0.1185
  166loPI   C6A 2652   8.606  12.850   7.028 -0.0555  0.1926 -0.1821
  166loPI   C1B 2653  10.228  12.533   8.964  0.0690  0.2243 -0.0248
  166loPI   C2B 2654  10.449  12.663   8.615 -0.0667 -0.0090 -0.1497
  166loPI   C3B 2655  10.425  12.790   8.259  0.2803 -0.1686  0.0721
  166loPI   C4B 2656  10.547  12.848   7.842  0.2244  0.0964  0.2051
  167loPI    C1 2657   0.825   9.000   9.494 -0.0557 -0.1494 -0.1864
  167loPI    C2 2658   0.976   9.209   9.800 -0.2493 -0.0048 -0.1879
  167loPI    C3 2659   0.995   8.809   9.802 -0.2081 -0.0029 -0.0091
  167loPI   PO4 2660   0.874   9.015   9.336  0.1261 -0.0325 -0.0982
  167loPI   GL1 2661   0.960   8.866   8.975  0.2448 -0.0664  0.1205
  167loPI   GL2 2662   0.601   8.809   8.803  0.0165 -0.0431  0.1048
  167loPI   C1A 2663   1.055   8.740   8.462 -0.2396 -0.3558 -0.0831
  167loPI   C2A 2664   1.358   8.917   8.114  0.1389 -0.0823  0.1014
  167loPI   C3A 2665   1.458   9.195   7.727 -0.0461  0.0859  0.0875
  167loPI   C4A 2666   1.316   9.246   7.338  0.1907  0.1511 -0.1175
  167loPI   C5A 2667   1.605   9.141   7.023  0.2820  0.4789 -0.0844
  167loPI   C6A 2668   1.755   8.678   6.912  0.2141 -0.2408 -0.2006
  167loPI   C1B 2669   0.843   9.209   8.627 -0.1958 -0.0386  0.2471
  167loPI   C2B 2670   0.954   9.289   8.280  0.0852 -0.1019  0.1043
  167loPI   C3B 2671   0.981   9.306   7.842  0.1156  0.3388 -0.0544
  167loPI   C4B 2672   0.977   9.716   7.586 -0.0579  0.0424 -0.1865
  168loPI    C1 2673   1.157   1.712  10.658 -0.1439  0.0993  0.0682
  168loPI    C2 2674   1.076   1.392  10.884  0.0591 -0.0156 -0.0197
  168loPI    C3 2675   1.278   1.701  11.039  0.1294 -0.0608 -0.0202
  168loPI   PO4 2676   1.082   1.625  10.416 -0.2160 -0.2671  0.0439
  168loPI   GL1 2677   1.217   1.380  10.072  0.0015 -0.0751  0.0047
  168loPI   GL2 2678   1.341   1.146   9.961 -0.3309  0.1683 -0.0197
  168loPI   C1A 2679   1.026   1.556   9.735 -0.1972 -0.1007 -0.0701
  168loPI   C2A 2680   1.030   1.522   9.318 -0.2141  0.1568 -0.0615
  168loPI   C3A 2681   1.015   1.459   8.912  0.4569  0.1172  0.1313
  168loPI   C4A 2682   0.800   1.679   8.599 -0.1296 -0.1863  0.1151
  168loPI   C5A 2683   0.618   1.775   8.268 -0.4572 -0.1403 -0.0007
  168loPI   C6A 2684   0.588   1.977   7.959  0.1537 -0.2308  0.0283
  168loPI   C1B 2685   1.520   1.410   9.565  0.0844 -0.1254  0.0030
  168loPI   C2B 2686   1.573   1.532   9.130 -0.1254  0.2440  0.0179
  168loPI   C3B 2687   1.572   1.432   8.731  0.3188 -0.0046 -0.3877
  168loPI   C4B 2688   1.258   1.389   8.413  0.0038  0.1276  0.2688
  169loPI    C1 2689  17.218  11.473   9.964 -0.0384  0.0380 -0.1546
  169loPI    C2 2690  17.443  11.798  10.024 -0.1947  0.1539 -0.1904
  169loPI    C3 2691  17.100  11.753  10.225 -0.0962 -0.0660 -0.0684
  169loPI   PO4 2692  17.149  11.470   9.729  0.3371  0.0204  0.1262
  169loPI   GL1 2693  16.868  11.675   9.412 -0.1670  0.1586 -0.0467
  169loPI   GL2 2694  16.781  11.925   9.248  0.3339  0.0442  0.0750
  169loPI   C1A 2695  17.049  11.628   8.930  0.0648 -0.0289  0.1530
  169loPI   C2A 2696  17.035  11.639   8.540 -0.1334 -0.0598 -0.2844
  169loPI   C3A 2697  16.859  11.733   8.158 -0.3719  0.3597  0.0227
  169loPI   C4A 2698  16.741  11.742   7.688  0.0537 -0.1970 -0.0921
  169loPI   C5A 2699  16.406  11.906   7.477 -0.0885  0.0087 -0.1045
  169loPI   C6A 2700  16.112  12.321   7.415  0.0254  0.2077 -0.0731
  169loPI   C1B 2701  17.063  12.154   8.926  0.1371 -0.0323  0.1775
  169loPI   C2B 2702  16.993  12.510   8.887  0.0370  0.0740  0.1105
  169loPI   C3B 2703  17.011  12.666   8.440  0.0836  0.1283  0.0873
  169loPI   C4B 2704  17.037  12.538   8.074 -0.0210  0.2492 -0.1354
  170loPI    C1 2705  11.023  15.971   9.978 -0.0302  0.0645  0.0083
  170loPI    C2 2706  10.909  16.354   9.991 -0.1512  0.0329 -0.1085
  170loPI    C3 2707  10.927  16.140  10.328  0.0981  0.1928 -0.0176
  170loPI   PO4 2708  10.887  15.908   9.733  0.2310  0.0231 -0.2093
  170loPI   GL1 2709  10.567  15.917   9.383 -0.4586  0.1051  0.1091
  170loPI   GL2 2710  10.900  16.131   9.176 -0.0661  0.2036 -0.0377
  170loPI   C1A 2711  10.494  16.036   8.885  0.1787  0.1740  0.2785
  170loPI   C2A 2712  10.797  16.296   8.731  0.0621 -0.0638  0.5075
  170loPI   C3A 2713  10.981  16.454   8.266  0.0312  0.1654 -0.1601
  170loPI   C4A 2714  10.778  16.381   7.870 -0.1397  0.2376  0.1528
  170loPI   C5A 2715  10.602  16.407   7.432 -0.0650 -0.1846 -0.2179
  170loPI   C6A 2716  10.359  16.530   7.172 -0.0554  0.0207  0.0843
  170loPI   C1B 2717  11.182  16.293   9.078 -0.0471  0.2131  0.1851
  170loPI   C2B 2718  11.444  16.254   8.726 -0.1020 -0.2183 -0.0734
  170loPI   C3B 2719  11.506  16.176   8.346 -0.3149 -0.0137 -0.0481
  170loPI   C4B 2720  11.687  15.934   7.928  0.0395 -0.0265  0.2428
  171loPI    C1 2721   7.165  13.877   9.847  0.1093  0.0982  0.3247
  171loPI    C2 2722   6.868  13.634   9.961  0.0413 -0.0166 -0.0821
  171loPI    C3 2723   7.175  13.704  10.208 -0.1819 -0.1212  0.2314
  171loPI   PO4 2724   7.216  13.784   9.633 -0.0984  0.0484 -0.1695
  171loPI   GL1 2725   7.401  13.794   9.273 -0.0618  0.1158  0.0244
  171loPI   GL2 2726   7.055  13.833   9.188  0.0077 -0.0163  0.1407
  171loPI   C1A 2727   7.441  13.648   8.902  0.1455 -0.0345  0.2414
  171loPI   C2A 2728   7.618  13.556   8.485  0.0833  0.1180 -0.0106
  171loPI   C3A 2729   7.619  13.621   8.021 -0.2982 -0.0217  0.1296
  171loPI   C4A 2730   7.480  13.558   7.571 -0.0141  0.1008  0.1357
  171loPI   C5A 2731   7.659  13.291   7.220  0.0236  0.1679  0.3232
  171loPI   C6A 2732   7.883  13.121   6.818  0.1412  0.3303 -0.0431
  171loPI   C1B 2733   6.954  13.805   8.846 -0.1206 -0.0743 -0.2828
  171loPI   C2B 2734   7.128  13.561   8.412  0.0303  0.1354  0.0595
  171loPI   C3B 2735   7.070  13.587   7.921 -0.0531 -0.0245  0.0045
  171loPI   C4B 2736   7.024  13.506   7.419 -0.0950  0.3088 -0.1033
  172loPI    C1 2737  14.814   4.466  10.330 -0.0447  0.2862 -0.0735
  172loPI    C2 2738  15.151   4.681  10.344  0.0208  0.1848 -0.0862
  172loPI    C3 2739  15.062   4.428  10.641 -0.0216  0.1776 -0.1050
  172loPI   PO4 2740  14.783   4.399  10.122 -0.1052 -0.0626  0.1013
  172loPI   GL1 2741  14.590   4.339   9.708  0.0371 -0.2362  0.1018
  172loPI   GL2 2742  14.780   4.498   9.572  0.2715 -0.0836  0.3424
  172loPI   C1A 2743  14.328   4.161   9.358 -0.0658 -0.0853  0.3143
  172loPI   C2A 2744  14.299   4.314   8.826 -0.0709 -0.0826  0.0463
  172loPI   C3A 2745  14.273   4.179   8.457 -0.2931  0.2013 -0.1142
  172loPI   C4A 2746  14.187   4.021   8.053  0.3427  0.1033  0.2826
  172loPI   C5A 2747  14.465   3.778   7.817 -0.0111  0.2891 -0.0321
  172loPI   C6A 2748  14.701   3.740   7.492 -0.0910 -0.0688 -0.0799
  172loPI   C1B 2749  14.704   4.378   9.067 -0.2885 -0.1674  0.0482
  172loPI   C2B 2750  14.778   4.301   8.612  0.1898 -0.3202 -0.1500
  172loPI   C3B 2751  14.744   4.160   8.227 -0.1955 -0.1587 -0.1716
  172loPI   C4B 2752  14.876   4.051   7.878  0.1463 -0.0484  0.3287
  173loPI    C1 2753   3.731  15.036   9.592 -0.0344 -0.0829 -0.0095
  173loPI    C2 2754   4.020  15.152   9.843  0.0901 -0.0532 -0.1649
  173loPI    C3 2755   3.666  15.034   9.987  0.1245  0.0632  0.0188
  173loPI   PO4 2756   3.699  15.313   9.427 -0.3401  0.1007  0.0902
  173loPI   GL1 2757   3.879  15.433   9.072 -0.1089  0.2115  0.1432
  173loPI   GL2 2758   4.154  15.196   9.215  0.0129  0.0067  0.0502
  173loPI   C1A 2759   4.122  15.519   8.706 -0.0011  0.0569  0.2770
  173loPI   C2A 2760   4.367  15.383   8.340 -0.0306  0.2274 -0.1865
  173loPI   C3A 2761   4.612  15.375   8.002 -0.3427  0.1276  0.0389
  173loPI   C4A 2762   4.987  15.146   7.987 -0.2594 -0.0187  0.0953
  173loPI   C5A 2763   5.121  14.907   8.162  0.0991 -0.1949  0.0707
  173loPI   C6A 2764   5.356  14.694   8.496 -0.0830  0.0766  0.2046
  173loPI   C1B 2765   4.202  15.055   8.922 -0.1175 -0.2517 -0.2608
  173loPI   C2B 2766   4.133  15.000   8.545 -0.0125  0.0322 -0.0242
  173loPI   C3B 2767   4.194  14.756   8.224  0.2126  0.0159 -0.1381
  173loPI   C4B 2768   4.123  14.743   7.855 -0.4727 -0.2323 -0.0410
  174loPI    C1 2769  19.146  15.092   9.791 -0.0187  0.1275 -0.0645
  174loPI    C2 2770  19.033  14.806  10.047 -0.0205 -0.0147 -0.2225
  174loPI    C3 2771  18.769  14.957   9.787 -0.0950  0.3339  0.0487
  174loPI   PO4 2772  19.436  15.028   9.649  0.0474 -0.1819  0.2276
  174loPI   GL1 2773  19.487  14.856   9.222  0.1491 -0.0857  0.3040
  174loPI   GL2 2774  19.239  14.609   9.088 -0.1677  0.0003 -0.0623
  174loPI   C1A 2775  19.492  14.912   8.815  0.1584 -0.0046 -0.0937
  174loPI   C2A 2776  19.385  14.819   8.460 -0.1089 -0.3470 -0.2499
  174loPI   C3A 2777  19.550  14.955   7.959 -0.2269 -0.1477  0.0142
  174loPI   C4A 2778  19.740  15.035   7.509 -0.2239  0.2358 -0.2147
  174loPI   C5A 2779  20.232  15.034   7.481 -0.0534  0.0116 -0.0565
  174loPI   C6A 2780  20.596  15.314   7.404  0.1490 -0.0859 -0.2803
  174loPI   C1B 2781  19.172  14.411   8.693 -0.1586 -0.0968 -0.0946
  174loPI   C2B 2782  19.306  14.360   8.237 -0.0202 -0.2501 -0.2715
  174loPI   C3B 2783  19.464  14.410   7.830  0.0458  0.0361  0.1630
  174loPI   C4B 2784  19.634  14.550   7.584  0.1043  0.0418  0.1494
  175loPI    C1 2785   1.526   4.947  10.243  0.0641 -0.0687  0.1048
  175loPI    C2 2786   1.192   4.805  10.412 -0.0773  0.0541 -0.0681
  175loPI    C3 2787   1.504   4.907  10.640 -0.1024 -0.2014  0.0835
  175loPI   PO4 2788   1.405   4.864   9.989  0.0502 -0.0334 -0.4555
  175loPI   GL1 2789   1.645   4.695   9.608  0.0730 -0.0008 -0.2305
  175loPI   GL2 2790   1.894   4.423   9.644 -0.1224  0.4891 -0.2121
  175loPI   C1A 2791   1.865   4.727   9.247  0.3369 -0.2143  0.1433
  175loPI   C2A 2792   1.960   4.855   8.880  0.2257 -0.0999  0.0982
  175loPI   C3A 2793   1.854   5.108   8.468 -0.0875  0.0727  0.1938
  175loPI   C4A 2794   1.671   5.526   8.379  0.1547  0.0880  0.1798
  175loPI   C5A 2795   1.670   5.704   8.758  0.2029 -0.2101  0.0195
  175loPI   C6A 2796   1.673   5.648   9.137 -0.3527  0.1378  0.0690
  175loPI   C1B 2797   1.630   4.273   9.266  0.1076 -0.2235 -0.0080
  175loPI   C2B 2798   1.695   4.129   8.843 -0.0615  0.0631 -0.0390
  175loPI   C3B 2799   2.080   4.027   8.672  0.0182  0.1802 -0.1750
  175loPI   C4B 2800   2.572   4.073   8.697  0.1440 -0.1795  0.2264
  176loPI    C1 2801   7.847   2.191  10.309  0.0902 -0.0569 -0.0443
  176loPI    C2 2802   7.892   1.821  10.452  0.2533 -0.0241 -0.0087
  176loPI    C3 2803   8.077   2.128  10.629  0.1561  0.0684 -0.0661
  176loPI   PO4 2804   7.881   2.119  10.043 -0.2149 -0.0786  0.2848
  176loPI   GL1 2805   7.703   2.076   9.629 -0.1793 -0.0019  0.1293
  176loPI   GL2 2806   8.007   2.097   9.467 -0.0419  0.0582  0.3265
  176loPI   C1A 2807   7.587   2.448   9.463 -0.1256  0.1132 -0.2199
  176loPI   C2A 2808   7.515   2.523   8.973  0.2070 -0.3177  0.0898
  176loPI   C3A 2809   7.672   2.444   8.645 -0.1166  0.2489  0.2040
  176loPI   C4A 2810   7.699   2.127   8.298  0.1826 -0.1563  0.0072
  176loPI   C5A 2811   7.708   1.692   8.405 -0.0537  0.1299 -0.1686
  176loPI   C6A 2812   7.680   1.569   8.825  0.2678 -0.2925 -0.0844
  176loPI   C1B 2813   8.022   1.820   9.157  0.0785  0.2165  0.0074
  176loPI   C2B 2814   8.210   1.601   8.808 -0.0396  0.0157  0.0786
  176loPI   C3B 2815   8.207   1.717   8.305  0.1696  0.3806  0.1333
  176loPI   C4B 2816   8.093   1.918   7.964 -0.3765  0.1274  0.4673
  177loPI    C1 2817  12.073   1.788  10.340  0.0358  0.2029 -0.0206
  177loPI    C2 2818  12.464   1.869  10.361  0.0507  0.0954  0.1344
  177loPI    C3 2819  12.244   1.855  10.695 -0.0785  0.1192  0.0512
  177loPI   PO4 2820  12.021   1.897  10.028 -0.1763 -0.0076 -0.0526
  177loPI   GL1 2821  12.053   1.585   9.607  0.2383 -0.0715  0.1709
  177loPI   GL2 2822  12.287   1.441   9.446 -0.0449  0.0836 -0.0956
  177loPI   C1A 2823  12.059   1.893   9.233 -0.1507 -0.0501 -0.1992
  177loPI   C2A 2824  11.915   1.991   8.742 -0.0889  0.0738 -0.1042
  177loPI   C3A 2825  12.018   1.798   8.279  0.4472  0.0160 -0.1759
  177loPI   C4A 2826  11.691   1.595   8.053 -0.1833  0.2810 -0.0031
  177loPI   C5A 2827  11.685   1.324   7.602 -0.2046  0.0021 -0.1368
  177loPI   C6A 2828  11.882   1.173   7.120 -0.1146  0.0251 -0.1683
  177loPI   C1B 2829  12.357   1.275   9.119  0.1156 -0.3551  0.1691
  177loPI   C2B 2830  12.730   1.112   8.922 -0.1810 -0.3175 -0.0720
  177loPI   C3B 2831  13.033   0.939   8.657  0.0522 -0.2339 -0.4016
  177loPI   C4B 2832  13.154   0.493   8.595  0.2360  0.5051 -0.0299
  178loPI    C1 2833   2.793   7.159  10.020 -0.2543 -0.0013  0.0909
  178loPI    C2 2834   2.901   7.213  10.402 -0.0098  0.1324  0.0050
  178loPI    C3 2835   2.700   7.500  10.207  0.0466  0.1498 -0.0277
  178loPI   PO4 2836   2.699   6.881  10.092 -0.0088 -0.0233  0.3462
  178loPI   GL1 2837   2.460   6.766   9.808  0.1810  0.2458  0.2908
  178loPI   GL2 2838   2.518   6.583   9.556 -0.2960  0.0288  0.3132
  178loPI   C1A 2839   2.393   7.008   9.324 -0.0428  0.1899  0.0601
  178loPI   C2A 2840   2.444   6.887   8.961 -0.1653 -0.0056 -0.1051
  178loPI   C3A 2841   2.573   6.870   8.537  0.1294 -0.1048 -0.0324
  178loPI   C4A 2842   2.552   6.790   8.101  0.0689  0.0957 -0.1100
  178loPI   C5A 2843   2.534   6.915   7.754  0.0665  0.1575 -0.0146
  178loPI   C6A 2844   2.488   6.781   7.289 -0.0008 -0.2994  0.2835
  178loPI   C1B 2845   2.744   6.508   9.117 -0.0047 -0.1484 -0.0607
  178loPI   C2B 2846   2.812   6.403   8.634 -0.0547  0.0129  0.2012
  178loPI   C3B 2847   2.896   6.403   8.154 -0.1513 -0.0258  0.1378
  178loPI   C4B 2848   2.681   6.471   7.719  0.1219  0.0384  0.2924
  179loPI    C1 2849  14.137  12.346  10.005 -0.0840 -0.1201  0.1099
  179loPI    C2 2850  13.803  12.567  10.006 -0.0429 -0.0561  0.0038
  179loPI    C3 2851  14.150  12.728  10.123 -0.0478 -0.1214  0.1103
  179loPI   PO4 2852  14.119  12.269   9.715 -0.1714 -0.1684  0.0250
  179loPI   GL1 2853  13.951  12.368   9.324  0.1287 -0.2514  0.2545
  179loPI   GL2 2854  13.669  12.540   9.527  0.0175  0.0388 -0.0580
  179loPI   C1A 2855  13.870  12.370   8.893 -0.2318 -0.2563 -0.2178
  179loPI   C2A 2856  13.789  12.327   8.511 -0.0315  0.0625  0.1005
  179loPI   C3A 2857  13.719  12.192   8.096 -0.0851  0.2251  0.0035
  179loPI   C4A 2858  13.610  12.068   7.741 -0.3263 -0.1483  0.2027
  179loPI   C5A 2859  13.677  11.703   7.741 -0.1339  0.3048 -0.1512
  179loPI   C6A 2860  13.726  11.204   7.628 -0.1182 -0.1120 -0.0316
  179loPI   C1B 2861  13.441  12.598   9.176 -0.1050  0.2567 -0.0240
  179loPI   C2B 2862  13.282  12.604   8.737 -0.2396 -0.0033  0.0624
  179loPI   C3B 2863  13.318  12.570   8.263  0.0477 -0.0832 -0.0847
  179loPI   C4B 2864  13.275  12.440   7.886  0.1711  0.1346 -0.0646
  180loPI    C1 2865  11.584  16.704  10.030  0.2741 -0.3176  0.1376
  180loPI    C2 2866  11.336  16.450  10.216  0.0729 -0.0624  0.2232
  180loPI    C3 2867  11.335  16.838  10.313  0.2190  0.0124 -0.0618
  180loPI   PO4 2868  11.542  16.577   9.764  0.2665 -0.0859 -0.0275
  180loPI   GL1 2869  11.657  16.355   9.376  0.2096  0.0030  0.1539
  180loPI   GL2 2870  11.982  16.479   9.482 -0.2087  0.1248  0.0322
  180loPI   C1A 2871  11.796  16.043   9.050  0.2760  0.0563  0.0110
  180loPI   C2A 2872  11.956  16.182   8.631  0.1050 -0.0024 -0.1567
  180loPI   C3A 2873  11.975  15.928   8.293  0.1783 -0.1621  0.1454
  180loPI   C4A 2874  12.138  15.996   7.993  0.1020  0.3251  0.0258
  180loPI   C5A 2875  12.062  15.910   7.606 -0.1328 -0.0428  0.0009
  180loPI   C6A 2876  11.841  15.934   7.220 -0.0899 -0.0745  0.1100
  180loPI   C1B 2877  12.068  16.523   9.096 -0.0327  0.3660 -0.2111
  180loPI   C2B 2878  12.301  16.610   8.686  0.3437 -0.2257  0.0970
  180loPI   C3B 2879  12.482  16.739   8.262 -0.1821  0.0474 -0.0359
  180loPI   C4B 2880  12.680  16.659   7.899 -0.0366 -0.4642  0.2244
  181loPI    C1 2881   3.592   8.577  10.094  0.0538  0.1245 -0.0230
  181loPI    C2 2882   3.245   8.672  10.269  0.0318  0.1824 -0.0975
  181loPI    C3 2883   3.552   8.540  10.490 -0.0829 -0.0041 -0.0481
  181loPI   PO4 2884   3.433   8.411   9.887  0.0145  0.1210 -0.1226
  181loPI   GL1 2885   3.398   8.382   9.420 -0.2421 -0.0684  0.0259
  181loPI   GL2 2886   3.032   8.530   9.447 -0.1038 -0.0720 -0.0482
  181loPI   C1A 2887   3.384   8.168   8.941 -0.0723 -0.1188  0.1204
  181loPI   C2A 2888   3.383   8.116   8.442  0.0540 -0.1074  0.2750
  181loPI   C3A 2889   3.425   7.781   8.108  0.1019  0.1594 -0.1253
  181loPI   C4A 2890   3.718   7.652   7.772 -0.1329  0.1969 -0.0504
  181loPI   C5A 2891   3.895   7.309   7.526 -0.3281 -0.0369  0.1391
  181loPI   C6A 2892   4.004   7.259   7.151  0.2381 -0.1983 -0.1451
  181loPI   C1B 2893   2.954   8.161   9.199 -0.2851 -0.0904  0.0505
  181loPI   C2B 2894   2.960   8.207   8.744 -0.1010 -0.0383 -0.4669
  181loPI   C3B 2895   3.010   8.366   8.249  0.2638  0.1097  0.1638
  181loPI   C4B 2896   3.002   8.561   7.830  0.0197  0.3017 -0.0421
  182loPI    C1 2897  14.301   3.681  10.282 -0.0989  0.0426  0.1175
  182loPI    C2 2898  14.509   4.011  10.371 -0.4197  0.2345  0.1715
  182loPI    C3 2899  14.419   3.748  10.658 -0.0372  0.0211  0.1022
  182loPI   PO4 2900  14.365   3.659  10.027 -0.0250 -0.0574  0.0713
  182loPI   GL1 2901  14.156   3.818   9.660 -0.2510  0.1932  0.1012
  182loPI   GL2 2902  14.417   3.613   9.553  0.1002 -0.2132  0.1433
  182loPI   C1A 2903  13.931   3.861   9.341  0.0361 -0.1220 -0.0107
  182loPI   C2A 2904  13.785   3.896   8.920  0.0272 -0.0761 -0.4004
  182loPI   C3A 2905  13.507   3.724   8.663 -0.0589 -0.3137  0.0472
  182loPI   C4A 2906  13.280   3.736   8.307  0.0328  0.1094  0.0042
  182loPI   C5A 2907  13.164   3.856   7.935  0.1900  0.0159  0.0583
  182loPI   C6A 2908  13.144   4.121   7.545 -0.2131  0.1197  0.2645
  182loPI   C1B 2909  14.704   3.834   9.309 -0.2555 -0.0635 -0.2041
  182loPI   C2B 2910  14.690   3.910   8.877  0.2478 -0.1377 -0.0684
  182loPI   C3B 2911  14.852   3.802   8.541  0.0963 -0.0733 -0.0738
  182loPI   C4B 2912  14.605   3.667   8.270 -0.1312 -0.0800  0.1562
  183loPI    C1 2913  17.903   1.334   9.692 -0.0051 -0.1940  0.1112
  183loPI    C2 2914  17.773   1.580   9.980  0.1197  0.0088 -0.0031
  183loPI    C3 2915  17.753   1.184  10.031  0.0343  0.0423  0.2359
  183loPI   PO4 2916  17.798   1.383   9.502 -0.0015 -0.2937  0.1981
  183loPI   GL1 2917  17.816   1.393   9.144  0.1348 -0.1866 -0.1640
  183loPI   GL2 2918  17.822   1.765   9.160 -0.0157  0.0071  0.1338
  183loPI   C1A 2919  18.010   1.428   8.774 -0.2223  0.2615 -0.1757
  183loPI   C2A 2920  18.227   1.411   8.386 -0.1814 -0.5178 -0.3753
  183loPI   C3A 2921  18.364   1.668   8.019  0.1110  0.0320  0.1451
  183loPI   C4A 2922  18.600   1.888   7.722 -0.1200  0.0525 -0.1052
  183loPI   C5A 2923  18.954   1.913   7.477  0.1749 -0.1976 -0.1856
  183loPI   C6A 2924  19.266   1.641   7.370 -0.0166 -0.1134  0.0214
  183loPI   C1B 2925  17.650   1.753   8.756 -0.1642  0.2060  0.2165
  183loPI   C2B 2926  17.677   1.456   8.302  0.1554 -0.0255 -0.1250
  183loPI   C3B 2927  17.760   1.603   7.977  0.1395  0.1365  0.1204
  183loPI   C4B 2928  18.064   1.534   7.602  0.1613  0.0648  0.2095
  184loPI    C1 2929  13.643   9.236   9.955 -0.1291 -0.3463 -0.1384
  184loPI    C2 2930  13.974   9.138  10.158  0.0024  0.3332 -0.0012
  184loPI    C3 2931  13.622   9.162  10.347 -0.0253  0.1659 -0.0297
  184loPI   PO4 2932  13.665   9.153   9.703 -0.1508 -0.1941  0.4874
  184loPI   GL1 2933  13.571   9.110   9.334 -0.0444 -0.2266 -0.1468
  184loPI   GL2 2934  13.565   9.443   9.264 -0.0444  0.0620 -0.3170
  184loPI   C1A 2935  13.478   9.053   8.968  0.1479 -0.1623  0.1281
  184loPI   C2A 2936  13.289   9.224   8.499 -0.1236 -0.0053 -0.0070
  184loPI   C3A 2937  13.133   8.930   8.105  0.2271 -0.0176 -0.0038
  184loPI   C4A 2938  12.891   8.928   7.672  0.2307 -0.1224  0.0634
  184loPI   C5A 2939  12.706   8.740   7.477 -0.0559  0.1982  0.2693
  184loPI   C6A 2940  12.482   8.962   7.086  0.0008  0.0964 -0.1887
  184loPI   C1B 2941  13.366   9.653   8.970  0.0235 -0.2216 -0.1886
  184loPI   C2B 2942  13.397   9.689   8.510  0.1507  0.0692 -0.0027
  184loPI   C3B 2943  13.615   9.449   8.193  0.0049  0.0893 -0.1040
  184loPI   C4B 2944  13.659   9.018   8.042  0.1805 -0.1166 -0.0128
  185loPI    C1 2945  18.280   3.686  10.169 -0.2125  0.0508 -0.1442
  185loPI    C2 2946  18.035   3.998  10.218 -0.0835  0.1190  0.0813
  185loPI    C3 2947  18.230   3.845  10.532  0.0791 -0.0037 -0.0772
  185loPI   PO4 2948  18.296   3.657   9.903 -0.2184 -0.0592 -0.2059
  185loPI   GL1 2949  18.249   3.681   9.435  0.0874 -0.1125 -0.0578
  185loPI   GL2 2950  17.930   3.575   9.406  0.1234 -0.1766  0.0959
  185loPI   C1A 2951  18.368   3.258   9.086 -0.0012 -0.2685  0.0444
  185loPI   C2A 2952  18.242   3.200   8.702  0.3887  0.1320  0.2826
  185loPI   C3A 2953  18.078   3.296   8.247 -0.0116  0.1369  0.1411
  185loPI   C4A 2954  17.967   3.218   7.812 -0.1768 -0.2582 -0.1633
  185loPI   C5A 2955  17.960   3.418   7.384  0.0989  0.0257  0.0777
  185loPI   C6A 2956  17.920   3.469   6.949 -0.2465 -0.1555 -0.3356
  185loPI   C1B 2957  17.916   3.626   9.031  0.0671 -0.0896  0.0094
  185loPI   C2B 2958  17.831   3.648   8.599  0.0785 -0.0979  0.0739
  185loPI   C3B 2959  17.723   3.682   8.071 -0.0793 -0.0172  0.0469
  185loPI   C4B 2960  17.696   3.902   7.707 -0.2883  0.1530 -0.0797
  186loPI    C1 2961   2.138   1.677  10.421 -0.0627  0.1553  0.1213
  186loPI    C2 2962   2.346   1.355  10.306 -0.2046  0.0999  0.0162
  186loPI    C3 2963   2.202   1.377  10.679 -0.0458  0.1211  0.0774
  186loPI   PO4 2964   2.255   1.861  10.207 -0.0430  0.1278 -0.0377
  186loPI   GL1 2965   2.378   1.838   9.709  0.1344 -0.0288  0.0576
  186loPI   GL2 2966   2.263   1.482   9.818 -0.0123 -0.1267  0.1505
  186loPI   C1A 2967   2.372   1.865   9.261 -0.0826 -0.0857  0.1048
  186loPI   C2A 2968   2.406   1.984   8.879 -0.0363 -0.1978 -0.2977
  186loPI   C3A 2969   2.276   1.880   8.366 -0.2560 -0.2498  0.1520
  186loPI   C4A 2970   2.139   1.681   8.097  0.2531 -0.0174  0.1355
  186loPI   C5A 2971   2.042   1.512   7.696  0.1157  0.1949  0.0980
  186loPI   C6A 2972   1.826   1.145   7.646 -0.0371  0.3505  0.0847
  186loPI   C1B 2973   2.486   1.392   9.465 -0.0892  0.1504 -0.1669
  186loPI   C2B 2974   2.579   1.369   9.009 -0.1485 -0.1079  0.1367
  186loPI   C3B 2975   2.484   1.469   8.684  0.1059 -0.0124 -0.4295
  186loPI   C4B 2976   2.565   1.459   8.278 -0.0346  0.1922  0.0182
  187loPI    C1 2977  19.574  10.960   9.565 -0.0031  0.1185 -0.0338
  187loPI    C2 2978  19.354  10.784   9.849 -0.0770  0.1759 -0.0549
  187loPI    C3 2979  19.216  11.110   9.663 -0.0706  0.0842 -0.2228
  187loPI   PO4 2980  19.565  10.685   9.395  0.2693  0.2187  0.0231
  187loPI   GL1 2981  19.656  10.716   8.896 -0.0818  0.0916  0.0795
  187loPI   GL2 2982  19.645  11.096   8.762  0.1060  0.0598 -0.0832
  187loPI   C1A 2983  19.730  10.529   8.521 -0.1444 -0.1566  0.4456
  187loPI   C2A 2984  19.772  10.513   8.114  0.1025 -0.2040  0.1272
  187loPI   C3A 2985  19.749  10.503   7.739 -0.0085 -0.1291 -0.0170
  187loPI   C4A 2986  19.857  10.699   7.394 -0.0119 -0.1138 -0.2035
  187loPI   C5A 2987  19.584  10.899   6.983 -0.1180 -0.2121 -0.0205
  187loPI   C6A 2988  19.682  11.166   6.556  0.1717  0.0931 -0.1050
  187loPI   C1B 2989  19.771  11.277   8.283 -0.1152  0.1686  0.2076
  187loPI   C2B 2990  19.877  11.405   7.828 -0.0640 -0.2047 -0.3551
  187loPI   C3B 2991  19.794  11.473   7.410  0.4004 -0.0630 -0.1103
  187loPI   C4B 2992  19.888  11.448   6.995 -0.1291 -0.0835 -0.3703
  188loPI    C1 2993  10.256   1.254  10.002  0.0699 -0.1202  0.1374
  188loPI    C2 2994  10.095   0.943   9.809  0.1565  0.0272 -0.1797
  188loPI    C3 2995  10.229   0.899  10.183 -0.2806 -0.1895 -0.0415
  188loPI   PO4 2996  10.057   1.396   9.946 -0.0985 -0.0257 -0.1703
  188loPI   GL1 2997   9.626   1.330   9.817  0.1304  0.0624  0.0232
  188loPI   GL2 2998   9.628   1.031   9.699  0.0190 -0.2366  0.2273
  188loPI   C1A 2999   9.688   1.373   9.324  0.2546 -0.2548 -0.2312
  188loPI   C2A 3000   9.518   1.278   9.017 -0.0307 -0.2553  0.0442
  188loPI   C3A 3001   9.439   1.139   8.588  0.1360  0.0342 -0.2025
  188loPI   C4A 3002   9.499   0.855   8.215  0.0742 -0.1625 -0.0440
  188loPI   C5A 3003   9.780   0.711   7.857 -0.0070 -0.1189  0.0487
  188loPI   C6A 3004   9.852   0.678   7.408  0.0298  0.1345  0.0439
  188loPI   C1B 3005   9.465   0.785   9.388 -0.1566  0.1159 -0.0093
  188loPI   C2B 3006   9.268   0.815   8.932 -0.0289  0.0510  0.1078
  188loPI   C3B 3007   9.405   0.559   8.635  0.1655  0.1981 -0.2079
  188loPI   C4B 3008   9.305   0.417   8.200  0.2154 -0.0257 -0.1407
  189loPI    C1 3009  15.317   5.660  10.286 -0.0304  0.2480 -0.0850
  189loPI    C2 3010  14.992   5.773  10.488  0.0897  0.2293  0.1222
  189loPI    C3 3011  15.191   5.444  10.598  0.0223  0.0856 -0.1744
  189loPI   PO4 3012  15.226   5.666  10.003  0.2949 -0.0673 -0.0039
  189loPI   GL1 3013  14.944   5.434   9.722 -0.0923 -0.0588 -0.2535
  189loPI   GL2 3014  14.936   5.739   9.541  0.1003 -0.2115  0.1866
  189loPI   C1A 3015  14.911   5.116   9.424 -0.2706 -0.2924 -0.0733
  189loPI   C2A 3016  15.150   5.160   9.060  0.1481 -0.0838  0.0179
  189loPI   C3A 3017  15.206   5.179   8.635  0.0803 -0.0888 -0.2387
  189loPI   C4A 3018  15.040   5.454   8.277  0.1057  0.0661 -0.1953
  189loPI   C5A 3019  14.985   5.842   8.308  0.0076  0.0079  0.0425
  189loPI   C6A 3020  15.136   6.250   8.185 -0.2410  0.0491 -0.1197
  189loPI   C1B 3021  14.663   5.654   9.179 -0.5150 -0.1835 -0.0196
  189loPI   C2B 3022  14.519   5.284   8.920  0.3056  0.1951 -0.3186
  189loPI   C3B 3023  14.434   5.171   8.473  0.1991  0.4102 -0.2128
  189loPI   C4B 3024  14.220   5.170   8.068 -0.0117 -0.3124  0.1458
  190loPI    C1 3025  15.947   3.785   9.992  0.4289 -0.1492  0.1468
  190loPI    C2 3026  15.837   3.813  10.376 -0.1122 -0.0753 -0.0048
  190loPI    C3 3027  15.917   3.455  10.216  0.1351 -0.1044  0.1774
  190loPI   PO4 3028  15.689   3.950   9.903  0.1146  0.0853  0.3491
  190loPI   GL1 3029  15.626   4.111   9.537  0.1685  0.1904  0.0393
  190loPI   GL2 3030  15.936   4.125   9.525 -0.1571 -0.1102  0.1269
  190loPI   C1A 3031  15.539   4.289   9.203  0.4352  0.0909 -0.1414
  190loPI   C2A 3032  15.553   4.385   8.749  0.2094  0.1304  0.0875
  190loPI   C3A 3033  15.667   4.385   8.309  0.0778 -0.2907 -0.0172
  190loPI   C4A 3034  15.473   4.389   7.816 -0.2634  0.2236  0.2887
  190loPI   C5A 3035  15.142   4.286   7.620 -0.3185 -0.1782 -0.1747
  190loPI   C6A 3036  14.937   4.138   7.164  0.0980  0.0042  0.1586
  190loPI   C1B 3037  15.901   3.950   9.086 -0.0554 -0.4046 -0.2189
  190loPI   C2B 3038  15.701   3.666   8.859 -0.2914 -0.0714 -0.0808
  190loPI   C3B 3039  15.518   3.684   8.405  0.0732 -0.3299 -0.1007
  190loPI   C4B 3040  15.119   3.583   8.202 -0.3086 -0.3147  0.1173
  191loPI    C1 3041  18.817   3.649  10.146  0.0447  0.2638 -0.0316
  191loPI    C2 3042  19.068   3.874   9.931  0.2695  0.2588  0.2206
  191loPI    C3 3043  19.076   3.892  10.331  0.1020  0.0037  0.2375
  191loPI   PO4 3044  18.806   3.502  10.110  0.0039  0.3488 -0.0307
  191loPI   GL1 3045  18.839   3.456   9.666  0.1736  0.0940  0.2818
  191loPI   GL2 3046  18.697   3.788   9.663  0.1089 -0.0408  0.1134
  191loPI   C1A 3047  19.023   3.220   9.309  0.1322 -0.1862  0.2168
  191loPI   C2A 3048  19.163   2.994   8.949 -0.1599 -0.1473 -0.1948
  191loPI   C3A 3049  19.313   2.978   8.537  0.4028 -0.1576 -0.1716
  191loPI   C4A 3050  19.431   2.993   8.144  0.2042 -0.1458  0.0664
  191loPI   C5A 3051  19.403   3.243   7.686 -0.0257  0.2457 -0.3187
  191loPI   C6A 3052  19.175   3.092   7.312 -0.0388  0.1207 -0.0246
  191loPI   C1B 3053  18.711   3.683   9.160 -0.0323  0.1552  0.2829
  191loPI   C2B 3054  18.774   3.479   8.773 -0.2225  0.0006 -0.1875
  191loPI   C3B 3055  18.571   3.367   8.402 -0.0765 -0.0057  0.2597
  191loPI   C4B 3056  18.484   3.330   7.944 -0.0663  0.2216  0.1496
  192loPI    C1 3057   7.074  17.977  10.336  0.0686  0.0506 -0.0682
  192loPI    C2 3058   7.004  17.698  10.614  0.0088  0.2543  0.1235
  192loPI    C3 3059   7.353  17.703  10.419 -0.0268 -0.0117  0.0498
  192loPI   PO4 3060   6.834  17.960  10.162 -0.0453 -0.2454  0.1499
  192loPI   GL1 3061   6.742  17.985   9.833  0.2013 -0.0112  0.1211
  192loPI   GL2 3062   6.686  17.619   9.715  0.4583  0.2035 -0.1442
  192loPI   C1A 3063   6.601  18.219   9.502  0.0314  0.0401  0.1247
  192loPI   C2A 3064   6.634  18.269   9.074  0.2439 -0.0633  0.0761
  192loPI   C3A 3065   6.674  18.301   8.635 -0.0327  0.1659  0.0127
  192loPI   C4A 3066   6.696  18.233   8.201 -0.2339 -0.0455  0.2987
  192loPI   C5A 3067   6.767  18.310   7.818 -0.0652 -0.1578 -0.0769
  192loPI   C6A 3068   6.446  18.407   7.471  0.2263 -0.1502  0.2585
  192loPI   C1B 3069   6.416  17.596   9.306 -0.0330  0.2890  0.0498
  192loPI   C2B 3070   6.389  17.782   8.811  0.1409  0.0878 -0.3987
  192loPI   C3B 3071   6.478  17.770   8.364 -0.1734 -0.1155  0.1155
  192loPI   C4B 3072   6.603  17.820   7.999  0.1574  0.2733  0.0302
  193loPI    C1 3073  13.290  11.169  10.096 -0.2184 -0.0668 -0.1828
  193loPI    C2 3074  13.587  10.919  10.196 -0.1094  0.1514  0.0519
  193loPI    C3 3075  13.242  10.910  10.398 -0.1764  0.0616 -0.0648
  193loPI   PO4 3076  13.279  11.208   9.863  0.1505 -0.1500  0.0993
  193loPI   GL1 3077  13.251  11.066   9.487  0.0713  0.0083 -0.0416
  193loPI   GL2 3078  13.436  10.865   9.393  0.0373  0.3408 -0.1729
  193loPI   C1A 3079  13.008  10.957   9.086 -0.1294 -0.2321  0.3936
  193loPI   C2A 3080  13.076  10.955   8.662  0.1849  0.0496  0.0636
  193loPI   C3A 3081  13.276  11.146   8.300  0.6111 -0.0448 -0.1146
  193loPI   C4A 3082  13.293  11.360   7.910 -0.0008 -0.0033 -0.1837
  193loPI   C5A 3083  13.206  11.418   7.430  0.3603 -0.0813 -0.2808
  193loPI   C6A 3084  12.843  11.445   7.216 -0.0298  0.5447  0.1509
  193loPI   C1B 3085  13.651  10.881   9.021 -0.0355  0.1521  0.0294
  193loPI   C2B 3086  14.027  11.016   8.774  0.1382  0.0254  0.3239
  193loPI   C3B 3087  14.072  10.937   8.294 -0.1504  0.2739 -0.2063
  193loPI   C4B 3088  14.184  10.949   7.844  0.1161  0.0714  0.2518
  194loPI    C1 3089  16.911  14.803  10.065 -0.0323 -0.1804 -0.1289
  194loPI    C2 3090  17.297  14.773  10.167 -0.0366  0.0824 -0.0281
  194loPI    C3 3091  17.021  14.558  10.362  0.0452 -0.0156 -0.0200
  194loPI   PO4 3092  16.929  14.856   9.786  0.0289 -0.4782 -0.0249
  194loPI   GL1 3093  17.006  14.837   9.461  0.4281  0.1534 -0.0713
  194loPI   GL2 3094  17.307  14.584   9.517 -0.4881 -0.0706  0.3225
  194loPI   C1A 3095  16.775  14.780   9.009  0.0062 -0.0386 -0.2440
  194loPI   C2A 3096  16.647  14.833   8.608 -0.0878 -0.1159  0.1395
  194loPI   C3A 3097  16.678  14.673   8.154  0.0675 -0.2292 -0.3953
  194loPI   C4A 3098  16.729  14.769   7.741 -0.1062 -0.4874 -0.1173
  194loPI   C5A 3099  17.039  14.756   7.361  0.1897 -0.1363 -0.0188
  194loPI   C6A 3100  17.351  15.012   7.312  0.2023 -0.0495  0.1029
  194loPI   C1B 3101  17.225  14.612   9.025 -0.2695  0.1780 -0.2538
  194loPI   C2B 3102  17.252  14.565   8.584 -0.1924 -0.0697  0.0345
  194loPI   C3B 3103  17.306  14.679   8.161  0.2726  0.0803 -0.1098
  194loPI   C4B 3104  17.190  14.920   7.891  0.1638 -0.1431 -0.0412
  195loPI    C1 3105  16.665  10.895   9.682  0.1797 -0.0357  0.1719
  195loPI    C2 3106  16.641  11.294   9.659  0.1183 -0.0421  0.1199
  195loPI    C3 3107  16.868  11.123   9.941  0.6054  0.0354 -0.2112
  195loPI   PO4 3108  16.683  10.813   9.500  0.2767 -0.0672  0.0509
  195loPI   GL1 3109  16.420  10.856   9.050 -0.0009 -0.1770 -0.1183
  195loPI   GL2 3110  16.508  10.484   9.003 -0.1503  0.1824  0.1059
  195loPI   C1A 3111  16.484  10.777   8.610  0.1834 -0.0330  0.0179
  195loPI   C2A 3112  16.662  11.002   8.209  0.2495  0.2298 -0.4523
  195loPI   C3A 3113  16.684  11.297   7.914 -0.0107 -0.2909  0.2036
  195loPI   C4A 3114  16.379  11.361   7.593 -0.0067 -0.2109 -0.1450
  195loPI   C5A 3115  16.226  11.567   7.194  0.3372 -0.0163  0.2400
  195loPI   C6A 3116  15.905  11.590   6.891  0.0827  0.1670 -0.1490
  195loPI   C1B 3117  16.784  10.226   8.755 -0.1050  0.0260 -0.2992
  195loPI   C2B 3118  16.885  10.090   8.277  0.0779  0.0640  0.0543
  195loPI   C3B 3119  16.966  10.088   7.891 -0.0646  0.1165 -0.0425
  195loPI   C4B 3120  17.099  10.010   7.427  0.2103  0.3378  0.1573
  196loPI    C1 3121  19.274   2.639  10.473 -0.1682 -0.1370 -0.2729
  196loPI    C2 3122  18.904   2.573  10.611 -0.1254 -0.1679 -0.1720
  196loPI    C3 3123  19.221   2.480  10.836 -0.0579 -0.0136 -0.2021
  196loPI   PO4 3124  19.262   2.853  10.288 -0.1242  0.0135 -0.0308
  196loPI   GL1 3125  19.420   2.784   9.917  0.0574 -0.0048 -0.2162
  196loPI   GL2 3126  19.580   2.519   9.875 -0.1590  0.5345 -0.0793
  196loPI   C1A 3127  19.473   3.099   9.585  0.0315 -0.0577  0.1670
  196loPI   C2A 3128  19.507   3.375   9.187 -0.0309  0.1452 -0.2777
  196loPI   C3A 3129  19.303   3.479   8.890 -0.0117 -0.3016  0.2152
  196loPI   C4A 3130  19.124   3.440   8.396  0.0188  0.3598 -0.0966
  196loPI   C5A 3131  19.039   3.444   8.016  0.2300  0.1389  0.0280
  196loPI   C6A 3132  18.945   3.420   7.694 -0.0351  0.4564 -0.0197
  196loPI   C1B 3133  19.786   2.725   9.572  0.2998 -0.2915  0.2769
  196loPI   C2B 3134  19.849   2.968   9.230 -0.1260 -0.2096  0.0054
  196loPI   C3B 3135  19.863   3.237   8.847  0.0904 -0.2136 -0.1333
  196loPI   C4B 3136  19.939   3.216   8.474  0.2844  0.1083  0.0274
  197loPI    C1 3137   7.411  12.007   9.817 -0.0667  0.1183  0.0859
  197loPI    C2 3138   7.331  11.617   9.853  0.2014  0.0448 -0.0923
  197loPI    C3 3139   7.406  11.837  10.178 -0.2628  0.0191  0.0378
  197loPI   PO4 3140   7.289  12.065   9.550  0.3282  0.0556 -0.1272
  197loPI   GL1 3141   7.260  12.002   9.197  0.0811 -0.3049  0.1338
  197loPI   GL2 3142   6.993  11.931   9.026  0.0023  0.0635 -0.1374
  197loPI   C1A 3143   7.472  11.892   8.820 -0.0652 -0.2340 -0.0317
  197loPI   C2A 3144   7.625  11.887   8.408  0.1273  0.1806  0.1012
  197loPI   C3A 3145   7.778  11.865   7.962 -0.0219 -0.3971 -0.0094
  197loPI   C4A 3146   7.840  11.662   7.638  0.3857 -0.1413 -0.1841
  197loPI   C5A 3147   7.745  11.906   7.253  0.1273 -0.1727 -0.0005
  197loPI   C6A 3148   7.843  12.110   6.876 -0.0809  0.0348  0.1173
  197loPI   C1B 3149   6.900  11.980   8.657 -0.1354 -0.1154 -0.3637
  197loPI   C2B 3150   6.893  12.264   8.303  0.1119  0.2411  0.2852
  197loPI   C3B 3151   6.816  12.098   7.855 -0.3564 -0.3436  0.2080
  197loPI   C4B 3152   6.863  12.221   7.422  0.0783  0.3646  0.0608
  198loPI    C1 3153   8.318  12.068   9.915  0.0767  0.0410 -0.2459
  198loPI    C2 3154   8.205  12.425  10.054  0.1072 -0.0227 -0.0540
  198loPI    C3 3155   8.204  12.107  10.296  0.1471 -0.1391 -0.2051
  198loPI   PO4 3156   8.589  12.009   9.761 -0.0357 -0.0506 -0.0709
  198loPI   GL1 3157   8.864  12.106   9.435 -0.0938  0.2744 -0.0589
  198loPI   GL2 3158   9.106  12.388   9.343 -0.0626  0.0090 -0.0217
  198loPI   C1A 3159   8.975  12.030   9.045 -0.1222  0.0886  0.0013
  198loPI   C2A 3160   8.782  12.096   8.677 -0.1701 -0.2515 -0.2918
  198loPI   C3A 3161   8.673  11.982   8.272 -0.0290  0.4651  0.1585
  198loPI   C4A 3162   8.363  11.887   7.917 -0.2396  0.2406  0.0905
  198loPI   C5A 3163   8.233  11.509   7.871 -0.0432  0.1177  0.0852
  198loPI   C6A 3164   8.251  11.197   7.512  0.0577 -0.0362 -0.1796
  198loPI   C1B 3165   9.141  12.464   8.877 -0.2466  0.1305  0.0844
  198loPI   C2B 3166   9.088  12.410   8.463 -0.1829 -0.3028  0.0519
  198loPI   C3B 3167   9.018  12.313   8.059 -0.0758  0.0596  0.1497
  198loPI   C4B 3168   8.802  12.018   7.771 -0.0096 -0.0143 -0.0641
  199loPI    C1 3169   5.291   1.477  10.666  0.1295 -0.1111 -0.0340
  199loPI    C2 3170   4.989   1.738  10.693 -0.0151 -0.2531 -0.2505
  199loPI    C3 3171   5.365   1.860  10.755 -0.1187 -0.0861  0.0718
  199loPI   PO4 3172   5.296   1.371  10.436  0.1471  0.0103  0.0658
  199loPI   GL1 3173   5.313   1.353  10.092 -0.3953  0.0270 -0.1359
  199loPI   GL2 3174   5.627   1.351   9.953 -0.3297 -0.1738  0.1220
  199loPI   C1A 3175   5.113   1.377   9.677  0.2292  0.0218  0.1009
  199loPI   C2A 3176   5.110   1.393   9.234 -0.2349 -0.1400 -0.0388
  199loPI   C3A 3177   5.143   1.468   8.752 -0.2072  0.0977 -0.1081
  199loPI   C4A 3178   5.084   1.505   8.267  0.3787  0.2293  0.3222
  199loPI   C5A 3179   5.088   1.445   7.858  0.0762  0.2193  0.0106
  199loPI   C6A 3180   5.353   1.323   7.533 -0.3736  0.1421  0.0832
  199loPI   C1B 3181   5.560   1.418   9.467  0.1860  0.0421 -0.2291
  199loPI   C2B 3182   5.587   1.471   9.047 -0.1319  0.0347 -0.0226
  199loPI   C3B 3183   5.644   1.472   8.653 -0.0249 -0.1862 -0.2036
  199loPI   C4B 3184   5.591   1.543   8.256  0.0961  0.3359  0.4807
  200loPI    C1 3185  11.294  18.045  10.116 -0.1374 -0.0664 -0.2419
  200loPI    C2 3186  10.984  17.867  10.296 -0.1468  0.1292 -0.0606
  200loPI    C3 3187  10.996  18.266  10.267  0.3317  0.1585  0.4005
  200loPI   PO4 3188  11.272  17.973   9.917 -0.1925 -0.1587  0.0036
  200loPI   GL1 3189  11.508  18.118   9.471 -0.1957 -0.0628  0.2326
  200loPI   GL2 3190  11.829  18.133   9.417 -0.0734 -0.1999 -0.1966
  200loPI   C1A 3191  11.412  18.007   9.084 -0.0634  0.2294 -0.0011
  200loPI   C2A 3192  11.251  18.041   8.691  0.1652  0.0039  0.0404
  200loPI   C3A 3193  10.962  18.257   8.429  0.0786  0.1603  0.0679
  200loPI   C4A 3194  10.880  18.236   7.979 -0.1128  0.1259  0.0599
  200loPI   C5A 3195  10.584  18.274   7.721 -0.1249 -0.3215  0.0723
  200loPI   C6A 3196  10.166  18.279   7.441 -0.1466  0.0510  0.0129
  200loPI   C1B 3197  11.916  18.050   8.995  0.2940  0.0484  0.0417
  200loPI   C2B 3198  11.739  17.925   8.595 -0.2184 -0.0105 -0.1540
  200loPI   C3B 3199  11.882  17.901   8.177  0.0646  0.0348  0.0341
  200loPI   C4B 3200  12.003  17.918   7.737 -0.0240  0.0408 -0.0065
  201loPI    C1 3201  13.062  12.919  10.537 -0.1667  0.1074 -0.1075
  201loPI    C2 3202  13.097  13.309  10.619 -0.0861  0.0600  0.0884
  201loPI    C3 3203  13.130  13.039  10.912  0.1003 -0.1083 -0.0844
  201loPI   PO4 3204  13.073  12.852  10.269  0.0285 -0.0433 -0.1157
  201loPI   GL1 3205  12.927  12.851   9.817  0.1318  0.1460  0.3946
  201loPI   GL2 3206  12.815  12.616   9.908  0.3533 -0.2706 -0.0380
  201loPI   C1A 3207  12.715  12.703   9.354  0.1302 -0.0637  0.2214
  201loPI   C2A 3208  12.811  12.694   8.958 -0.1317 -0.1278  0.1494
  201loPI   C3A 3209  12.754  12.548   8.570 -0.0661  0.3436 -0.2209
  201loPI   C4A 3210  12.802  12.553   8.079 -0.0122  0.1836  0.1831
  201loPI   C5A 3211  12.456  12.477   7.815  0.3030 -0.1050 -0.1159
  201loPI   C6A 3212  12.350  12.253   7.557  0.0450 -0.1907 -0.1685
  201loPI   C1B 3213  13.105  12.510   9.514 -0.0920  0.0723 -0.1165
  201loPI   C2B 3214  13.022  12.306   9.133 -0.0402  0.0200  0.2282
  201loPI   C3B 3215  12.946  12.119   8.716 -0.0569  0.1686  0.1788
  201loPI   C4B 3216  12.952  12.148   8.326  0.0915  0.2402 -0.1699
  202loPI    C1 3217  10.312   4.623  10.398 -0.0734 -0.1121  0.2024
  202loPI    C2 3218  10.317   4.225  10.443  0.1022 -0.1646 -0.2342
  202loPI    C3 3219   9.977   4.429  10.500  0.0067 -0.3769 -0.0258
  202loPI   PO4 3220  10.497   4.708  10.088 -0.2490 -0.0596  0.2486
  202loPI   GL1 3221  10.361   4.599   9.680  0.2870  0.2047  0.1258
  202loPI   GL2 3222  10.043   4.674   9.557  0.1065  0.2848  0.2683
  202loPI   C1A 3223  10.355   5.035   9.402 -0.2186 -0.0269 -0.1254
  202loPI   C2A 3224  10.504   5.365   9.022 -0.0677 -0.1618  0.1107
  202loPI   C3A 3225  10.762   5.227   8.607 -0.0673 -0.2081 -0.0543
  202loPI   C4A 3226  10.789   5.193   8.139 -0.0010 -0.0315 -0.1336
  202loPI   C5A 3227  10.681   5.083   7.705  0.0842 -0.1278 -0.0528
  202loPI   C6A 3228  10.449   5.048   7.400 -0.0267  0.1026 -0.0237
  202loPI   C1B 3229  10.083   4.636   9.118  0.0546 -0.3491  0.1650
  202loPI   C2B 3230  10.057   4.782   8.708  0.1724 -0.0164  0.1107
  202loPI   C3B 3231   9.976   4.965   8.373 -0.0291 -0.0407 -0.0096
  202loPI   C4B 3232   9.791   5.443   8.400 -0.0916 -0.2105  0.0650
  203loPI    C1 3233  18.583   7.096   9.734  0.2827 -0.2049  0.0748
  203loPI    C2 3234  18.549   6.994  10.120  0.0556  0.2064  0.1686
  203loPI    C3 3235  18.232   7.139   9.922  0.2355  0.2353 -0.1027
  203loPI   PO4 3236  18.674   6.880   9.498  0.0761 -0.0796 -0.1058
  203loPI   GL1 3237  18.941   6.734   9.167  0.3249  0.2674 -0.2052
  203loPI   GL2 3238  18.764   6.804   8.890 -0.2477  0.1124 -0.0098
  203loPI   C1A 3239  19.198   6.513   8.938 -0.0348  0.3283 -0.4450
  203loPI   C2A 3240  19.362   6.345   8.592  0.0315  0.2048  0.0805
  203loPI   C3A 3241  19.629   6.468   8.329  0.3667  0.5049  0.0122
  203loPI   C4A 3242  19.573   6.468   7.958 -0.0409  0.1148  0.2370
  203loPI   C5A 3243  19.139   6.472   7.751 -0.0201 -0.0482 -0.2834
  203loPI   C6A 3244  18.994   6.895   7.747 -0.1105 -0.0632 -0.3494
  203loPI   C1B 3245  19.002   6.678   8.519  0.1899  0.0353 -0.0345
  203loPI   C2B 3246  19.246   6.736   8.188 -0.3264 -0.4624  0.3618
  203loPI   C3B 3247  19.464   6.938   7.765  0.1178  0.0707  0.0168
  203loPI   C4B 3248  19.587   6.699   7.343  0.2018  0.0517  0.1259
  204loPI    C1 3249  18.305  19.302  10.182  0.0459  0.1477  0.2390
  204loPI    C2 3250  18.639  19.377  10.388  0.0752 -0.1561  0.3072
  204loPI    C3 3251  18.390  19.089  10.510  0.0507 -0.2845 -0.0354
  204loPI   PO4 3252  18.436  19.334   9.936 -0.0650 -0.1084 -0.2804
  204loPI   GL1 3253  18.259  19.175   9.531  0.1118 -0.0661  0.4196
  204loPI   GL2 3254  18.366  18.924   9.533 -0.0914 -0.1412 -0.0539
  204loPI   C1A 3255  18.331  18.978   8.991  0.0131 -0.1116 -0.1238
  204loPI   C2A 3256  18.207  19.074   8.599  0.0678  0.0624  0.2784
  204loPI   C3A 3257  18.471  18.888   8.286  0.0529 -0.0995  0.0314
  204loPI   C4A 3258  18.747  18.690   7.895 -0.1253 -0.1738 -0.1245
  204loPI   C5A 3259  18.965  18.822   7.626  0.0493 -0.0767 -0.1024
  204loPI   C6A 3260  19.267  18.797   7.387 -0.0472  0.1383  0.1590
  204loPI   C1B 3261  18.721  19.044   9.254  0.2065 -0.2047  0.2478
  204loPI   C2B 3262  19.192  19.112   9.146  0.1196 -0.0873  0.0244
  204loPI   C3B 3263  19.417  19.312   8.840  0.3978  0.3238  0.2118
  204loPI   C4B 3264  19.539  19.545   8.538  0.0925  0.1365  0.0133
  205loPI    C1 3265  15.518  12.943   9.973  0.0122  0.2026  0.0475
  205loPI    C2 3266  15.462  12.548  10.006 -0.0186  0.2017 -0.0136
  205loPI    C3 3267  15.222  12.802  10.202 -0.1087  0.1934 -0.1129
  205loPI   PO4 3268  15.461  12.980   9.751 -0.4032  0.1527  0.1275
  205loPI   GL1 3269  15.516  12.885   9.256  0.2338 -0.1220 -0.2415
  205loPI   GL2 3270  15.329  13.227   9.363 -0.0598  0.3149 -0.0752
  205loPI   C1A 3271  15.712  12.981   8.905  0.3008  0.2826 -0.2007
  205loPI   C2A 3272  15.649  12.851   8.486 -0.2920 -0.0095  0.5078
  205loPI   C3A 3273  15.579  12.680   8.042  0.2806 -0.0585  0.0698
  205loPI   C4A 3274  15.747  12.410   7.738 -0.0619  0.2115  0.0641
  205loPI   C5A 3275  16.044  12.128   7.884 -0.0169  0.1924  0.2649
  205loPI   C6A 3276  16.318  11.851   8.058 -0.0684  0.0131 -0.1678
  205loPI   C1B 3277  15.362  13.413   9.023 -0.0130 -0.1433  0.1183
  205loPI   C2B 3278  15.065  13.513   8.757 -0.1960 -0.2076 -0.1722
  205loPI   C3B 3279  15.117  13.611   8.247 -0.0681  0.1988 -0.2139
  205loPI   C4B 3280  15.171  13.740   7.893 -0.0174  0.0402 -0.2856
  206loPI    C1 3281   7.175   3.025   9.972  0.0568 -0.2847 -0.1415
  206loPI    C2 3282   7.103   2.672  10.145  0.0898 -0.2090  0.0284
  206loPI    C3 3283   6.873   2.988  10.231 -0.0227 -0.2202 -0.2241
  206loPI   PO4 3284   7.124   3.013   9.761 -0.0639  0.0246 -0.2760
  206loPI   GL1 3285   7.169   2.748   9.434  0.0495 -0.2341  0.0027
  206loPI   GL2 3286   7.076   2.457   9.588  0.0935  0.1249 -0.0503
  206loPI   C1A 3287   7.004   2.688   9.039 -0.1184 -0.2459  0.1058
  206loPI   C2A 3288   7.087   2.475   8.696  0.0471 -0.2800 -0.0905
  206loPI   C3A 3289   7.352   2.564   8.292 -0.1533 -0.1346  0.0776
  206loPI   C4A 3290   7.525   2.389   7.883 -0.0005 -0.1347 -0.2295
  206loPI   C5A 3291   7.901   2.349   7.803 -0.2635  0.2136  0.1712
  206loPI   C6A 3292   8.211   2.610   7.683 -0.0445 -0.2142  0.1866
  206loPI   C1B 3293   7.114   2.228   9.189 -0.2011 -0.1109  0.1780
  206loPI   C2B 3294   6.872   1.960   8.914 -0.1139 -0.2107  0.0689
  206loPI   C3B 3295   6.566   2.352   8.734  0.2440 -0.2336 -0.1225
  206loPI   C4B 3296   6.552   2.749   8.548  0.0515  0.0358 -0.0093
  207loPI    C1 3297  14.416   9.455   9.352  0.1603  0.0407  0.0867
  207loPI    C2 3298  14.776   9.294   9.417  0.1499  0.0608  0.1965
  207loPI    C3 3299  14.531   9.132   9.146  0.1832 -0.0417  0.2270
  207loPI   PO4 3300  14.484   9.727   9.420 -0.0118 -0.0367 -0.1553
  207loPI   GL1 3301  14.619  10.018   9.164  0.0303  0.0578  0.0593
  207loPI   GL2 3302  14.859  10.077   9.004  0.2433  0.0648  0.1959
  207loPI   C1A 3303  14.463  10.324   8.896  0.1558 -0.0738 -0.0372
  207loPI   C2A 3304  14.473  10.543   8.574  0.0828  0.2272 -0.1211
  207loPI   C3A 3305  14.550  10.714   8.153 -0.2064  0.0632  0.1318
  207loPI   C4A 3306  14.573  10.528   7.715  0.0625  0.1379  0.2229
  207loPI   C5A 3307  14.861  10.405   7.445 -0.2602 -0.2008  0.0433
  207loPI   C6A 3308  15.215  10.231   7.197  0.0433 -0.1768 -0.1855
  207loPI   C1B 3309  14.634  10.047   8.522  0.1350 -0.0679 -0.1174
  207loPI   C2B 3310  14.392  10.050   8.184 -0.1900  0.1847 -0.2291
  207loPI   C3B 3311  14.115  10.294   7.856 -0.0689  0.1128 -0.2312
  207loPI   C4B 3312  13.875  10.420   7.544  0.2838  0.1737  0.1833
  208loPI    C1 3313  17.755   2.226   9.976  0.0513 -0.0996  0.2322
  208loPI    C2 3314  17.493   1.948   9.856  0.2929 -0.3287  0.2246
  208loPI    C3 3315  17.381   2.229  10.118 -0.0926 -0.1350 -0.1355
  208loPI   PO4 3316  17.813   2.340   9.833  0.0299  0.1579  0.0166
  208loPI   GL1 3317  17.799   2.576   9.469  0.0435  0.3544  0.1643
  208loPI   GL2 3318  17.623   2.172   9.364 -0.0595 -0.0963 -0.1379
  208loPI   C1A 3319  17.675   2.698   9.151  0.0508 -0.1646 -0.0063
  208loPI   C2A 3320  17.412   2.611   8.812 -0.1117  0.3276  0.1481
  208loPI   C3A 3321  17.159   2.326   8.584 -0.1138 -0.1627 -0.0244
  208loPI   C4A 3322  16.988   2.463   8.198 -0.0445 -0.0057 -0.0573
  208loPI   C5A 3323  17.110   2.315   7.863  0.0234 -0.0501 -0.4845
  208loPI   C6A 3324  17.246   1.960   7.692 -0.2101  0.2552  0.2765
  208loPI   C1B 3325  17.509   2.135   9.026  0.1388  0.0301 -0.0193
  208loPI   C2B 3326  17.224   1.889   8.794  0.1155 -0.3039  0.0953
  208loPI   C3B 3327  17.224   1.621   8.539 -0.1239  0.1400  0.0543
  208loPI   C4B 3328  17.167   1.589   8.067  0.2771 -0.0485  0.1101
  209loPI    C1 3329   1.737  19.007   9.903  0.0504  0.1543 -0.3216
  209loPI    C2 3330   1.446  19.281   9.918 -0.0321  0.0574 -0.1115
  209loPI    C3 3331   1.668  19.207  10.243  0.2124  0.1134 -0.2632
  209loPI   PO4 3332   1.623  18.777   9.768 -0.0624 -0.1391 -0.0765
  209loPI   GL1 3333   1.624  18.383   9.528 -0.0567  0.0789  0.0251
  209loPI   GL2 3334   1.425  18.040   9.630  0.0323 -0.0102  0.0632
  209loPI   C1A 3335   1.824  18.610   9.119  0.0746 -0.2268  0.0092
  209loPI   C2A 3336   1.874  18.669   8.737 -0.0312 -0.2784  0.1850
  209loPI   C3A 3337   1.652  18.706   8.386 -0.2590 -0.1647  0.0064
  209loPI   C4A 3338   1.522  18.975   8.276  0.1773 -0.0076 -0.1541
  209loPI   C5A 3339   1.420  19.353   7.982  0.1936  0.2269 -0.2257
  209loPI   C6A 3340   1.208  19.295   7.617 -0.0795 -0.2772  0.3065
  209loPI   C1B 3341   1.752  17.807   9.450 -0.0963  0.1109  0.1474
  209loPI   C2B 3342   1.951  17.736   9.073  0.1880  0.3951 -0.1383
  209loPI   C3B 3343   2.203  17.349   8.751 -0.1232 -0.1304  0.1083
  209loPI   C4B 3344   2.108  17.223   8.327 -0.0630  0.0982  0.1178
  210loPI    C1 3345   4.485   1.778  10.646 -0.1960 -0.0663 -0.2195
  210loPI    C2 3346   4.300   2.130  10.604  0.1326  0.1470  0.0553
  210loPI    C3 3347   4.173   1.869  10.879  0.1884  0.2586  0.1881
  210loPI   PO4 3348   4.501   1.756  10.363  0.0862 -0.0520  0.2091
  210loPI   GL1 3349   4.722   1.666  10.001 -0.0572  0.2390  0.1602
  210loPI   GL2 3350   4.456   1.742   9.788  0.0688  0.0154 -0.3852
  210loPI   C1A 3351   4.850   1.952   9.538 -0.0364  0.0466  0.1016
  210loPI   C2A 3352   4.889   1.905   9.158  0.0967 -0.2330 -0.3252
  210loPI   C3A 3353   4.856   1.926   8.752  0.0753 -0.0845  0.2333
  210loPI   C4A 3354   4.962   2.000   8.284 -0.1927  0.1298  0.0043
  210loPI   C5A 3355   4.861   1.916   7.854 -0.1926  0.1790  0.0703
  210loPI   C6A 3356   4.791   2.129   7.489 -0.0973 -0.2608 -0.0460
  210loPI   C1B 3357   4.313   1.969   9.423  0.1641 -0.1497  0.1260
  210loPI   C2B 3358   4.405   1.983   9.024 -0.2025 -0.0570  0.2449
  210loPI   C3B 3359   4.342   1.912   8.577 -0.0652 -0.2329 -0.3262
  210loPI   C4B 3360   4.326   1.919   8.160 -0.0375 -0.1295 -0.2585
  211loPI    C1 3361  11.965  17.472   9.987  0.1413  0.0108 -0.5636
  211loPI    C2 3362  12.298  17.316  10.146 -0.1274  0.0711  0.0892
  211loPI    C3 3363  12.273  17.710  10.080  0.0050  0.0388 -0.1638
  211loPI   PO4 3364  11.966  17.363   9.612  0.4659 -0.1314  0.0259
  211loPI   GL1 3365  11.812  17.357   9.294  0.1430 -0.1532 -0.1461
  211loPI   GL2 3366  11.761  17.612   9.101 -0.1829  0.1445 -0.3178
  211loPI   C1A 3367  11.688  17.210   8.868  0.0818 -0.2321  0.0229
  211loPI   C2A 3368  11.499  17.170   8.452  0.1309  0.1814  0.1903
  211loPI   C3A 3369  11.486  17.278   8.106 -0.2618  0.1190 -0.0187
  211loPI   C4A 3370  11.568  17.611   7.905  0.0691 -0.2006  0.2317
  211loPI   C5A 3371  11.488  18.007   7.683  0.1001  0.1214  0.2065
  211loPI   C6A 3372  11.335  18.366   7.727  0.0929  0.1521  0.1481
  211loPI   C1B 3373  12.075  17.622   8.808  0.1004  0.1765  0.1197
  211loPI   C2B 3374  12.213  17.602   8.360  0.0275  0.1636 -0.2673
  211loPI   C3B 3375  12.051  17.495   7.943  0.1390  0.0114 -0.1400
  211loPI   C4B 3376  11.828  17.375   7.592  0.1079 -0.2298  0.1224
  212loPI    C1 3377  13.025  16.871   9.807 -0.1725 -0.0218 -0.0499
  212loPI    C2 3378  12.952  17.108  10.120  0.1106  0.0690 -0.0501
  212loPI    C3 3379  13.018  16.718  10.176  0.1013  0.0743 -0.0026
  212loPI   PO4 3380  12.895  16.930   9.620 -0.1839 -0.1196 -0.0029
  212loPI   GL1 3381  13.031  17.269   9.289  0.1853  0.0851 -0.2041
  212loPI   GL2 3382  12.729  17.091   9.172 -0.1365 -0.0710 -0.0522
  212loPI   C1A 3383  13.175  17.350   8.864 -0.2720  0.1143  0.2618
  212loPI   C2A 3384  13.309  17.229   8.456  0.0241 -0.0684  0.2502
  212loPI   C3A 3385  13.664  17.342   8.127  0.0025  0.1249 -0.1502
  212loPI   C4A 3386  13.667  17.335   7.742 -0.1268  0.0504 -0.0745
  212loPI   C5A 3387  13.469  17.103   7.344 -0.1295  0.0148  0.0476
  212loPI   C6A 3388  13.434  16.980   6.914 -0.0645  0.0276 -0.3090
  212loPI   C1B 3389  12.768  17.120   8.791 -0.0791  0.0356  0.1041
  212loPI   C2B 3390  12.883  16.990   8.483  0.2640 -0.0597  0.0502
  212loPI   C3B 3391  13.057  16.895   8.096  0.0332  0.0148 -0.1879
  212loPI   C4B 3392  12.979  16.947   7.657  0.0780  0.0223  0.0441
  213loPI    C1 3393  18.660  10.361   9.484 -0.1158  0.1283 -0.0730
  213loPI    C2 3394  18.380  10.436   9.761 -0.0247 -0.0576  0.0719
  213loPI    C3 3395  18.754  10.568   9.813  0.0168 -0.1794  0.0868
  213loPI   PO4 3396  18.612  10.446   9.245  0.0116  0.1654  0.2504
  213loPI   GL1 3397  18.685  10.150   8.823 -0.1658  0.0407 -0.1812
  213loPI   GL2 3398  18.343  10.351   8.786 -0.0896  0.5793 -0.3351
  213loPI   C1A 3399  18.830  10.454   8.558 -0.1569  0.0163  0.3931
  213loPI   C2A 3400  19.001  10.680   8.192  0.0728 -0.0962 -0.1759
  213loPI   C3A 3401  19.180  10.692   7.799  0.0361 -0.0349 -0.0879
  213loPI   C4A 3402  19.373  10.631   7.341 -0.0307  0.0876 -0.0610
  213loPI   C5A 3403  19.717  10.296   7.260 -0.1816  0.1346  0.1272
  213loPI   C6A 3404  19.978   9.898   7.007  0.0354 -0.2353 -0.0727
  213loPI   C1B 3405  18.371  10.387   8.337  0.1643  0.2639 -0.2829
  213loPI   C2B 3406  18.257  10.639   7.981 -0.3306 -0.0774 -0.0971
  213loPI   C3B 3407  18.227  10.816   7.488  0.1131 -0.4766 -0.1135
  213loPI   C4B 3408  18.075  10.954   7.079 -0.1217 -0.3530  0.2678
  214loPI    C1 3409   8.204  10.418   9.773  0.2017 -0.0667 -0.1239
  214loPI    C2 3410   8.111  10.169  10.072 -0.1174  0.0625 -0.1124
  214loPI    C3 3411   8.337  10.040   9.768  0.1201 -0.1005  0.1292
  214loPI   PO4 3412   8.031  10.476   9.646  0.0090 -0.0430 -0.1382
  214loPI   GL1 3413   8.062  10.339   9.296  0.0758 -0.0913  0.4352
  214loPI   GL2 3414   8.171  10.031   9.244  0.1340 -0.0581  0.2084
  214loPI   C1A 3415   8.283  10.664   8.972 -0.3345 -0.0297  0.0675
  214loPI   C2A 3416   8.234  10.817   8.460  0.1521  0.2200  0.1698
  214loPI   C3A 3417   8.204  11.026   8.110  0.0801  0.3773  0.0602
  214loPI   C4A 3418   7.856  10.983   7.826  0.1426  0.1115 -0.0539
  214loPI   C5A 3419   7.654  11.167   7.558  0.2193 -0.1783  0.0022
  214loPI   C6A 3420   7.459  11.443   7.314  0.0004  0.0018 -0.0262
  214loPI   C1B 3421   8.177  10.214   8.841  0.2953  0.0697  0.1322
  214loPI   C2B 3422   8.078  10.292   8.395 -0.1574  0.0087  0.0823
  214loPI   C3B 3423   8.235  10.442   8.050 -0.0368 -0.0528 -0.0076
  214loPI   C4B 3424   8.326  10.728   7.732  0.0695  0.1507  0.1743
  215loPI    C1 3425   4.543  10.298   9.830  0.0607  0.1215 -0.1355
  215loPI    C2 3426   4.394  10.093  10.139  0.0082  0.2764 -0.0571
  215loPI    C3 3427   4.790  10.121  10.090  0.0158  0.1847 -0.0494
  215loPI   PO4 3428   4.438  10.202   9.561 -0.1436  0.0500 -0.4124
  215loPI   GL1 3429   4.496  10.034   9.231  0.2233  0.2998 -0.1397
  215loPI   GL2 3430   4.260  10.033   9.005  0.0721  0.1153  0.2877
  215loPI   C1A 3431   4.817  10.173   8.875  0.1412 -0.0004 -0.3680
  215loPI   C2A 3432   5.159  10.180   8.471  0.2238  0.3930 -0.1409
  215loPI   C3A 3433   5.049  10.272   8.088  0.1710  0.1922  0.1195
  215loPI   C4A 3434   5.092  10.323   7.721 -0.0781  0.2375  0.1056
  215loPI   C5A 3435   5.069  10.561   7.379 -0.2161 -0.2245 -0.0227
  215loPI   C6A 3436   4.667  10.771   7.120  0.1667 -0.0831  0.2323
  215loPI   C1B 3437   4.356   9.845   8.631  0.0249  0.1819  0.0452
  215loPI   C2B 3438   4.456   9.835   8.171 -0.1695 -0.1564 -0.3110
  215loPI   C3B 3439   4.124   9.912   7.972  0.0972 -0.1798 -0.1772
  215loPI   C4B 3440   3.980  10.072   7.496  0.2351  0.0811  0.1004
  216loPI    C1 3441  18.479  18.313   9.919  0.1290 -0.1573 -0.0854
  216loPI    C2 3442  18.756  18.248  10.200  0.0085  0.3273  0.1572
  216loPI    C3 3443  18.369  18.253  10.299 -0.0679  0.0369 -0.1101
  216loPI   PO4 3444  18.570  18.368   9.713 -0.3587  0.2880  0.2342
  216loPI   GL1 3445  18.537  18.443   9.298 -0.0428  0.0658  0.0922
  216loPI   GL2 3446  18.624  18.033   9.307 -0.0786 -0.0200 -0.0343
  216loPI   C1A 3447  18.562  18.440   8.918 -0.1254  0.1468  0.0511
  216loPI   C2A 3448  18.418  18.441   8.527  0.2667  0.0853 -0.1073
  216loPI   C3A 3449  18.361  18.351   8.109 -0.0234  0.1861 -0.1041
  216loPI   C4A 3450  18.235  18.573   7.684  0.0616  0.1493  0.0746
  216loPI   C5A 3451  18.058  18.512   7.328 -0.1995 -0.2092 -0.0308
  216loPI   C6A 3452  17.882  18.200   7.068  0.0572  0.0896  0.3496
  216loPI   C1B 3453  18.659  17.927   8.935  0.0678  0.0762  0.1656
  216loPI   C2B 3454  18.369  17.893   8.597  0.0360  0.0006  0.2625
  216loPI   C3B 3455  18.435  17.888   8.209 -0.1642  0.0608  0.2153
  216loPI   C4B 3456  18.288  17.885   7.875 -0.0288 -0.2254  0.0802
  217loPI    C1 3457  12.781  17.684  10.153  0.0027  0.0341 -0.0934
  217loPI    C2 3458  12.734  17.441  10.467  0.2481 -0.0031 -0.0837
  217loPI    C3 3459  12.840  17.823  10.523  0.1314  0.0338 -0.1135
  217loPI   PO4 3460  12.859  17.522   9.869  0.0078 -0.1422 -0.1619
  217loPI   GL1 3461  12.984  17.716   9.455 -0.0648  0.1580  0.1495
  217loPI   GL2 3462  12.727  17.731   9.344 -0.1509  0.2365  0.0824
  217loPI   C1A 3463  13.347  17.687   9.206 -0.1450  0.0302  0.1509
  217loPI   C2A 3464  13.550  18.029   8.891 -0.0990  0.0021 -0.0218
  217loPI   C3A 3465  13.503  18.179   8.423  0.1211 -0.0994 -0.3792
  217loPI   C4A 3466  13.269  18.242   8.080 -0.0777  0.1236 -0.0459
  217loPI   C5A 3467  12.889  18.460   8.082  0.0743 -0.2814  0.1195
  217loPI   C6A 3468  12.517  18.553   8.338  0.0571  0.1271  0.0707
  217loPI   C1B 3469  12.941  17.796   8.897 -0.1997  0.2078  0.1247
  217loPI   C2B 3470  13.206  17.737   8.573 -0.1181  0.0045  0.1908
  217loPI   C3B 3471  13.378  17.732   8.235 -0.0449 -0.3292  0.1200
  217loPI   C4B 3472  13.459  17.814   7.875 -0.2785  0.1003 -0.2890
  218loPI    C1 3473  12.092  18.770  10.101  0.1302 -0.0039  0.0904
  218loPI    C2 3474  12.150  19.094  10.329  0.2774 -0.0203  0.0773
  218loPI    C3 3475  11.787  18.928  10.306  0.2007  0.1451  0.0817
  218loPI   PO4 3476  12.209  18.815   9.869 -0.0906 -0.1639  0.0927
  218loPI   GL1 3477  12.305  18.966   9.504  0.0243 -0.1939 -0.2777
  218loPI   GL2 3478  12.428  19.319   9.403  0.0088  0.0638 -0.3109
  218loPI   C1A 3479  12.106  18.940   9.082 -0.0546 -0.0439  0.1794
  218loPI   C2A 3480  12.074  18.610   8.755  0.0260 -0.0215 -0.1606
  218loPI   C3A 3481  11.971  18.399   8.436 -0.0453  0.3846  0.1955
  218loPI   C4A 3482  12.016  18.423   7.992 -0.0938  0.1212  0.1036
  218loPI   C5A 3483  11.855  18.441   7.573 -0.2147  0.1425  0.0424
  218loPI   C6A 3484  11.886  18.579   7.109  0.0569  0.1601 -0.2588
  218loPI   C1B 3485  12.809  19.431   9.318  0.0271 -0.0347 -0.0627
  218loPI   C2B 3486  13.023  19.358   8.866 -0.2351 -0.2978 -0.0561
  218loPI   C3B 3487  13.133  19.346   8.481  0.2282 -0.0121 -0.1475
  218loPI   C4B 3488  13.320  19.299   8.156 -0.1582 -0.1688  0.1716
  219loPI    C1 3489   5.645  12.177   9.258 -0.0620  0.0116 -0.0357
  219loPI    C2 3490   5.433  11.846   9.184  0.0304 -0.0539 -0.0100
  219loPI    C3 3491   5.536  11.939   9.560 -0.0056  0.0107 -0.0159
  219loPI   PO4 3492   5.642  12.451   9.134  0.0742 -0.1639 -0.2328
  219loPI   GL1 3493   6.033  12.777   9.061 -0.1225  0.1492 -0.1256
  219loPI   GL2 3494   6.139  12.538   8.800  0.2089  0.0650 -0.1004
  219loPI   C1A 3495   5.887  12.905   8.647 -0.0284 -0.0098 -0.3450
  219loPI   C2A 3496   5.787  13.055   8.292  0.1286 -0.0274  0.4433
  219loPI   C3A 3497   5.840  13.159   7.940  0.0128 -0.3122 -0.0145
  219loPI   C4A 3498   5.637  13.091   7.570 -0.0611 -0.0949 -0.0412
  219loPI   C5A 3499   5.581  12.730   7.357 -0.1198  0.2066 -0.2393
  219loPI   C6A 3500   5.471  12.515   6.948 -0.0183  0.0725  0.3383
  219loPI   C1B 3501   6.230  12.546   8.365 -0.1114  0.3826  0.0028
  219loPI   C2B 3502   6.065  12.629   7.954 -0.0791 -0.1394 -0.1368
  219loPI   C3B 3503   5.559  12.701   7.865  0.3344  0.0761 -0.0167
  219loPI   C4B 3504   5.288  12.227   7.939  0.2296  0.1346 -0.3014
  220loPI    C1 3505   7.033  12.650   9.532 -0.1876  0.0584  0.0291
  220loPI    C2 3506   6.888  12.329   9.343  0.1121 -0.0639  0.0010
  220loPI    C3 3507   6.804  12.389   9.730 -0.1525 -0.0393 -0.0583
  220loPI   PO4 3508   6.969  12.833   9.316 -0.1904 -0.2525 -0.2517
  220loPI   GL1 3509   6.937  12.981   8.952  0.2654 -0.0004  0.1023
  220loPI   GL2 3510   7.022  13.357   8.972  0.3079  0.0262 -0.2830
  220loPI   C1A 3511   7.124  12.734   8.546  0.0034  0.0708  0.0554
  220loPI   C2A 3512   7.173  12.698   8.186  0.4243  0.0427  0.1052
  220loPI   C3A 3513   7.059  12.586   7.750 -0.2005  0.1706 -0.0488
  220loPI   C4A 3514   7.195  12.581   7.378  0.0008 -0.2119 -0.0432
  220loPI   C5A 3515   7.096  12.748   6.910 -0.2393  0.1374 -0.1069
  220loPI   C6A 3516   7.124  12.521   6.478  0.1160  0.1868  0.0576
  220loPI   C1B 3517   7.283  13.182   8.669 -0.0595 -0.0148  0.0345
  220loPI   C2B 3518   7.366  13.157   8.240 -0.3206 -0.5105  0.0029
  220loPI   C3B 3519   7.270  13.103   7.776  0.0883  0.2926  0.0054
  220loPI   C4B 3520   7.182  13.067   7.355  0.1019 -0.0949  0.4493
  221loPI    C1 3521  16.369   9.404   9.422 -0.0606 -0.2739  0.0147
  221loPI    C2 3522  16.014   9.547   9.538 -0.0954 -0.2533 -0.1158
  221loPI    C3 3523  16.194   9.263   9.753 -0.0010  0.0216  0.1751
  221loPI   PO4 3524  16.291   9.331   9.173 -0.2785 -0.4118 -0.0569
  221loPI   GL1 3525  15.973   9.222   8.913 -0.0173  0.0194  0.0109
  221loPI   GL2 3526  15.806   9.411   9.099  0.0537 -0.0984 -0.3698
  221loPI   C1A 3527  16.031   9.323   8.433  0.0978  0.0051 -0.1027
  221loPI   C2A 3528  16.089   9.562   7.980  0.0374 -0.1674 -0.0165
  221loPI   C3A 3529  15.926   9.422   7.723 -0.4958  0.0425  0.2973
  221loPI   C4A 3530  16.011   9.513   7.312  0.0893 -0.0515 -0.0381
  221loPI   C5A 3531  16.255   9.918   7.062  0.3062 -0.0088 -0.1910
  221loPI   C6A 3532  16.610  10.013   7.140 -0.0467 -0.1992  0.0441
  221loPI   C1B 3533  15.561   9.454   8.618  0.2633  0.0214 -0.0350
  221loPI   C2B 3534  15.527   9.453   8.246 -0.1707  0.2815 -0.2447
  221loPI   C3B 3535  15.620   9.746   8.036 -0.2758  0.0587 -0.0363
  221loPI   C4B 3536  15.438   9.802   7.531 -0.2196 -0.2247 -0.0447
  222loPI    C1 3537  18.065   4.777   9.773  0.0970 -0.0379  0.0091
  222loPI    C2 3538  17.960   4.469  10.006 -0.2645  0.0735  0.0002
  222loPI    C3 3539  18.012   4.831  10.166  0.4058 -0.0332  0.0520
  222loPI   PO4 3540  17.859   4.731   9.555 -0.0678 -0.2099 -0.0904
  222loPI   GL1 3541  17.819   4.605   9.096 -0.2455 -0.0736  0.1547
  222loPI   GL2 3542  17.817   4.305   9.205 -0.0590 -0.1186 -0.2390
  222loPI   C1A 3543  18.238   4.465   8.959 -0.2887  0.0038 -0.0838
  222loPI   C2A 3544  18.370   4.316   8.511  0.1815  0.0384 -0.1430
  222loPI   C3A 3545  18.383   4.204   8.067  0.1927 -0.1248 -0.1005
  222loPI   C4A 3546  18.602   4.125   7.684  0.1015 -0.1311 -0.0672
  222loPI   C5A 3547  18.771   4.569   7.626 -0.1258 -0.1092  0.2830
  222loPI   C6A 3548  18.973   5.001   7.610 -0.0730  0.0402  0.2361
  222loPI   C1B 3549  17.933   4.114   8.785 -0.0552  0.1894 -0.3417
  222loPI   C2B 3550  17.877   4.170   8.268 -0.4476  0.0015 -0.1755
  222loPI   C3B 3551  17.679   4.369   7.861 -0.1144 -0.0629  0.0664
  222loPI   C4B 3552  17.572   4.508   7.507  0.1196  0.1082 -0.1178
  223loPI    C1 3553  17.879  18.997  10.220 -0.3668  0.1776 -0.2130
  223loPI    C2 3554  17.634  18.755  10.423 -0.0504  0.0129 -0.0190
  223loPI    C3 3555  17.820  19.055  10.611  0.2354 -0.1336 -0.0631
  223loPI   PO4 3556  17.800  18.939   9.970 -0.2108  0.0957 -0.2025
  223loPI   GL1 3557  17.752  18.975   9.593 -0.0280 -0.0237  0.1665
  223loPI   GL2 3558  17.585  18.820   9.361  0.0122 -0.2097 -0.1484
  223loPI   C1A 3559  17.903  19.251   9.204 -0.0984  0.1503 -0.0157
  223loPI   C2A 3560  17.797  19.337   8.675 -0.1951  0.1624 -0.3537
  223loPI   C3A 3561  17.904  19.362   8.323 -0.4715  0.0235  0.0675
  223loPI   C4A 3562  18.279  19.326   8.093 -0.0029 -0.1982 -0.1254
  223loPI   C5A 3563  18.339  19.147   7.678 -0.0080 -0.0638 -0.1134
  223loPI   C6A 3564  18.474  18.989   7.267 -0.0768  0.4148 -0.5348
  223loPI   C1B 3565  17.697  18.874   8.944  0.0655  0.3653 -0.2665
  223loPI   C2B 3566  17.518  19.007   8.408  0.1631 -0.1466 -0.4879
  223loPI   C3B 3567  17.371  18.926   8.050  0.1856 -0.0068  0.0467
  223loPI   C4B 3568  17.199  18.537   7.788 -0.1482  0.0680 -0.2090
  224loPI    C1 3569   0.981  14.875   9.443 -0.0446 -0.0144 -0.1526
  224loPI    C2 3570   1.350  14.885   9.597 -0.1321 -0.0651  0.0649
  224loPI    C3 3571   1.242  14.585   9.355 -0.0532 -0.0879  0.0575
  224loPI   PO4 3572   0.912  15.138   9.272 -0.0274  0.1030  0.3571
  224loPI   GL1 3573   0.711  15.181   8.926 -0.0949 -0.1611  0.2289
  224loPI   GL2 3574   0.696  14.896   8.856 -0.1989 -0.0271  0.0910
  224loPI   C1A 3575   0.365  15.285   8.695  0.1304 -0.0399 -0.1012
  224loPI   C2A 3576   0.316  15.292   8.286  0.1525 -0.3825  0.1017
  224loPI   C3A 3577   0.403  15.393   7.819  0.1422  0.0845  0.0599
  224loPI   C4A 3578   0.452  15.637   7.441 -0.1077 -0.0077 -0.0029
  224loPI   C5A 3579   0.396  15.656   6.970 -0.0360 -0.0385 -0.2737
  224loPI   C6A 3580   0.542  15.867   6.602 -0.1195 -0.2494 -0.0186
  224loPI   C1B 3581   0.488  14.808   8.447  0.1728 -0.0343  0.0812
  224loPI   C2B 3582   0.664  14.775   8.041  0.0197 -0.2032  0.1146
  224loPI   C3B 3583   0.999  14.709   7.808  0.1480  0.3816  0.1102
  224loPI   C4B 3584   1.169  14.392   7.449 -0.2385 -0.1660 -0.0274
  225loPI    C1 3585  18.861   9.661   9.708  0.3174  0.0125  0.1171
  225loPI    C2 3586  19.210   9.793   9.851  0.3667 -0.1478  0.1465
  225loPI    C3 3587  18.950   9.611  10.094  0.0210  0.4589  0.2509
  225loPI   PO4 3588  18.828   9.578   9.512  0.0318 -0.1116  0.0472
  225loPI   GL1 3589  18.852   9.617   9.076 -0.1000 -0.1514 -0.0095
  225loPI   GL2 3590  18.547   9.619   8.932  0.0129  0.1671 -0.1277
  225loPI   C1A 3591  18.868   9.735   8.632  0.0868 -0.2041  0.1600
  225loPI   C2A 3592  18.546   9.938   8.421 -0.2064 -0.1440  0.0251
  225loPI   C3A 3593  18.346  10.055   7.999  0.1211  0.1961 -0.1723
  225loPI   C4A 3594  18.308  10.216   7.567  0.0773  0.0844 -0.2067
  225loPI   C5A 3595  18.149  10.365   7.242 -0.1689  0.0020 -0.2606
  225loPI   C6A 3596  18.011  10.515   6.848 -0.3034  0.4039 -0.0447
  225loPI   C1B 3597  18.372   9.455   8.561  0.0181 -0.0739 -0.0728
  225loPI   C2B 3598  18.333   9.585   8.149  0.1092 -0.2813  0.0179
  225loPI   C3B 3599  18.406   9.392   7.760 -0.5081 -0.3821 -0.1490
  225loPI   C4B 3600  18.191   9.276   7.434 -0.0891 -0.0172  0.0057
  226loPI    C1 3601   2.754   9.798   9.849  0.0488  0.0428  0.1740
  226loPI    C2 3602   2.801  10.164  10.003 -0.0326  0.3361 -0.4641
  226loPI    C3 3603   2.477   9.947  10.096  0.2220  0.2357  0.2546
  226loPI   PO4 3604   2.810   9.925   9.609 -0.3994  0.2331 -0.2563
  226loPI   GL1 3605   2.893   9.845   9.249  0.1211  0.4042 -0.2795
  226loPI   GL2 3606   2.652  10.079   9.159  0.0440  0.3423 -0.1269
  226loPI   C1A 3607   2.885   9.451   8.980  0.0727  0.0602 -0.1988
  226loPI   C2A 3608   3.119   9.192   8.657  0.0967  0.0946 -0.3153
  226loPI   C3A 3609   3.131   9.073   8.221 -0.0281 -0.1580 -0.0131
  226loPI   C4A 3610   3.335   8.874   7.838 -0.0349 -0.4467  0.2863
  226loPI   C5A 3611   3.452   8.515   7.549 -0.0742 -0.2149 -0.0916
  226loPI   C6A 3612   3.487   8.081   7.304  0.0968  0.1472 -0.1926
  226loPI   C1B 3613   2.591  10.117   8.701  0.3455 -0.3846 -0.0422
  226loPI   C2B 3614   2.675  10.131   8.224 -0.1197  0.4969  0.1158
  226loPI   C3B 3615   2.513   9.962   7.717 -0.0619  0.1590 -0.3011
  226loPI   C4B 3616   2.350   9.777   7.377  0.0151  0.0523  0.0224
  227loPI    C1 3617   9.237   6.070  10.191  0.0164  0.1650 -0.1777
  227loPI    C2 3618   9.498   6.357  10.094  0.1514  0.0926 -0.0337
  227loPI    C3 3619   9.386   6.309  10.475  0.0509  0.0196 -0.0719
  227loPI   PO4 3620   9.065   6.102   9.975  0.1894  0.0071 -0.2409
  227loPI   GL1 3621   9.072   6.061   9.641 -0.1144 -0.2903  0.5299
  227loPI   GL2 3622   8.815   6.296   9.541 -0.5824  0.2244 -0.0304
  227loPI   C1A 3623   9.067   5.815   9.199  0.0611 -0.1974 -0.0191
  227loPI   C2A 3624   9.089   5.945   8.718 -0.0716 -0.0283  0.1298
  227loPI   C3A 3625   8.968   6.063   8.243 -0.2177  0.1092 -0.3067
  227loPI   C4A 3626   8.777   6.125   7.753 -0.2046 -0.1435  0.1899
  227loPI   C5A 3627   8.733   5.950   7.400  0.0789  0.0420  0.0751
  227loPI   C6A 3628   8.814   5.495   7.386  0.1459 -0.0491  0.0359
  227loPI   C1B 3629   8.921   6.279   9.189 -0.3649 -0.0715 -0.0075
  227loPI   C2B 3630   8.776   6.328   8.728  0.1317 -0.1867 -0.0502
  227loPI   C3B 3631   8.559   6.360   8.308  0.0507  0.0033 -0.2011
  227loPI   C4B 3632   8.675   6.580   7.913  0.0801 -0.0631  0.0446
  228loPI    C1 3633  12.558  12.566  10.340 -0.1091 -0.1196  0.0013
  228loPI    C2 3634  12.357  12.794  10.600 -0.1579  0.1883 -0.2983
  228loPI    C3 3635  12.707  12.632  10.705 -0.0669  0.4954 -0.1163
  228loPI   PO4 3636  12.374  12.519  10.118  0.2671  0.1701  0.0568
  228loPI   GL1 3637  12.356  12.627   9.644  0.1186  0.0550  0.3511
  228loPI   GL2 3638  12.446  12.261   9.546 -0.0479  0.2025 -0.0089
  228loPI   C1A 3639  12.287  12.621   9.173 -0.0011 -0.2410  0.0484
  228loPI   C2A 3640  12.323  12.742   8.795  0.2129  0.0632  0.2917
  228loPI   C3A 3641  12.166  12.695   8.362  0.1551 -0.2260 -0.0126
  228loPI   C4A 3642  11.793  12.624   8.118  0.0081  0.0852  0.1387
  228loPI   C5A 3643  11.998  12.664   7.724 -0.0927  0.3119  0.0356
  228loPI   C6A 3644  12.204  13.068   7.489  0.1885  0.0784 -0.0688
  228loPI   C1B 3645  12.530  12.187   9.100  0.0187  0.1365 -0.3254
  228loPI   C2B 3646  12.375  12.217   8.726 -0.2125 -0.1168 -0.2376
  228loPI   C3B 3647  12.421  12.226   8.326 -0.1399 -0.0459 -0.1999
  228loPI   C4B 3648  12.312  11.985   8.015 -0.0674  0.2037 -0.0474
  229loPI    C1 3649   2.984  19.281  10.341  0.1198  0.0469 -0.1443
  229loPI    C2 3650   3.228  19.294  10.658 -0.1385 -0.0064  0.0610
  229loPI    C3 3651   2.846  19.186  10.704 -0.1150 -0.2696 -0.3112
  229loPI   PO4 3652   3.215  19.223  10.169  0.3016 -0.2269  0.0316
  229loPI   GL1 3653   3.138  19.516   9.849  0.1075 -0.1929  0.0758
  229loPI   GL2 3654   3.408  19.370   9.715  0.2131  0.0937  0.1939
  229loPI   C1A 3655   3.128  19.838   9.563 -0.1774 -0.2743  0.1205
  229loPI   C2A 3656   3.168  20.025   9.173 -0.1164 -0.0304 -0.1336
  229loPI   C3A 3657   3.104  19.983   8.723  0.0174  0.0539  0.2621
  229loPI   C4A 3658   3.105  19.976   8.265  0.1683 -0.0316 -0.0375
  229loPI   C5A 3659   3.069  19.998   7.817  0.2577 -0.0354 -0.1338
  229loPI   C6A 3660   3.170  20.291   7.430 -0.0779  0.0708 -0.0124
  229loPI   C1B 3661   3.336  19.365   9.284  0.3012 -0.2787 -0.5163
  229loPI   C2B 3662   3.401  19.503   8.889  0.1646 -0.1196 -0.2304
  229loPI   C3B 3663   3.310  19.538   8.509 -0.0631  0.2551 -0.0188
  229loPI   C4B 3664   3.296  19.593   8.035  0.2896  0.1865  0.0665
  230loPI    C1 3665   9.798   7.737  10.095  0.0110 -0.0010 -0.0664
  230loPI    C2 3666   9.414   7.788  10.194  0.0135  0.0258 -0.0701
  230loPI    C3 3667   9.663   8.101  10.190  0.0948 -0.0329  0.1820
  230loPI   PO4 3668   9.804   7.490   9.878  0.3426 -0.0549 -0.0117
  230loPI   GL1 3669   9.654   7.435   9.411 -0.1172 -0.2022  0.2061
  230loPI   GL2 3670   9.472   7.132   9.458  0.0463  0.5353  0.0976
  230loPI   C1A 3671   9.977   7.519   9.100  0.3895 -0.0757 -0.0763
  230loPI   C2A 3672  10.245   7.448   8.800  0.0469 -0.0076  0.0000
  230loPI   C3A 3673  10.157   7.371   8.321 -0.1056 -0.0997 -0.0108
  230loPI   C4A 3674  10.090   7.378   7.794 -0.1414 -0.0426 -0.2100
  230loPI   C5A 3675  10.114   7.447   7.431  0.2402  0.0176 -0.4085
  230loPI   C6A 3676  10.126   7.438   6.964  0.1315  0.1306  0.3240
  230loPI   C1B 3677   9.670   7.038   9.011 -0.0573  0.0633  0.0133
  230loPI   C2B 3678   9.695   7.196   8.641  0.0485 -0.1753 -0.0976
  230loPI   C3B 3679   9.638   7.212   8.220 -0.5007  0.2324  0.1031
  230loPI   C4B 3680   9.570   7.139   7.717 -0.0532 -0.0226  0.0372
  231loPI    C1 3681   6.723   6.330  10.035  0.3080 -0.0600  0.0318
  231loPI    C2 3682   6.553   6.007  10.197  0.1438  0.0920  0.1665
  231loPI    C3 3683   6.700   6.295  10.433  0.1771  0.1737  0.0467
  231loPI   PO4 3684   6.895   6.274   9.855 -0.0841  0.0771 -0.1482
  231loPI   GL1 3685   7.070   6.101   9.470  0.1743  0.4250 -0.3083
  231loPI   GL2 3686   6.937   5.746   9.374 -0.0188  0.0202  0.0731
  231loPI   C1A 3687   7.103   6.372   9.186  0.1387 -0.1323  0.1158
  231loPI   C2A 3688   7.016   6.323   8.727 -0.0313  0.0749  0.0780
  231loPI   C3A 3689   6.806   6.505   8.379  0.3049 -0.0166  0.1107
  231loPI   C4A 3690   6.571   6.522   8.022  0.0345  0.2127 -0.2742
  231loPI   C5A 3691   6.138   6.519   7.946  0.1432  0.1476 -0.2402
  231loPI   C6A 3692   5.839   6.226   7.711 -0.1882  0.0136 -0.1972
  231loPI   C1B 3693   7.077   5.901   8.991 -0.1815  0.0283  0.0842
  231loPI   C2B 3694   7.355   5.904   8.682  0.1821 -0.4448  0.1024
  231loPI   C3B 3695   7.220   6.040   8.308 -0.0138 -0.0249 -0.3588
  231loPI   C4B 3696   7.355   5.999   7.856 -0.5672  0.2626 -0.1475
  232loPI    C1 3697  17.792  18.267  10.250 -0.2074 -0.0175  0.1265
  232loPI    C2 3698  17.976  18.248  10.604 -0.1483  0.3335  0.1185
  232loPI    C3 3699  17.584  18.326  10.587 -0.1356  0.3945  0.1038
  232loPI   PO4 3700  17.916  18.442  10.089  0.1058  0.0971  0.1105
  232loPI   GL1 3701  18.042  18.450   9.666  0.1994  0.1937  0.0424
  232loPI   GL2 3702  18.149  18.222   9.517  0.1377 -0.0057 -0.1170
  232loPI   C1A 3703  18.055  18.659   9.315 -0.2261  0.0364  0.4683
  232loPI   C2A 3704  18.045  18.560   8.846  0.0025  0.0410 -0.4696
  232loPI   C3A 3705  17.959  18.663   8.434  0.0740 -0.3287  0.4000
  232loPI   C4A 3706  17.908  18.887   7.986  0.1284 -0.1151  0.1314
  232loPI   C5A 3707  17.767  19.297   7.879 -0.0938 -0.1042  0.0158
  232loPI   C6A 3708  17.682  19.604   7.726 -0.0144 -0.2602 -0.0566
  232loPI   C1B 3709  18.137  18.094   9.037 -0.2644  0.1227 -0.1140
  232loPI   C2B 3710  17.871  18.165   8.654 -0.1209  0.2908 -0.2114
  232loPI   C3B 3711  17.924  18.046   8.254 -0.0983 -0.1513  0.0396
  232loPI   C4B 3712  17.860  18.125   7.747  0.1277  0.2688  0.1614
  233loPI    C1 3713  18.989  18.665  10.173  0.1410  0.0072  0.0767
  233loPI    C2 3714  18.765  18.994  10.132  0.2763  0.1086  0.1447
  233loPI    C3 3715  18.622  18.679  10.332  0.0426  0.0243 -0.1481
  233loPI   PO4 3716  19.109  18.592   9.976 -0.1199  0.2635 -0.0263
  233loPI   GL1 3717  19.040  18.418   9.485 -0.0604 -0.3778  0.1745
  233loPI   GL2 3718  19.072  18.176   9.408  0.3528 -0.0298  0.0299
  233loPI   C1A 3719  19.160  18.637   9.184  0.1287  0.5643 -0.0445
  233loPI   C2A 3720  19.279  18.817   8.737  0.0603 -0.0297 -0.0135
  233loPI   C3A 3721  19.240  19.155   8.418  0.0809 -0.0627 -0.0652
  233loPI   C4A 3722  19.571  19.309   8.101 -0.1572 -0.4601 -0.1560
  233loPI   C5A 3723  19.860  19.466   8.115  0.2489  0.0858 -0.3196
  233loPI   C6A 3724  20.136  19.747   7.914 -0.0583 -0.0393  0.1866
  233loPI   C1B 3725  19.029  18.238   8.917 -0.0114  0.3343  0.0603
  233loPI   C2B 3726  18.810  18.104   8.481  0.0570 -0.1681  0.2092
  233loPI   C3B 3727  18.848  18.250   8.085  0.1880 -0.3267  0.2211
  233loPI   C4B 3728  18.659  18.236   7.704  0.0689  0.2535 -0.0362
  234loPI    C1 3729  15.706   9.115   9.803  0.0733 -0.1439  0.1109
  234loPI    C2 3730  15.414   9.197  10.063  0.1730 -0.2488  0.2571
  234loPI    C3 3731  15.574   8.831  10.051  0.0209 -0.3071 -0.1009
  234loPI   PO4 3732  15.593   9.242   9.589  0.2311 -0.3901 -0.0387
  234loPI   GL1 3733  15.311   9.215   9.260  0.2622 -0.0171  0.1337
  234loPI   GL2 3734  15.522   8.968   9.158 -0.4243  0.0882  0.0738
  234loPI   C1A 3735  15.194   9.167   8.806  0.0198 -0.0940 -0.1200
  234loPI   C2A 3736  15.118   9.121   8.406  0.2235 -0.1920  0.0540
  234loPI   C3A 3737  15.037   9.405   8.000 -0.0350  0.0196  0.0205
  234loPI   C4A 3738  14.920   9.647   7.630  0.0648  0.5200 -0.4579
  234loPI   C5A 3739  14.930   9.874   7.322  0.0840 -0.1396 -0.0813
  234loPI   C6A 3740  14.740  10.182   6.999  0.2502  0.3998 -0.0683
  234loPI   C1B 3741  15.609   8.967   8.691 -0.0919 -0.0597  0.0344
  234loPI   C2B 3742  15.630   8.973   8.323  0.2005  0.2406 -0.3302
  234loPI   C3B 3743  15.400   9.059   7.937 -0.0875 -0.2388  0.2097
  234loPI   C4B 3744  15.197   9.172   7.616 -0.2975  0.1641 -0.1407
  235loPI    C1 3745  12.542  16.008   9.916  0.0498 -0.0202 -0.0170
  235loPI    C2 3746  12.395  15.756  10.190  0.1575 -0.2118 -0.1336
  235loPI    C3 3747  12.778  15.870  10.208  0.0864  0.0176 -0.0288
  235loPI   PO4 3748  12.408  16.186   9.730  0.2295  0.0424 -0.0476
  235loPI   GL1 3749  12.293  16.112   9.252  0.1232 -0.1392  0.0218
  235loPI   GL2 3750  12.316  15.783   9.057  0.1119  0.2161 -0.2370
  235loPI   C1A 3751  12.552  16.212   8.831 -0.1921 -0.3740  0.0023
  235loPI   C2A 3752  12.498  16.178   8.367 -0.0978 -0.0213  0.1232
  235loPI   C3A 3753  12.610  15.795   8.168  0.1140  0.0443  0.0192
  235loPI   C4A 3754  12.472  15.526   7.975  0.1206 -0.1637 -0.1843
  235loPI   C5A 3755  12.570  15.331   7.627 -0.2777  0.0526 -0.2971
  235loPI   C6A 3756  12.862  14.930   7.544 -0.0208 -0.0229 -0.0334
  235loPI   C1B 3757  12.273  15.721   8.597  0.1448  0.0793  0.1565
  235loPI   C2B 3758  11.978  15.455   8.294 -0.0345  0.0093 -0.2875
  235loPI   C3B 3759  11.877  15.474   8.000  0.0227  0.0490 -0.1985
  235loPI   C4B 3760  12.062  15.425   7.633 -0.0883 -0.0430 -0.2665
  236loPI    C1 3761  16.463   5.091   9.879  0.2359 -0.1237 -0.0351
  236loPI    C2 3762  16.793   5.212  10.069  0.1060 -0.0732  0.1614
  236loPI    C3 3763  16.539   4.963  10.250 -0.0127 -0.0350  0.0484
  236loPI   PO4 3764  16.586   5.089   9.650  0.0816  0.0349 -0.1944
  236loPI   GL1 3765  16.457   5.408   9.359 -0.2756 -0.3279 -0.0318
  236loPI   GL2 3766  16.298   5.704   9.485  0.0913  0.0826  0.1716
  236loPI   C1A 3767  16.779   5.512   9.041  0.0693  0.1315  0.1751
  236loPI   C2A 3768  17.013   5.767   8.807  0.1588 -0.2352 -0.1172
  236loPI   C3A 3769  17.023   5.930   8.417 -0.1423  0.0427 -0.0530
  236loPI   C4A 3770  16.971   6.046   7.967 -0.1038  0.1251  0.0633
  236loPI   C5A 3771  17.035   6.256   7.619  0.1389  0.1587 -0.0414
  236loPI   C6A 3772  17.315   6.440   7.339  0.0507 -0.0513  0.1195
  236loPI   C1B 3773  16.287   5.730   9.038  0.0235 -0.0280  0.4164
  236loPI   C2B 3774  16.428   5.587   8.618  0.2502 -0.2978 -0.2912
  236loPI   C3B 3775  16.663   5.598   8.278  0.0478  0.1285 -0.0044
  236loPI   C4B 3776  16.534   5.737   7.877  0.1475  0.0283  0.4136
  237loPI    C1 3777  14.720  13.872   9.854 -0.0567  0.0128  0.0446
  237loPI    C2 3778  14.643  14.062  10.198 -0.1931 -0.1969  0.1318
  237loPI    C3 3779  14.875  13.736  10.196 -0.0721 -0.1116  0.0025
  237loPI   PO4 3780  14.597  13.961   9.669  0.3048  0.1781  0.2365
  237loPI   GL1 3781  14.372  13.927   9.288 -0.0306  0.1268  0.0222
  237loPI   GL2 3782  14.549  14.276   9.267  0.1900 -0.0780 -0.0192
  237loPI   C1A 3783  14.600  13.909   8.897 -0.2060 -0.3669  0.1847
  237loPI   C2A 3784  14.714  13.735   8.517 -0.0374 -0.1342  0.1476
  237loPI   C3A 3785  14.665  13.685   8.052 -0.0695  0.2482  0.1141
  237loPI   C4A 3786  14.649  13.591   7.686 -0.2162 -0.2440 -0.0257
  237loPI   C5A 3787  14.776  13.258   7.341 -0.2068 -0.1633  0.3041
  237loPI   C6A 3788  15.205  13.157   7.096  0.0873 -0.0925  0.1057
  237loPI   C1B 3789  14.182  14.227   8.867  0.1416  0.0017  0.3288
  237loPI   C2B 3790  14.133  14.304   8.377  0.1990 -0.0350  0.0263
  237loPI   C3B 3791  14.375  14.165   8.050 -0.1788  0.1588 -0.3297
  237loPI   C4B 3792  14.351  13.975   7.661 -0.1132  0.0065 -0.1884
  238loPI    C1 3793  13.816   9.997   9.744  0.1135 -0.1551  0.0277
  238loPI    C2 3794  13.604   9.910   9.415  0.0720 -0.0315  0.0212
  238loPI    C3 3795  13.564   9.685   9.744 -0.1060  0.0196  0.0357
  238loPI   PO4 3796  13.982  10.056   9.719 -0.2957  0.3826  0.0594
  238loPI   GL1 3797  14.106  10.155   9.276  0.3755 -0.2173  0.2368
  238loPI   GL2 3798  14.177   9.822   9.082  0.0375 -0.1737 -0.0473
  238loPI   C1A 3799  14.009  10.487   8.951 -0.0455  0.0473  0.0729
  238loPI   C2A 3800  13.977  10.469   8.449 -0.1337  0.0616  0.0495
  238loPI   C3A 3801  13.746  10.563   8.059 -0.1581  0.1443  0.0284
  238loPI   C4A 3802  13.479  10.824   8.003 -0.1640  0.0882 -0.1335
  238loPI   C5A 3803  12.978  10.902   7.907  0.0107 -0.1963 -0.0684
  238loPI   C6A 3804  12.712  10.955   8.317  0.3427  0.3120  0.0696
  238loPI   C1B 3805  14.098  10.032   8.691  0.2283 -0.2122 -0.0206
  238loPI   C2B 3806  13.910   9.809   8.329 -0.2360  0.1041 -0.0284
  238loPI   C3B 3807  14.091   9.726   7.909  0.0395  0.0019 -0.0682
  238loPI   C4B 3808  14.414   9.558   7.667 -0.3215  0.2414  0.0361
  239loPI    C1 3809   6.492   5.397   9.723 -0.1754  0.0318 -0.0025
  239loPI    C2 3810   6.599   5.537  10.083 -0.0674 -0.0971  0.0163
  239loPI    C3 3811   6.372   5.208  10.055 -0.0801 -0.0842 -0.0331
  239loPI   PO4 3812   6.663   5.351   9.626  0.2283 -0.0310 -0.0936
  239loPI   GL1 3813   6.830   5.198   9.332 -0.1464  0.0633 -0.2246
  239loPI   GL2 3814   6.748   4.908   9.332  0.0701 -0.0973  0.1194
  239loPI   C1A 3815   7.116   5.365   8.985 -0.0309  0.0273 -0.2064
  239loPI   C2A 3816   7.021   5.577   8.568 -0.1256  0.0307  0.0012
  239loPI   C3A 3817   7.180   5.512   8.112  0.0978 -0.1832  0.0540
  239loPI   C4A 3818   6.995   5.520   7.678 -0.1147  0.2747  0.1078
  239loPI   C5A 3819   6.845   5.434   7.287  0.3810  0.0513  0.1833
  239loPI   C6A 3820   6.709   5.384   6.819  0.0193 -0.0595 -0.1264
  239loPI   C1B 3821   6.878   4.844   8.930  0.2033 -0.1455  0.1277
  239loPI   C2B 3822   6.615   4.743   8.584 -0.2023 -0.1808  0.1638
  239loPI   C3B 3823   6.661   4.659   8.069  0.0099  0.1738  0.1025
  239loPI   C4B 3824   6.792   4.406   7.675  0.1249  0.1709  0.2371
  240loPI    C1 3825   3.967  14.365   9.618  0.0893  0.0549 -0.0138
  240loPI    C2 3826   3.720  14.059   9.689 -0.0949  0.1767 -0.1216
  240loPI    C3 3827   4.083  14.066   9.857 -0.0774 -0.1140 -0.1412
  240loPI   PO4 3828   3.944  14.368   9.358  0.0653 -0.0398  0.0700
  240loPI   GL1 3829   3.955  14.175   8.991  0.2075 -0.2114  0.0137
  240loPI   GL2 3830   3.621  14.231   8.933 -0.1572 -0.1334  0.0424
  240loPI   C1A 3831   3.942  14.117   8.602  0.2312 -0.2457 -0.0081
  240loPI   C2A 3832   4.022  14.273   8.165  0.2545 -0.1564  0.2730
  240loPI   C3A 3833   3.782  14.386   7.778  0.3265  0.2696  0.0928
  240loPI   C4A 3834   3.472  14.520   7.432 -0.3360  0.0152 -0.1053
  240loPI   C5A 3835   3.115  14.534   7.102 -0.0627 -0.2914 -0.1874
  240loPI   C6A 3836   2.946  14.107   7.088  0.0992 -0.0461  0.1591
  240loPI   C1B 3837   3.325  14.495   8.549 -0.2609  0.1180 -0.0008
  240loPI   C2B 3838   3.101  14.708   8.455 -0.1151 -0.0245 -0.0153
  240loPI   C3B 3839   2.712  15.002   8.340 -0.3719 -0.1852 -0.1877
  240loPI   C4B 3840   2.591  15.435   8.462  0.0553  0.2260  0.0734
  241loPI    C1 3841   5.083   7.475   9.983 -0.1282  0.2471 -0.1052
  241loPI    C2 3842   4.874   7.610  10.296  0.1637  0.2754  0.0814
  241loPI    C3 3843   5.269   7.558  10.327  0.1726  0.1309 -0.2364
  241loPI   PO4 3844   4.937   7.335   9.817  0.1242 -0.1677  0.5252
  241loPI   GL1 3845   4.789   7.479   9.450  0.0437  0.1419 -0.1560
  241loPI   GL2 3846   4.464   7.460   9.431 -0.0717 -0.0014 -0.3155
  241loPI   C1A 3847   4.904   7.298   9.041  0.0985 -0.1357  0.1657
  241loPI   C2A 3848   4.993   6.950   8.882  0.0775  0.0659  0.0140
  241loPI   C3A 3849   4.961   6.837   8.407  0.0206 -0.2217  0.1049
  241loPI   C4A 3850   5.069   6.659   7.968 -0.0264  0.0343  0.2237
  241loPI   C5A 3851   5.216   6.587   7.499  0.2187  0.1935 -0.0836
  241loPI   C6A 3852   5.098   6.406   7.045 -0.3054  0.0813  0.3288
  241loPI   C1B 3853   4.369   7.510   9.038  0.1533  0.1878 -0.1322
  241loPI   C2B 3854   4.632   7.789   8.771  0.0482 -0.0846 -0.1877
  241loPI   C3B 3855   4.818   7.885   8.438 -0.2438  0.1362  0.0549
  241loPI   C4B 3856   4.849   7.757   8.029  0.0285  0.3874 -0.0263
  242loPI    C1 3857  16.727  17.691  10.125 -0.0684  0.3272 -0.0209
  242loPI    C2 3858  17.002  17.849   9.882  0.0143  0.1901 -0.0175
  242loPI    C3 3859  17.098  17.757  10.259 -0.0445  0.1705 -0.0073
  242loPI   PO4 3860  16.534  17.551   9.946 -0.0168  0.0587 -0.2363
  242loPI   GL1 3861  16.501  17.254   9.635  0.2579  0.0351 -0.0659
  242loPI   GL2 3862  16.878  17.276   9.715 -0.0481 -0.2340  0.2670
  242loPI   C1A 3863  16.500  17.110   9.271  0.2787  0.0262 -0.2658
  242loPI   C2A 3864  16.382  17.392   8.970 -0.3187 -0.1850 -0.0469
  242loPI   C3A 3865  16.119  17.531   8.654  0.1202  0.1326 -0.0593
  242loPI   C4A 3866  16.021  17.629   8.299  0.1636 -0.0869  0.1897
  242loPI   C5A 3867  16.165  17.595   7.809  0.1197 -0.0243  0.2583
  242loPI   C6A 3868  16.465  17.688   7.497 -0.2142 -0.0865 -0.0596
  242loPI   C1B 3869  17.044  17.156   9.375  0.2047  0.1773 -0.0643
  242loPI   C2B 3870  16.929  17.097   8.994  0.0265 -0.2056 -0.1364
  242loPI   C3B 3871  16.720  17.154   8.629  0.3307 -0.1512  0.1006
  242loPI   C4B 3872  16.299  17.042   8.617  0.1589 -0.0823 -0.2284
  243loPI    C1 3873  18.396   6.191  10.130 -0.1725  0.0547 -0.1101
  243loPI    C2 3874  18.711   6.435  10.095 -0.1514  0.0341 -0.0649
  243loPI    C3 3875  18.420   6.521  10.355 -0.0309 -0.1101  0.1215
  243loPI   PO4 3876  18.310   6.134   9.863 -0.0116 -0.0384  0.0640
  243loPI   GL1 3877  18.493   6.228   9.551 -0.1026  0.2229 -0.0483
  243loPI   GL2 3878  18.312   5.877   9.457  0.1903 -0.1449 -0.3024
  243loPI   C1A 3879  18.634   6.239   9.039  0.2035 -0.0675 -0.2387
  243loPI   C2A 3880  18.913   6.148   8.635 -0.0449 -0.2606 -0.1046
  243loPI   C3A 3881  18.956   5.836   8.368 -0.2444  0.5913  0.0996
  243loPI   C4A 3882  19.026   5.525   8.076 -0.3459  0.0788  0.5357
  243loPI   C5A 3883  19.350   5.407   7.783 -0.0170 -0.1584  0.4418
  243loPI   C6A 3884  19.417   5.174   7.483  0.2984  0.0769  0.0635
  243loPI   C1B 3885  18.140   6.069   9.030  0.2704  0.0696  0.1916
  243loPI   C2B 3886  18.022   6.103   8.701  0.0745 -0.1927  0.3317
  243loPI   C3B 3887  17.996   6.300   8.335  0.1657  0.2813  0.0116
  243loPI   C4B 3888  17.754   6.549   8.174  0.2503 -0.1171  0.4622
  244loPI    C1 3889   4.744   4.483   9.996 -0.2706 -0.1234  0.1551
  244loPI    C2 3890   4.979   4.288  10.255 -0.1304 -0.0494  0.0849
  244loPI    C3 3891   4.770   4.607  10.375 -0.0038  0.0328  0.0884
  244loPI   PO4 3892   4.887   4.427   9.776 -0.3168  0.0217 -0.0510
  244loPI   GL1 3893   5.046   4.356   9.328 -0.1028 -0.0409  0.1248
  244loPI   GL2 3894   4.834   4.087   9.339 -0.3355  0.1794 -0.1789
  244loPI   C1A 3895   5.134   4.301   8.817  0.2352 -0.1247 -0.0866
  244loPI   C2A 3896   5.041   4.193   8.422 -0.2071 -0.0124 -0.1283
  244loPI   C3A 3897   5.153   4.220   7.970 -0.2120  0.0194  0.0222
  244loPI   C4A 3898   5.150   4.151   7.481 -0.0414 -0.0279  0.2776
  244loPI   C5A 3899   5.151   4.151   7.030  0.1110  0.0223 -0.2876
  244loPI   C6A 3900   5.323   3.965   6.685 -0.0032  0.0204 -0.3444
  244loPI   C1B 3901   4.657   4.199   9.014  0.1494  0.2823  0.1298
  244loPI   C2B 3902   4.566   4.247   8.491  0.2194 -0.3634 -0.0077
  244loPI   C3B 3903   4.684   4.256   8.114  0.1413  0.0828  0.2740
  244loPI   C4B 3904   4.676   4.312   7.689 -0.0737  0.0120 -0.2153
  245loPI    C1 3905   6.660   4.762  10.056  0.0528 -0.1686 -0.0141
  245loPI    C2 3906   7.050   4.724  10.135  0.0994  0.1923 -0.0557
  245loPI    C3 3907   6.849   5.044  10.267 -0.1643  0.0509 -0.1080
  245loPI   PO4 3908   6.671   4.789   9.815 -0.0418  0.1236 -0.0458
  245loPI   GL1 3909   6.594   4.434   9.580  0.2233  0.1302  0.0633
  245loPI   GL2 3910   6.392   4.210   9.453 -0.3472 -0.1679  0.0862
  245loPI   C1A 3911   6.788   4.312   9.126  0.0200  0.2607  0.4680
  245loPI   C2A 3912   7.094   4.428   8.836 -0.1017  0.2005 -0.5358
  245loPI   C3A 3913   7.118   4.486   8.382  0.1699  0.2853 -0.0931
  245loPI   C4A 3914   7.173   4.365   8.017  0.0064 -0.0494 -0.0056
  245loPI   C5A 3915   7.266   4.101   7.636  0.1608 -0.0390 -0.1533
  245loPI   C6A 3916   7.659   3.859   7.392  0.0409 -0.1973  0.2280
  245loPI   C1B 3917   6.371   4.582   9.115  0.1260  0.0325 -0.2382
  245loPI   C2B 3918   6.428   5.002   8.955  0.0799 -0.0961  0.1403
  245loPI   C3B 3919   6.576   5.310   8.768 -0.4332  0.1160  0.0407
  245loPI   C4B 3920   6.656   5.670   8.897  0.0137 -0.2250 -0.1151
  246loPI    C1 3921  13.223   6.007  10.469  0.0652 -0.3658  0.0770
  246loPI    C2 3922  12.997   6.255  10.687  0.0157 -0.4560  0.1291
  246loPI    C3 3923  13.388   6.221  10.764  0.1181 -0.0490 -0.1776
  246loPI   PO4 3924  12.995   5.902  10.271  0.0224  0.1682  0.1956
  246loPI   GL1 3925  13.120   5.967   9.926  0.1312  0.1048 -0.0891
  246loPI   GL2 3926  12.738   5.813   9.874 -0.0211 -0.1403  0.0716
  246loPI   C1A 3927  13.054   5.893   9.498  0.0007 -0.3065 -0.1845
  246loPI   C2A 3928  13.264   6.010   9.109  0.0631 -0.0122  0.0138
  246loPI   C3A 3929  13.174   6.174   8.669 -0.0962  0.2084  0.0870
  246loPI   C4A 3930  12.929   6.085   8.210 -0.4324  0.0278  0.2209
  246loPI   C5A 3931  12.725   6.236   7.868 -0.0959 -0.1034 -0.0665
  246loPI   C6A 3932  12.584   6.498   7.574  0.2958  0.1184 -0.0950
  246loPI   C1B 3933  12.640   5.706   9.572  0.1693 -0.0449 -0.5266
  246loPI   C2B 3934  12.686   5.732   9.151  0.1162 -0.1792 -0.1504
  246loPI   C3B 3935  12.966   5.724   8.881  0.2440 -0.4779 -0.1696
  246loPI   C4B 3936  13.254   5.577   8.796  0.2187 -0.4175 -0.2731
  247loPI    C1 3937  11.529  12.085   9.740  0.2313  0.0185 -0.1641
  247loPI    C2 3938  11.527  12.483   9.771 -0.0787  0.0065  0.0086
  247loPI    C3 3939  11.573  12.257  10.098 -0.0610 -0.1011 -0.0681
  247loPI   PO4 3940  11.655  11.995   9.562 -0.0556  0.3255 -0.0759
  247loPI   GL1 3941  12.033  12.128   9.393 -0.0013  0.0064  0.1496
  247loPI   GL2 3942  11.829  12.415   9.415  0.1230 -0.4449  0.0977
  247loPI   C1A 3943  11.904  12.079   8.988  0.0108  0.0851 -0.1416
  247loPI   C2A 3944  11.875  12.254   8.558 -0.1221  0.0151 -0.4685
  247loPI   C3A 3945  11.728  12.102   8.180 -0.1668 -0.2112  0.2230
  247loPI   C4A 3946  11.821  12.169   7.807  0.0175 -0.1771 -0.0465
  247loPI   C5A 3947  11.923  12.188   7.353  0.2576 -0.2079  0.0403
  247loPI   C6A 3948  11.961  11.941   7.009  0.0170  0.2533 -0.0788
  247loPI   C1B 3949  11.894  12.535   8.932 -0.0530 -0.1830  0.0202
  247loPI   C2B 3950  11.728  12.720   8.615  0.1538  0.2077 -0.2255
  247loPI   C3B 3951  11.827  13.154   8.379  0.0949  0.2226 -0.3221
  247loPI   C4B 3952  11.945  13.189   7.983  0.0207  0.0469  0.1603
  248loPI    C1 3953   1.155   6.418   9.889  0.2201  0.0047  0.1400
  248loPI    C2 3954   1.119   6.260  10.255 -0.2823 -0.0003  0.0956
  248loPI    C3 3955   1.206   6.648  10.212  0.1434 -0.0779  0.2117
  248loPI   PO4 3956   0.942   6.352   9.730 -0.1360  0.0159 -0.3765
  248loPI   GL1 3957   0.780   6.421   9.388 -0.1149  0.0532 -0.2455
  248loPI   GL2 3958   0.921   6.772   9.328  0.1918 -0.0787 -0.3460
  248loPI   C1A 3959   0.661   6.454   9.002 -0.0264 -0.2977  0.3932
  248loPI   C2A 3960   0.662   6.391   8.500 -0.2100  0.0093  0.2065
  248loPI   C3A 3961   0.703   6.497   8.093  0.2146  0.1606 -0.3866
  248loPI   C4A 3962   0.412   6.874   8.170 -0.0066  0.1853  0.0456
  248loPI   C5A 3963   0.099   7.061   8.381 -0.0562 -0.2441 -0.0480
  248loPI   C6A 3964  -0.199   7.049   8.769 -0.1529  0.0025  0.1469
  248loPI   C1B 3965   1.128   6.636   8.959 -0.0707  0.1697 -0.0636
  248loPI   C2B 3966   1.178   6.376   8.623  0.0021 -0.0286  0.3830
  248loPI   C3B 3967   1.225   6.432   8.071  0.0502 -0.0162  0.0958
  248loPI   C4B 3968   1.044   6.730   7.754  0.2969  0.1779  0.0756
  249loPI    C1 3969  10.253  12.760   9.913 -0.2784  0.1724  0.1670
  249loPI    C2 3970  10.619  12.658  10.037 -0.2634 -0.1605 -0.1345
  249loPI    C3 3971  10.298  12.544  10.246 -0.2071 -0.0570  0.0104
  249loPI   PO4 3972  10.404  12.947   9.675  0.0377  0.1395  0.0719
  249loPI   GL1 3973  10.456  13.006   9.349  0.2164 -0.5754 -0.0559
  249loPI   GL2 3974  10.608  12.774   9.164  0.0897 -0.0617 -0.0328
  249loPI   C1A 3975  10.396  13.164   8.939 -0.0796  0.1536  0.0248
  249loPI   C2A 3976  10.336  13.224   8.472 -0.3282 -0.1884 -0.2691
  249loPI   C3A 3977  10.346  13.361   8.034  0.0403 -0.1234 -0.4470
  249loPI   C4A 3978  10.206  13.157   7.588  0.1556  0.0085 -0.1344
  249loPI   C5A 3979  10.010  13.312   7.200  0.0306  0.3867  0.1188
  249loPI   C6A 3980  10.104  13.541   6.853  0.0742 -0.1301 -0.0220
  249loPI   C1B 3981  10.839  12.920   8.846  0.0317 -0.4015 -0.1157
  249loPI   C2B 3982  10.862  12.955   8.357 -0.0759  0.1583  0.1259
  249loPI   C3B 3983  11.376  12.913   8.156  0.2295 -0.0137 -0.1990
  249loPI   C4B 3984  11.507  13.114   7.814 -0.2084  0.0232 -0.0967
  250loPI    C1 3985   8.037  13.132   9.701 -0.0721  0.2194 -0.0347
  250loPI    C2 3986   7.927  12.783   9.863 -0.0770  0.0907 -0.3096
  250loPI    C3 3987   7.767  13.124   9.996  0.2587  0.0356  0.2713
  250loPI   PO4 3988   8.031  13.137   9.431 -0.1875 -0.0080 -0.0979
  250loPI   GL1 3989   8.377  12.977   9.173  0.2164  0.2878 -0.2388
  250loPI   GL2 3990   8.182  12.885   9.011  0.0056  0.2302 -0.2779
  250loPI   C1A 3991   8.593  13.030   8.797 -0.1461  0.0559  0.2296
  250loPI   C2A 3992   8.453  13.137   8.394  0.2706 -0.0659 -0.2953
  250loPI   C3A 3993   8.516  13.065   7.943  0.0113  0.1428  0.4977
  250loPI   C4A 3994   8.481  13.119   7.530  0.3587 -0.0750 -0.0466
  250loPI   C5A 3995   8.486  13.333   7.131  0.1893 -0.3129  0.0935
  250loPI   C6A 3996   8.355  13.250   6.667  0.1372  0.1192  0.4239
  250loPI   C1B 3997   8.155  12.736   8.588 -0.0418 -0.2874 -0.0880
  250loPI   C2B 3998   8.172  12.746   8.157  0.0777 -0.1229 -0.0733
  250loPI   C3B 3999   8.065  12.852   7.691 -0.1424 -0.0492  0.2505
  250loPI   C4B 4000   8.097  12.978   7.248 -0.2333 -0.1607  0.0549
  251loPI    C1 4001   2.595  13.023   9.827  0.0922 -0.1516 -0.0880
  251loPI    C2 4002   2.915  13.222   9.960  0.1187 -0.2610  0.0136
  251loPI    C3 4003   2.740  12.947  10.191 -0.2175 -0.0066  0.0696
  251loPI   PO4 4004   2.735  13.003   9.547 -0.0272 -0.2280  0.2426
  251loPI   GL1 4005   2.649  13.061   9.134 -0.1848 -0.2806 -0.2140
  251loPI   GL2 4006   2.689  12.705   8.998  0.1837  0.1047 -0.2636
  251loPI   C1A 4007   2.597  13.188   8.703  0.1947 -0.0758  0.1372
  251loPI   C2A 4008   2.781  13.176   8.332 -0.1884 -0.0835 -0.1037
  251loPI   C3A 4009   3.024  13.431   7.997  0.0579  0.0698 -0.3252
  251loPI   C4A 4010   3.343  13.467   7.647 -0.0479  0.0465 -0.0740
  251loPI   C5A 4011   3.614  13.086   7.552 -0.0422 -0.1019 -0.1145
  251loPI   C6A 4012   3.759  12.732   7.360  0.4231  0.1050 -0.2131
  251loPI   C1B 4013   2.739  12.667   8.560  0.2318 -0.0392 -0.1376
  251loPI   C2B 4014   2.911  12.500   8.185  0.3619 -0.3065  0.1418
  251loPI   C3B 4015   2.880  12.468   7.748 -0.3817  0.3225  0.1224
  251loPI   C4B 4016   2.992  12.217   7.287 -0.0389 -0.2664  0.0771
  252loPI    C1 4017   2.377  16.235  10.318 -0.2143  0.1863  0.3353
  252loPI    C2 4018   2.514  15.859  10.324  0.0293  0.2601 -0.1450
  252loPI    C3 4019   2.668  16.132  10.573 -0.0357  0.0820  0.0934
  252loPI   PO4 4020   2.380  16.199   9.979  0.0163 -0.0771 -0.1586
  252loPI   GL1 4021   2.281  16.337   9.495  0.1948  0.0391 -0.0138
  252loPI   GL2 4022   2.112  16.158   9.265  0.0894  0.2078  0.0750
  252loPI   C1A 4023   2.511  16.641   9.170 -0.1894  0.0449 -0.1015
  252loPI   C2A 4024   2.534  16.726   8.750  0.0163 -0.0548  0.0999
  252loPI   C3A 4025   2.726  17.061   8.400 -0.0041  0.0769 -0.0729
  252loPI   C4A 4026   3.024  17.375   8.100 -0.3412 -0.0634 -0.1510
  252loPI   C5A 4027   2.994  17.751   7.777  0.2238 -0.0637  0.0843
  252loPI   C6A 4028   3.047  17.849   7.272 -0.3414 -0.1292 -0.1801
  252loPI   C1B 4029   2.322  16.140   8.841  0.0395  0.0849  0.1733
  252loPI   C2B 4030   2.311  16.285   8.425  0.0560 -0.0715  0.0477
  252loPI   C3B 4031   2.317  16.745   8.279 -0.1719  0.0765  0.3786
  252loPI   C4B 4032   2.444  17.140   8.023 -0.0227  0.4787  0.1865
  253loPI    C1 4033  11.421   6.960   9.986  0.2026  0.1941  0.1282
  253loPI    C2 4034  11.046   7.030  10.106  0.1188  0.0882 -0.0669
  253loPI    C3 4035  11.306   6.857  10.355  0.0915  0.3279  0.1318
  253loPI   PO4 4036  11.515   7.228   9.927  0.5120  0.0869  0.0668
  253loPI   GL1 4037  11.525   7.545   9.552 -0.0679  0.2061 -0.0137
  253loPI   GL2 4038  11.510   7.199   9.409 -0.1107 -0.0912  0.0499
  253loPI   C1A 4039  11.783   7.721   9.233  0.1387  0.0647  0.2837
  253loPI   C2A 4040  11.739   7.571   8.794 -0.0459 -0.2695  0.0163
  253loPI   C3A 4041  11.558   7.564   8.420  0.1494  0.1064 -0.2370
  253loPI   C4A 4042  11.256   7.504   8.047 -0.0662  0.3127 -0.1612
  253loPI   C5A 4043  11.015   7.220   7.693 -0.0838  0.2225 -0.0024
  253loPI   C6A 4044  10.840   6.853   7.452  0.3593  0.0859  0.2279
  253loPI   C1B 4045  11.393   7.222   8.971 -0.2923  0.0596  0.2348
  253loPI   C2B 4046  11.297   7.170   8.431  0.0213  0.3961 -0.2291
  253loPI   C3B 4047  11.483   7.038   7.963 -0.1472  0.3447 -0.1075
  253loPI   C4B 4048  11.372   6.897   7.598  0.0501  0.0210  0.1562
  254loPI    C1 4049  16.209   2.822   9.811 -0.1838  0.2958  0.2774
  254loPI    C2 4050  16.479   2.630  10.035  0.0195  0.1739 -0.0637
  254loPI    C3 4051  16.096   2.642  10.150  0.1094  0.0678  0.2587
  254loPI   PO4 4052  16.240   2.626   9.505 -0.1465  0.1979  0.2150
  254loPI   GL1 4053  16.306   2.750   9.049  0.1898  0.0568 -0.7562
  254loPI   GL2 4054  15.980   2.613   8.936  0.1127 -0.1614  0.2139
  254loPI   C1A 4055  16.588   3.105   8.952  0.1321  0.0604  0.2155
  254loPI   C2A 4056  16.571   3.245   8.507  0.2982  0.0701  0.0787
  254loPI   C3A 4057  16.304   3.325   8.205 -0.1027 -0.1203  0.2062
  254loPI   C4A 4058  16.249   3.565   7.907 -0.0988 -0.1902 -0.3758
  254loPI   C5A 4059  15.906   3.694   7.534  0.2341 -0.0685 -0.0526
  254loPI   C6A 4060  15.712   4.083   7.482 -0.0062 -0.0105 -0.0595
  254loPI   C1B 4061  16.015   2.544   8.481 -0.3879  0.0252 -0.1836
  254loPI   C2B 4062  16.082   2.319   8.109 -0.1519  0.1609  0.0636
  254loPI   C3B 4063  16.462   2.347   7.961  0.0035 -0.3550 -0.2223
  254loPI   C4B 4064  16.709   2.267   7.607 -0.0062  0.3178  0.0338
  255loPI    C1 4065   2.148  18.211  10.268 -0.0319 -0.1925  0.0234
  255loPI    C2 4066   1.935  17.910  10.422  0.1163 -0.3128 -0.0043
  255loPI    C3 4067   1.809  18.287  10.466  0.0305 -0.3638  0.1986
  255loPI   PO4 4068   2.245  18.091  10.039  0.2263 -0.2551 -0.1034
  255loPI   GL1 4069   2.094  18.246   9.663  0.1728 -0.1015 -0.2517
  255loPI   GL2 4070   2.033  18.533   9.822  0.1232 -0.1750 -0.3031
  255loPI   C1A 4071   2.082  18.207   9.240  0.0850 -0.0724 -0.1031
  255loPI   C2A 4072   1.943  18.154   8.760  0.1465  0.0448  0.0028
  255loPI   C3A 4073   1.894  18.193   8.250 -0.2184 -0.1264 -0.1172
  255loPI   C4A 4074   1.769  18.469   7.923  0.2453 -0.0278 -0.0410
  255loPI   C5A 4075   1.440  18.702   7.644  0.1477 -0.2919  0.2018
  255loPI   C6A 4076   0.991  18.819   7.327 -0.0176  0.1059 -0.2491
  255loPI   C1B 4077   2.317  18.559   9.395 -0.1661 -0.0083 -0.1418
  255loPI   C2B 4078   2.359  18.560   8.987  0.0281  0.1665 -0.1381
  255loPI   C3B 4079   2.296  18.492   8.574  0.2906  0.2708 -0.1252
  255loPI   C4B 4080   2.429  18.337   8.231  0.1228  0.0797  0.1492
  256loPI    C1 4081  18.635  16.372   9.793  0.1594  0.1345 -0.2816
  256loPI    C2 4082  18.843  16.713   9.777  0.0306  0.2214 -0.1345
  256loPI    C3 4083  18.574  16.657  10.067 -0.0007  0.0237 -0.2006
  256loPI   PO4 4084  18.494  16.378   9.618 -0.0536 -0.4539 -0.0057
  256loPI   GL1 4085  18.434  16.501   9.194 -0.2818 -0.0491  0.3336
  256loPI   GL2 4086  18.687  16.734   9.332  0.1140 -0.0238  0.0682
  256loPI   C1A 4087  18.509  16.672   8.706 -0.2054  0.1313  0.2792
  256loPI   C2A 4088  18.340  16.640   8.284 -0.2171 -0.0089 -0.2084
  256loPI   C3A 4089  18.317  16.441   7.921 -0.0775 -0.0915 -0.0417
  256loPI   C4A 4090  18.041  16.276   7.682  0.1472  0.1666 -0.1212
  256loPI   C5A 4091  17.940  16.625   7.520  0.0645 -0.1209 -0.0974
  256loPI   C6A 4092  18.097  16.944   7.256 -0.0424 -0.0875 -0.0246
  256loPI   C1B 4093  18.917  16.737   8.924 -0.1658  0.1785 -0.0828
  256loPI   C2B 4094  18.922  16.900   8.546  0.0020 -0.0099 -0.0391
  256loPI   C3B 4095  18.614  17.046   8.184 -0.1247 -0.3024  0.0022
  256loPI   C4B 4096  18.396  17.384   8.149 -0.2348 -0.1026  0.1106
  257loPI    C1 4097  16.071   1.749  10.017 -0.0445  0.0563 -0.1472
  257loPI    C2 4098  16.020   1.356  10.073  0.2502  0.0474  0.0825
  257loPI    C3 4099  15.923   1.614  10.363  0.1693  0.1362 -0.0227
  257loPI   PO4 4100  15.975   1.764   9.690 -0.2273 -0.1009 -0.0600
  257loPI   GL1 4101  15.801   1.492   9.436  0.1413 -0.1013  0.2039
  257loPI   GL2 4102  16.080   1.294   9.457 -0.2540  0.0712 -0.0408
  257loPI   C1A 4103  15.831   1.569   8.953 -0.0382  0.0382 -0.0312
  257loPI   C2A 4104  15.773   1.473   8.457 -0.2645 -0.1696 -0.3753
  257loPI   C3A 4105  15.881   1.411   8.037  0.1607 -0.2464  0.0671
  257loPI   C4A 4106  15.675   1.589   7.702  0.1585 -0.2034  0.0189
  257loPI   C5A 4107  15.744   1.789   7.333 -0.0376 -0.1533 -0.0271
  257loPI   C6A 4108  15.564   2.181   7.367 -0.1713 -0.4213 -0.1421
  257loPI   C1B 4109  15.698   1.114   9.144 -0.0556 -0.0403  0.0341
  257loPI   C2B 4110  15.489   1.144   8.738 -0.0129  0.0004 -0.0297
  257loPI   C3B 4111  15.516   1.090   8.182  0.1175 -0.0452 -0.2593
  257loPI   C4B 4112  15.636   0.742   7.958 -0.2292  0.0890 -0.0137
  258loPI    C1 4113   8.213  18.684  10.615 -0.0802  0.0559  0.0512
  258loPI    C2 4114   8.594  18.743  10.507 -0.1330  0.1776 -0.0720
  258loPI    C3 4115   8.486  18.782  10.890 -0.0424  0.2490 -0.0535
  258loPI   PO4 4116   8.086  18.717  10.404  0.2038  0.3208 -0.0281
  258loPI   GL1 4117   8.047  18.713   9.957  0.1720  0.0466 -0.3571
  258loPI   GL2 4118   7.762  18.446   9.769 -0.1171  0.0654  0.0585
  258loPI   C1A 4119   8.252  18.716   9.476 -0.2955 -0.1009 -0.1789
  258loPI   C2A 4120   8.148  18.703   9.045 -0.2673 -0.0213  0.0496
  258loPI   C3A 4121   8.123  18.719   8.744 -0.0914 -0.1632  0.1286
  258loPI   C4A 4122   8.041  18.747   8.366 -0.2949 -0.3773  0.1374
  258loPI   C5A 4123   8.007  18.509   7.962  0.1061  0.1572 -0.3576
  258loPI   C6A 4124   8.126  18.398   7.541 -0.1225 -0.1678  0.2059
  258loPI   C1B 4125   7.476  18.657   9.378  0.2102  0.1167  0.1012
  258loPI   C2B 4126   7.453  18.740   8.976 -0.2608 -0.3210 -0.3917
  258loPI   C3B 4127   7.571  18.750   8.605  0.3382 -0.1125 -0.2052
  258loPI   C4B 4128   7.568  18.738   8.141 -0.0965 -0.4636  0.0131
  259loPI    C1 4129  16.195   5.653  10.107 -0.1109 -0.2393  0.2520
  259loPI    C2 4130  16.213   5.873  10.441  0.1124 -0.1296  0.1691
  259loPI    C3 4131  16.170   6.051  10.085 -0.2778 -0.2545  0.1495
  259loPI   PO4 4132  16.097   5.560   9.932  0.0062 -0.0676 -0.0578
  259loPI   GL1 4133  15.777   5.580   9.633  0.1066  0.2278  0.0259
  259loPI   GL2 4134  15.488   5.641   9.466 -0.2986  0.2197 -0.0516
  259loPI   C1A 4135  15.866   5.384   9.271  0.0049  0.1355 -0.2053
  259loPI   C2A 4136  15.712   5.353   8.888 -0.0979  0.0966  0.2054
  259loPI   C3A 4137  15.929   5.245   8.478 -0.3682  0.1843 -0.0632
  259loPI   C4A 4138  16.352   5.193   8.304  0.0030 -0.1319  0.3312
  259loPI   C5A 4139  16.492   5.266   7.923  0.1668 -0.0526 -0.0436
  259loPI   C6A 4140  16.755   4.981   7.685  0.2139  0.1161 -0.0656
  259loPI   C1B 4141  15.314   5.614   9.035  0.0782 -0.3925  0.1012
  259loPI   C2B 4142  15.028   5.556   8.792 -0.0708 -0.1498 -0.0984
  259loPI   C3B 4143  14.661   5.688   8.595  0.0825  0.3177  0.3735
  259loPI   C4B 4144  14.422   5.659   8.229 -0.0014 -0.1072 -0.0596
  260loPI    C1 4145  14.416   9.323   9.795 -0.2176 -0.0263  0.1296
  260loPI    C2 4146  14.267   9.680   9.898  0.0265  0.1429 -0.0908
  260loPI    C3 4147  14.486   9.471  10.160  0.1810  0.3184 -0.0774
  260loPI   PO4 4148  14.221   9.156   9.688  0.0446 -0.0540 -0.3584
  260loPI   GL1 4149  14.032   8.941   9.363 -0.1144 -0.2769 -0.3028
  260loPI   GL2 4150  14.003   9.254   9.156 -0.0734  0.1049  0.1290
  260loPI   C1A 4151  13.890   8.790   8.911 -0.1378 -0.0748 -0.2100
  260loPI   C2A 4152  13.960   8.640   8.484 -0.1172 -0.1665  0.0916
  260loPI   C3A 4153  13.996   8.577   8.097 -0.0806 -0.1648  0.0178
  260loPI   C4A 4154  13.820   8.671   7.724 -0.3306 -0.2323  0.1562
  260loPI   C5A 4155  13.911   8.362   7.384  0.0909  0.0646  0.0393
  260loPI   C6A 4156  14.017   7.942   7.368  0.2558  0.0564 -0.3193
  260loPI   C1B 4157  14.154   9.204   8.817  0.0348  0.1437  0.0062
  260loPI   C2B 4158  13.778   9.128   8.575  0.0614 -0.3129  0.1291
  260loPI   C3B 4159  13.525   8.803   8.534  0.3852 -0.1840  0.0013
  260loPI   C4B 4160  13.522   8.284   8.579 -0.0478 -0.3035 -0.1341
  261loPI    C1 4161  18.471   5.084  10.082 -0.2994 -0.0613  0.0362
  261loPI    C2 4162  18.512   4.831  10.390 -0.0080  0.0409  0.0851
  261loPI    C3 4163  18.275   5.152  10.424 -0.1047 -0.0363  0.1447
  261loPI   PO4 4164  18.430   5.061   9.813 -0.0503 -0.1151  0.1455
  261loPI   GL1 4165  18.711   4.999   9.588 -0.1798 -0.1643 -0.2401
  261loPI   GL2 4166  19.108   4.917   9.538  0.2519 -0.0431 -0.2166
  261loPI   C1A 4167  18.723   5.217   9.163  0.1080 -0.0498 -0.2082
  261loPI   C2A 4168  18.635   5.237   8.854  0.0322 -0.0287  0.1082
  261loPI   C3A 4169  18.589   5.456   8.451  0.3763 -0.1299  0.1844
  261loPI   C4A 4170  18.466   5.546   8.012 -0.2797  0.0354  0.3512
  261loPI   C5A 4171  18.465   5.720   7.561  0.1217  0.4136 -0.0808
  261loPI   C6A 4172  18.626   6.019   7.360  0.1812 -0.0090 -0.3641
  261loPI   C1B 4173  19.207   5.080   9.136 -0.1147 -0.2328 -0.1359
  261loPI   C2B 4174  19.171   4.901   8.785  0.3723  0.1234  0.1368
  261loPI   C3B 4175  19.388   4.653   8.410 -0.1427 -0.3926 -0.1650
  261loPI   C4B 4176  19.430   4.346   8.100  0.1567 -0.0075  0.3525
  262loPI    C1 4177   0.113  16.114   9.736  0.0311  0.0729  0.0415
  262loPI    C2 4178  -0.111  15.915  10.002 -0.1117 -0.0930 -0.1987
  262loPI    C3 4179   0.270  15.808   9.941 -0.0295  0.0488  0.0520
  262loPI   PO4 4180  -0.025  16.051   9.520 -0.0297 -0.0247 -0.0795
  262loPI   GL1 4181  -0.011  15.921   9.043  0.0816 -0.1225 -0.1133
  262loPI   GL2 4182   0.261  16.155   9.099  0.2632  0.0301  0.2172
  262loPI   C1A 4183   0.155  15.758   8.611 -0.1634  0.0124 -0.2769
  262loPI   C2A 4184   0.101  15.754   8.208  0.0013  0.0159 -0.0349
  262loPI   C3A 4185  -0.007  15.703   7.753 -0.0493  0.4609 -0.1153
  262loPI   C4A 4186  -0.095  15.618   7.402 -0.0763  0.1006  0.2798
  262loPI   C5A 4187  -0.528  15.417   7.272 -0.1715  0.0341  0.0019
  262loPI   C6A 4188  -0.892  15.213   7.146  0.0510  0.1382  0.3327
  262loPI   C1B 4189   0.004  16.274   8.619  0.1294 -0.1950  0.0608
  262loPI   C2B 4190   0.036  16.362   8.168  0.1388  0.0293 -0.1765
  262loPI   C3B 4191  -0.222  16.299   7.842 -0.3812 -0.1623  0.2996
  262loPI   C4B 4192  -0.477  16.609   7.609  0.0570 -0.0218 -0.2261
  263loPI    C1 4193   1.889  10.694   9.838 -0.2879  0.1381 -0.0839
  263loPI    C2 4194   1.598  10.421   9.873 -0.2120  0.0878  0.1681
  263loPI    C3 4195   1.680  10.667  10.178 -0.0331  0.1449  0.0756
  263loPI   PO4 4196   2.007  10.534   9.566 -0.0570 -0.0109 -0.1544
  263loPI   GL1 4197   1.957  10.525   9.128 -0.1130  0.2259 -0.1341
  263loPI   GL2 4198   1.966  10.712   8.944 -0.2061 -0.0584 -0.0890
  263loPI   C1A 4199   2.097  10.273   8.773 -0.2276  0.3601 -0.2501
  263loPI   C2A 4200   2.233  10.004   8.395  0.0168 -0.0129  0.0599
  263loPI   C3A 4201   2.269   9.752   8.068 -0.1224  0.3735 -0.0437
  263loPI   C4A 4202   2.075   9.646   7.729  0.1444  0.3199 -0.0193
  263loPI   C5A 4203   1.830   9.359   7.483 -0.4043  0.1731 -0.0155
  263loPI   C6A 4204   2.088   9.471   7.163 -0.1557  0.0178  0.0971
  263loPI   C1B 4205   2.098  10.769   8.541 -0.2992 -0.1339 -0.1361
  263loPI   C2B 4206   2.168  11.058   8.323  0.2861  0.0068 -0.0808
  263loPI   C3B 4207   1.901  11.216   7.947 -0.0171  0.3094 -0.1057
  263loPI   C4B 4208   1.717  11.242   7.509  0.0814  0.2565 -0.0524
  264loPI    C1 4209  16.538   7.203  10.007  0.0344 -0.2511 -0.0856
  264loPI    C2 4210  16.846   7.355  10.212  0.0106  0.0014 -0.2335
  264loPI    C3 4211  16.661   7.026  10.344 -0.0093  0.1627  0.1541
  264loPI   PO4 4212  16.503   7.267   9.771 -0.0211 -0.1945 -0.0083
  264loPI   GL1 4213  16.477   7.155   9.424 -0.1417 -0.0919 -0.3244
  264loPI   GL2 4214  16.740   6.964   9.247  0.0596  0.0028  0.0134
  264loPI   C1A 4215  16.473   7.381   9.065  0.0456  0.3364  0.0936
  264loPI   C2A 4216  16.470   7.261   8.622 -0.0375 -0.2267  0.1134
  264loPI   C3A 4217  16.171   7.219   8.166 -0.1979  0.1208 -0.3226
  264loPI   C4A 4218  15.930   7.471   7.809 -0.0312  0.0814  0.0741
  264loPI   C5A 4219  15.793   7.767   7.542 -0.0365 -0.1360 -0.1679
  264loPI   C6A 4220  15.702   8.186   7.346 -0.0271 -0.0215  0.3271
  264loPI   C1B 4221  16.959   6.952   8.834  0.2078  0.1484 -0.2075
  264loPI   C2B 4222  16.882   6.983   8.449  0.0316  0.2079 -0.1579
  264loPI   C3B 4223  16.713   7.046   8.043 -0.3024 -0.4097  0.2000
  264loPI   C4B 4224  16.528   7.271   7.701  0.1339 -0.2277 -0.0134
  265loPI    C1 4225  14.547  13.030   9.979  0.0820  0.0295  0.1605
  265loPI    C2 4226  14.687  12.764  10.243 -0.2591 -0.2308  0.0853
  265loPI    C3 4227  14.462  13.071  10.368 -0.0715 -0.1156  0.1432
  265loPI   PO4 4228  14.498  12.997   9.736 -0.2109  0.3847 -0.0279
  265loPI   GL1 4229  14.538  12.665   9.293 -0.1537 -0.1208 -0.0233
  265loPI   GL2 4230  14.248  12.759   9.161  0.0345  0.1122 -0.1373
  265loPI   C1A 4231  14.736  12.589   8.818 -0.3069  0.1456  0.0436
  265loPI   C2A 4232  14.928  12.734   8.487  0.1119  0.5283  0.1046
  265loPI   C3A 4233  14.968  12.683   8.020 -0.2258 -0.0076  0.1656
  265loPI   C4A 4234  15.174  12.468   7.668 -0.0586  0.0922  0.0141
  265loPI   C5A 4235  14.962  12.288   7.273  0.1292 -0.0405 -0.0317
  265loPI   C6A 4236  14.789  12.140   6.908  0.1712  0.3237 -0.0903
  265loPI   C1B 4237  14.321  12.871   8.774  0.0877  0.0251 -0.2650
  265loPI   C2B 4238  14.298  12.766   8.372  0.1313  0.0594 -0.1435
  265loPI   C3B 4239  14.428  12.648   7.910 -0.0346  0.1653  0.1095
  265loPI   C4B 4240  14.705  12.349   7.749  0.2956  0.1017 -0.3374
  266loPI    C1 4241   2.066   6.152  10.099 -0.2765 -0.2072  0.0797
  266loPI    C2 4242   2.094   6.386  10.423  0.0075  0.0051 -0.0927
  266loPI    C3 4243   2.251   6.018  10.427 -0.0198 -0.0055  0.0215
  266loPI   PO4 4244   2.187   6.293   9.827 -0.0270  0.0310 -0.2362
  266loPI   GL1 4245   2.034   6.224   9.525  0.2365 -0.0634 -0.2253
  266loPI   GL2 4246   1.849   5.984   9.445  0.3029 -0.0882 -0.1045
  266loPI   C1A 4247   2.276   6.387   9.164 -0.1838 -0.1950 -0.1130
  266loPI   C2A 4248   2.252   6.486   8.660  0.4449  0.3679  0.0298
  266loPI   C3A 4249   2.364   6.328   8.287 -0.0342  0.1514 -0.3073
  266loPI   C4A 4250   2.253   6.275   7.968 -0.0568 -0.1969  0.0966
  266loPI   C5A 4251   2.252   6.201   7.494  0.1618  0.1615  0.0311
  266loPI   C6A 4252   2.250   6.358   7.012  0.1902  0.1280 -0.0791
  266loPI   C1B 4253   1.862   6.126   9.089  0.0836 -0.1732  0.1227
  266loPI   C2B 4254   1.924   6.061   8.536 -0.0470  0.1516  0.0310
  266loPI   C3B 4255   2.029   5.922   8.243 -0.0618  0.1671  0.0931
  266loPI   C4B 4256   1.919   5.677   7.997 -0.1251  0.0288  0.3079
  267loPI    C1 4257   3.199   5.096  10.260  0.0365  0.4903 -0.1802
  267loPI    C2 4258   2.821   4.986  10.332  0.1512  0.0707 -0.1959
  267loPI    C3 4259   3.001   5.253  10.570 -0.0606  0.0547 -0.0153
  267loPI   PO4 4260   3.244   5.161  10.074  0.0095  0.2154 -0.0348
  267loPI   GL1 4261   3.555   4.892   9.896 -0.0174 -0.0750 -0.0186
  267loPI   GL2 4262   3.742   5.146   9.629  0.0374  0.0112 -0.0041
  267loPI   C1A 4263   3.328   4.826   9.486  0.1606  0.2001 -0.1614
  267loPI   C2A 4264   3.621   4.919   9.130  0.0823  0.1943 -0.1031
  267loPI   C3A 4265   3.887   4.741   8.785  0.0186 -0.2363 -0.2763
  267loPI   C4A 4266   4.023   4.837   8.435 -0.1391  0.2768 -0.1735
  267loPI   C5A 4267   4.056   4.651   8.023  0.2399 -0.0936  0.0908
  267loPI   C6A 4268   3.917   4.454   7.619 -0.5078  0.0465 -0.0134
  267loPI   C1B 4269   3.616   5.412   9.271  0.0599  0.0322  0.0459
  267loPI   C2B 4270   3.665   5.342   8.843 -0.0339 -0.0816 -0.3609
  267loPI   C3B 4271   3.706   5.208   8.442  0.1950 -0.0934 -0.0656
  267loPI   C4B 4272   3.734   5.151   7.959 -0.0610  0.1470 -0.1129
  268loPI    C1 4273   0.230  14.125   9.607  0.1964  0.0049 -0.0605
  268loPI    C2 4274   0.179  14.519   9.560 -0.0493 -0.0462 -0.2390
  268loPI    C3 4275   0.359  14.379   9.888 -0.1080  0.2052 -0.0969
  268loPI   PO4 4276   0.323  14.042   9.384 -0.0482  0.1601  0.2672
  268loPI   GL1 4277   0.261  14.301   9.085  0.3727 -0.0261 -0.3281
  268loPI   GL2 4278   0.441  14.554   9.090 -0.0311  0.0032  0.3995
  268loPI   C1A 4279   0.232  14.444   8.636 -0.1049  0.3208  0.0729
  268loPI   C2A 4280   0.413  14.394   8.215 -0.0506  0.5717  0.0825
  268loPI   C3A 4281   0.660  14.323   7.802 -0.0885 -0.0210  0.2935
  268loPI   C4A 4282   0.690  14.518   7.382  0.0812 -0.2459  0.1387
  268loPI   C5A 4283   0.875  14.559   6.972 -0.0058 -0.0030 -0.1876
  268loPI   C6A 4284   1.200  14.287   6.869 -0.0907  0.3370  0.0204
  268loPI   C1B 4285   0.690  14.425   8.689 -0.1042 -0.1287  0.1306
  268loPI   C2B 4286   0.888  14.413   8.293 -0.2610  0.1235  0.1269
  268loPI   C3B 4287   1.051  14.081   8.008 -0.1287 -0.0136  0.0858
  268loPI   C4B 4288   1.265  13.967   7.684  0.0144  0.1715 -0.0581
  269loPI    C1 4289   7.657  10.336   9.955 -0.1075 -0.0748  0.0922
  269loPI    C2 4290   7.406  10.581  10.150 -0.0123  0.0367  0.0756
  269loPI    C3 4291   7.784  10.694  10.081 -0.1042  0.0931 -0.3690
  269loPI   PO4 4292   7.522  10.241   9.742 -0.0661 -0.0537  0.0665
  269loPI   GL1 4293   7.456  10.069   9.319 -0.1237 -0.0425 -0.0777
  269loPI   GL2 4294   7.655  10.083   9.211  0.2425 -0.0180  0.2173
  269loPI   C1A 4295   7.146  10.047   8.916  0.0704  0.3027  0.2138
  269loPI   C2A 4296   6.907   9.959   8.564  0.0593  0.1005 -0.0308
  269loPI   C3A 4297   7.010   9.889   8.155  0.0784  0.1202 -0.0532
  269loPI   C4A 4298   6.877   9.714   7.717 -0.0699  0.1877  0.1222
  269loPI   C5A 4299   6.869   9.975   7.294  0.0770 -0.4488 -0.2870
  269loPI   C6A 4300   7.090  10.117   6.947  0.4053  0.0955  0.0332
  269loPI   C1B 4301   7.722   9.998   8.826  0.2240 -0.1848  0.3169
  269loPI   C2B 4302   7.456  10.092   8.476 -0.0127  0.2310  0.0595
  269loPI   C3B 4303   7.513  10.100   8.074  0.1900  0.1385  0.1072
  269loPI   C4B 4304   7.231  10.020   7.709  0.0028  0.1117 -0.0774
  270loPI    C1 4305  13.663   3.116  10.313  0.1170  0.2219 -0.0802
  270loPI    C2 4306  13.611   3.480  10.472 -0.1292  0.1262  0.0639
  270loPI    C3 4307  13.577   3.154  10.702  0.1375  0.0118 -0.0544
  270loPI   PO4 4308  13.513   3.159  10.042 -0.2453  0.0710 -0.0545
  270loPI   GL1 4309  13.461   3.078   9.557 -0.0907  0.2190 -0.1926
  270loPI   GL2 4310  13.171   3.108   9.542 -0.1466 -0.1122  0.0386
  270loPI   C1A 4311  13.569   3.033   9.213 -0.0521  0.1020  0.4003
  270loPI   C2A 4312  13.671   2.948   8.815 -0.0238 -0.0617  0.0562
  270loPI   C3A 4313  13.850   2.594   8.686 -0.2506  0.2362  0.0002
  270loPI   C4A 4314  14.100   2.529   8.405  0.0755 -0.1135  0.0148
  270loPI   C5A 4315  14.160   2.284   7.999  0.0187  0.0531  0.0183
  270loPI   C6A 4316  14.584   2.065   7.996 -0.2018  0.1406  0.1656
  270loPI   C1B 4317  12.963   3.126   9.128 -0.1603 -0.0971  0.0283
  270loPI   C2B 4318  12.726   3.022   8.795 -0.1013 -0.0090 -0.1344
  270loPI   C3B 4319  12.649   2.655   8.433 -0.1112 -0.0081 -0.3744
  270loPI   C4B 4320  12.891   2.253   8.387  0.0414 -0.1136  0.1457
  271loPI    C1 4321   6.893   0.922  10.390  0.1629 -0.1105 -0.0139
  271loPI    C2 4322   6.716   1.155  10.118  0.0713 -0.1791 -0.0133
  271loPI    C3 4323   6.535   1.082  10.467  0.2420  0.0067  0.1163
  271loPI   PO4 4324   6.864   0.692  10.136 -0.1138  0.0701  0.1772
  271loPI   GL1 4325   6.975   0.538   9.770  0.0572  0.0185  0.2379
  271loPI   GL2 4326   6.762   0.651   9.595  0.0747 -0.2420 -0.0071
  271loPI   C1A 4327   7.288   0.644   9.485 -0.1111  0.2368  0.0928
  271loPI   C2A 4328   7.171   0.726   9.043  0.0035  0.0211  0.2587
  271loPI   C3A 4329   7.181   0.692   8.585 -0.1234 -0.0369 -0.0788
  271loPI   C4A 4330   7.247   0.678   8.113  0.2095 -0.0466  0.1140
  271loPI   C5A 4331   7.351   0.805   7.656 -0.1503 -0.0489 -0.0267
  271loPI   C6A 4332   7.334   0.917   7.179  0.2076 -0.0569 -0.1975
  271loPI   C1B 4333   6.589   0.592   9.220 -0.0525  0.0222  0.0513
  271loPI   C2B 4334   6.695   0.633   8.821 -0.0341 -0.2694 -0.0471
  271loPI   C3B 4335   6.704   0.672   8.403  0.1526  0.1656 -0.2931
  271loPI   C4B 4336   6.693   0.673   7.896  0.1945 -0.0321 -0.0061
  272loPI    C1 4337   3.691  15.549   9.982 -0.0410 -0.1891  0.0223
  272loPI    C2 4338   3.640  15.692  10.352  0.0113 -0.1267  0.0055
  272loPI    C3 4339   3.941  15.440  10.275 -0.0471 -0.2022  0.0226
  272loPI   PO4 4340   3.650  15.707   9.787 -0.0962  0.2099 -0.2637
  272loPI   GL1 4341   3.777  15.825   9.330 -0.0392  0.0098  0.0996
  272loPI   GL2 4342   3.920  16.107   9.383 -0.1445  0.0831 -0.0226
  272loPI   C1A 4343   3.850  15.941   8.873  0.2151 -0.1442 -0.1574
  272loPI   C2A 4344   3.930  15.967   8.449  0.0488 -0.2735  0.0752
  272loPI   C3A 4345   4.097  15.740   7.990 -0.0671  0.1292 -0.0746
  272loPI   C4A 4346   4.015  16.089   7.602 -0.1259  0.2043  0.0914
  272loPI   C5A 4347   3.858  16.337   7.348  0.0335  0.1367 -0.1052
  272loPI   C6A 4348   3.673  16.538   7.076  0.2798 -0.0699 -0.0617
  272loPI   C1B 4349   4.128  16.328   9.105 -0.0572 -0.1045 -0.1902
  272loPI   C2B 4350   4.217  16.309   8.688 -0.0094 -0.2191 -0.2622
  272loPI   C3B 4351   4.206  16.389   8.211 -0.2006  0.1675  0.3898
  272loPI   C4B 4352   4.298  16.462   7.850 -0.1075  0.0753 -0.1377
  273loPI    C1 4353   1.682   6.792   9.946  0.1989  0.1191  0.1043
  273loPI    C2 4354   2.053   6.727  10.083  0.1384 -0.3416  0.0664
  273loPI    C3 4355   1.755   6.800  10.340  0.2265 -0.1064  0.1049
  273loPI   PO4 4356   1.624   6.537   9.782 -0.0147 -0.1285 -0.1461
  273loPI   GL1 4357   1.347   6.337   9.434 -0.2040 -0.0733  0.0451
  273loPI   GL2 4358   1.658   6.509   9.318  0.0099  0.0098  0.0911
  273loPI   C1A 4359   1.383   6.067   8.967  0.1549  0.0549 -0.1263
  273loPI   C2A 4360   1.450   5.980   8.425  0.0272 -0.1339 -0.0509
  273loPI   C3A 4361   1.453   5.929   7.989 -0.1063 -0.1098 -0.0895
  273loPI   C4A 4362   1.265   5.977   7.648  0.0979  0.1948 -0.0795
  273loPI   C5A 4363   0.918   6.280   7.435  0.2230 -0.1872  0.0512
  273loPI   C6A 4364   0.471   5.975   7.312 -0.1415  0.0484  0.1038
  273loPI   C1B 4365   1.749   6.561   8.895  0.1001 -0.1163  0.0019
  273loPI   C2B 4366   1.644   6.475   8.568  0.1225 -0.0618  0.1412
  273loPI   C3B 4367   1.720   6.333   8.143 -0.1239 -0.3256  0.1608
  273loPI   C4B 4368   1.678   6.339   7.755 -0.3049 -0.0941 -0.2697
  274loPI    C1 4369   0.875  18.636  10.028  0.0082  0.1836 -0.1826
  274loPI    C2 4370   1.224  18.469   9.929  0.1286  0.1192  0.3200
  274loPI    C3 4371   1.202  18.863   9.993  0.0900  0.1344  0.2144
  274loPI   PO4 4372   0.727  18.620   9.860 -0.1367 -0.0871 -0.2119
  274loPI   GL1 4373   0.944  18.740   9.484 -0.0171  0.1714  0.0288
  274loPI   GL2 4374   0.736  18.970   9.280  0.1115 -0.0592 -0.2512
  274loPI   C1A 4375   1.239  18.879   9.235  0.1499  0.1354 -0.2644
  274loPI   C2A 4376   1.369  18.651   8.831 -0.0701  0.0054  0.0635
  274loPI   C3A 4377   1.442  18.208   8.574  0.3111  0.1474  0.0589
  274loPI   C4A 4378   1.547  17.840   8.212 -0.0820  0.0344 -0.2027
  274loPI   C5A 4379   1.631  17.397   8.056 -0.0937  0.0709 -0.0303
  274loPI   C6A 4380   1.553  17.152   7.734 -0.2172 -0.2532  0.0551
  274loPI   C1B 4381   0.518  19.139   8.905  0.2620  0.0876 -0.2290
  274loPI   C2B 4382   0.373  19.032   8.491  0.0307  0.0322  0.3478
  274loPI   C3B 4383   0.069  18.692   8.304  0.1984  0.0352  0.0831
  274loPI   C4B 4384  -0.163  18.677   8.007  0.2354  0.0455  0.0284
  275loPI    C1 4385  13.260  11.654  10.284 -0.2947 -0.0211  0.2936
  275loPI    C2 4386  12.949  11.882  10.391 -0.2459  0.0953  0.1905
  275loPI    C3 4387  13.219  11.770  10.665 -0.2876  0.1347  0.2478
  275loPI   PO4 4388  13.279  11.856  10.028  0.1170  0.1019  0.0577
  275loPI   GL1 4389  13.423  11.612   9.695 -0.2705  0.0875 -0.0342
  275loPI   GL2 4390  13.643  11.407   9.551 -0.1550  0.1041  0.2054
  275loPI   C1A 4391  13.257  11.482   9.248  0.0126  0.0142  0.2458
  275loPI   C2A 4392  13.269  11.454   8.795 -0.1120  0.3272  0.1401
  275loPI   C3A 4393  13.041  11.570   8.456 -0.0496 -0.2801  0.0656
  275loPI   C4A 4394  12.811  11.599   8.043 -0.1922 -0.0060 -0.1638
  275loPI   C5A 4395  12.763  11.790   7.586  0.2422 -0.0247 -0.1989
  275loPI   C6A 4396  12.872  12.261   7.673  0.3491  0.2077 -0.2595
  275loPI   C1B 4397  13.724  11.466   9.058 -0.1148 -0.2360  0.0228
  275loPI   C2B 4398  13.768  11.479   8.655 -0.0304 -0.3281  0.0025
  275loPI   C3B 4399  13.618  11.448   8.379 -0.0206 -0.0640 -0.1492
  275loPI   C4B 4400  13.772  11.284   8.140 -0.1809 -0.0945 -0.0915
  276loPI    C1 4401   6.262  18.539  10.634 -0.1136  0.0636 -0.0151
  276loPI    C2 4402   6.168  18.209  10.839 -0.1214  0.0407 -0.0558
  276loPI    C3 4403   6.073  18.569  10.985 -0.1345  0.0238 -0.0230
  276loPI   PO4 4404   6.142  18.429  10.365 -0.3897 -0.0144  0.0040
  276loPI   GL1 4405   6.261  18.473   9.907  0.0240  0.0091  0.0290
  276loPI   GL2 4406   6.451  18.667   9.716 -0.1907  0.1803  0.0667
  276loPI   C1A 4407   5.946  18.504   9.620 -0.3007  0.3620  0.2382
  276loPI   C2A 4408   5.941  18.622   9.139 -0.0318 -0.2412  0.0730
  276loPI   C3A 4409   5.923  18.693   8.707  0.1979 -0.0140 -0.3212
  276loPI   C4A 4410   6.072  18.683   8.273  0.0458 -0.1490  0.0803
  276loPI   C5A 4411   5.972  18.664   7.865 -0.2824  0.1980  0.0212
  276loPI   C6A 4412   5.793  18.823   7.525  0.1309  0.1147 -0.0114
  276loPI   C1B 4413   6.436  18.652   9.253 -0.3971 -0.0049  0.2706
  276loPI   C2B 4414   6.503  18.741   8.836 -0.1272 -0.5914 -0.0809
  276loPI   C3B 4415   6.560  18.697   8.336  0.0889  0.0506  0.0891
  276loPI   C4B 4416   6.474  18.730   7.924  0.3970  0.3342  0.0555
  277loPI    C1 4417   4.038   7.668   9.710 -0.0117 -0.1766  0.0690
  277loPI    C2 4418   4.051   7.703  10.108  0.1586  0.0131  0.0480
  277loPI    C3 4419   3.712   7.591   9.929  0.0363  0.0804  0.2346
  277loPI   PO4 4420   4.134   7.929   9.626 -0.1552  0.1791 -0.1302
  277loPI   GL1 4421   4.151   8.157   9.417 -0.0279 -0.3193 -0.2071
  277loPI   GL2 4422   4.295   8.474   9.275  0.2081 -0.1078 -0.0605
  277loPI   C1A 4423   4.081   7.967   8.990  0.3476 -0.0478 -0.1822
  277loPI   C2A 4424   4.173   7.819   8.602 -0.3917  0.2542  0.1597
  277loPI   C3A 4425   4.277   7.784   8.109 -0.3689 -0.0323  0.0346
  277loPI   C4A 4426   4.518   8.009   7.833  0.0585  0.1259 -0.0810
  277loPI   C5A 4427   4.381   8.215   7.504  0.0897  0.2059 -0.0699
  277loPI   C6A 4428   4.122   8.216   7.099 -0.5378  0.0334  0.0340
  277loPI   C1B 4429   4.012   8.467   8.960  0.2534 -0.2085  0.0207
  277loPI   C2B 4430   3.814   8.303   8.690  0.1675  0.2154  0.0067
  277loPI   C3B 4431   3.862   8.051   8.271  0.2449 -0.0592  0.0798
  277loPI   C4B 4432   3.904   8.065   7.866 -0.1819  0.1628 -0.4225
  278loPI    C1 4433  18.235   2.207  10.090 -0.3827  0.2862  0.1203
  278loPI    C2 4434  18.067   1.886  10.260 -0.2187  0.1901  0.1029
  278loPI    C3 4435  18.314   2.118  10.472  0.2187 -0.0955 -0.0788
  278loPI   PO4 4436  18.332   2.148   9.907  0.1322  0.1318  0.1697
  278loPI   GL1 4437  18.424   2.066   9.495  0.3853  0.0504  0.0379
  278loPI   GL2 4438  18.224   2.215   9.396 -0.2110 -0.1443  0.1420
  278loPI   C1A 4439  18.757   1.995   9.235 -0.4366  0.3087 -0.0774
  278loPI   C2A 4440  19.042   1.737   9.041 -0.1745  0.1274  0.3277
  278loPI   C3A 4441  19.112   1.352   8.876 -0.2543 -0.0642 -0.1884
  278loPI   C4A 4442  19.135   1.222   8.381  0.1405 -0.0301 -0.3238
  278loPI   C5A 4443  18.931   1.081   7.911  0.0272 -0.0519 -0.2052
  278loPI   C6A 4444  18.561   0.751   7.900 -0.0020 -0.0524  0.3219
  278loPI   C1B 4445  18.472   2.292   8.989  0.0629  0.1887 -0.0162
  278loPI   C2B 4446  18.789   2.087   8.740  0.0600  0.1850  0.0008
  278loPI   C3B 4447  18.762   2.119   8.310 -0.4833  0.0811 -0.0485
  278loPI   C4B 4448  18.953   2.152   7.964 -0.0906  0.1177  0.0827
  279loPI    C1 4449   3.129   2.511  10.203  0.2351  0.1794  0.2337
  279loPI    C2 4450   3.255   2.131  10.219 -0.2021  0.0060 -0.1836
  279loPI    C3 4451   3.159   2.325  10.556  0.3537 -0.1295  0.0647
  279loPI   PO4 4452   2.991   2.509  10.001  0.0447 -0.0796  0.0701
  279loPI   GL1 4453   3.070   2.430   9.658  0.1648 -0.1499 -0.0861
  279loPI   GL2 4454   3.297   2.214   9.735  0.3230 -0.2960 -0.1463
  279loPI   C1A 4455   3.113   2.478   9.298  0.1399  0.0384 -0.0616
  279loPI   C2A 4456   3.089   2.368   8.884 -0.1372  0.0277  0.2291
  279loPI   C3A 4457   3.020   2.288   8.486  0.0232 -0.0569 -0.1116
  279loPI   C4A 4458   2.994   2.429   7.921 -0.0398  0.2397 -0.2793
  279loPI   C5A 4459   2.881   2.808   7.582  0.3320 -0.1825 -0.0006
  279loPI   C6A 4460   2.952   3.227   7.392 -0.0316  0.0333  0.1185
  279loPI   C1B 4461   3.364   1.987   9.385  0.1386 -0.1042  0.2658
  279loPI   C2B 4462   3.391   1.943   8.890  0.1350 -0.1250 -0.1890
  279loPI   C3B 4463   3.336   1.886   8.405 -0.0406  0.0748  0.1012
  279loPI   C4B 4464   3.251   1.844   7.970  0.1888 -0.1663  0.1405
  280loPI    C1 4465   0.593   3.755  10.489 -0.2463 -0.1195 -0.0864
  280loPI    C2 4466   0.576   3.501  10.798  0.0168  0.1813  0.1836
  280loPI    C3 4467   0.925   3.572  10.617 -0.1023  0.1552 -0.0610
  280loPI   PO4 4468   0.348   3.684  10.286 -0.1780  0.4914  0.0437
  280loPI   GL1 4469   0.220   3.740   9.876  0.0975  0.0943 -0.3607
  280loPI   GL2 4470   0.012   3.561   9.671 -0.0757 -0.0794 -0.2662
  280loPI   C1A 4471   0.261   4.117   9.619 -0.2983 -0.0395  0.2333
  280loPI   C2A 4472   0.117   4.280   9.338  0.0362 -0.0529  0.4497
  280loPI   C3A 4473   0.127   4.413   8.864 -0.2666  0.0814  0.2127
  280loPI   C4A 4474   0.260   4.198   8.488  0.2067  0.1432  0.2701
  280loPI   C5A 4475   0.306   3.975   8.077  0.1146  0.1449  0.0821
  280loPI   C6A 4476   0.190   3.686   7.739 -0.1009 -0.0990 -0.0944
  280loPI   C1B 4477  -0.214   3.778   9.428 -0.1945  0.2588 -0.0777
  280loPI   C2B 4478  -0.214   3.965   9.034 -0.1593  0.1029  0.1614
  280loPI   C3B 4479  -0.140   3.936   8.634 -0.0171  0.1745  0.1135
  280loPI   C4B 4480  -0.232   3.878   8.233  0.0556 -0.1878 -0.0047
  281loPI    C1 4481   8.730  10.367   9.787 -0.0632  0.2991 -0.0458
  281loPI    C2 4482   8.780  10.019   9.978 -0.0180  0.2011 -0.2339
  281loPI    C3 4483   8.600  10.325  10.163 -0.0198  0.0918 -0.0531
  281loPI   PO4 4484   8.883  10.368   9.646  0.2352 -0.3307  0.0918
  281loPI   GL1 4485   8.994  10.382   9.230 -0.2463  0.0649  0.0717
  281loPI   GL2 4486   9.193  10.203   9.133  0.0169  0.0157 -0.0298
  281loPI   C1A 4487   8.627  10.273   9.010 -0.1174  0.1028 -0.0976
  281loPI   C2A 4488   8.578  10.409   8.496  0.2057 -0.0919  0.0523
  281loPI   C3A 4489   8.746  10.503   8.010 -0.1498 -0.2037 -0.1732
  281loPI   C4A 4490   9.030  10.313   7.749 -0.0265 -0.0267  0.2086
  281loPI   C5A 4491   8.925  10.400   7.289 -0.2818  0.1706 -0.3036
  281loPI   C6A 4492   8.623  10.607   7.048 -0.0727  0.1336 -0.0430
  281loPI   C1B 4493   9.078  10.320   8.725  0.1206 -0.1105  0.3625
  281loPI   C2B 4494   8.979  10.180   8.318  0.1374  0.1152  0.0457
  281loPI   C3B 4495   8.829   9.916   8.016  0.0621 -0.2589  0.1217
  281loPI   C4B 4496   8.523  10.161   7.656 -0.0285  0.1339  0.0196
  282loPI    C1 4497   2.316  17.507  10.106  0.0966  0.0356 -0.1185
  282loPI    C2 4498   2.634  17.446  10.340  0.0317 -0.1725 -0.0816
  282loPI    C3 4499   2.378  17.742  10.424  0.1716 -0.0540 -0.0666
  282loPI   PO4 4500   2.390  17.542   9.893  0.1090  0.4558  0.2541
  282loPI   GL1 4501   2.428  17.864   9.551  0.1672  0.3021  0.0318
  282loPI   GL2 4502   2.598  18.137   9.614 -0.3676 -0.0718  0.0084
  282loPI   C1A 4503   2.483  17.499   9.246  0.1711 -0.0392 -0.0432
  282loPI   C2A 4504   2.702  17.191   8.961  0.0002  0.1673 -0.1466
  282loPI   C3A 4505   3.183  17.345   8.850 -0.0946 -0.0104  0.1269
  282loPI   C4A 4506   3.398  17.642   8.971  0.0621 -0.2094 -0.2412
  282loPI   C5A 4507   3.473  17.980   8.807  0.0665  0.1781  0.0380
  282loPI   C6A 4508   3.567  18.168   8.418 -0.1050  0.2802 -0.0886
  282loPI   C1B 4509   2.582  18.120   9.208 -0.0741 -0.2507  0.0270
  282loPI   C2B 4510   2.435  17.949   8.918 -0.0526  0.1693 -0.0593
  282loPI   C3B 4511   2.344  17.973   8.514  0.1645  0.2263 -0.0785
  282loPI   C4B 4512   2.074  17.706   8.223  0.0281 -0.2379 -0.1317
  283loPI    C1 4513   4.478   6.849  10.135 -0.0496 -0.2630  0.0135
  283loPI    C2 4514   4.757   6.761  10.407 -0.0612 -0.2688  0.0237
  283loPI    C3 4515   4.782   7.101  10.198 -0.0189 -0.2935 -0.0120
  283loPI   PO4 4516   4.371   6.645  10.048 -0.2113 -0.3592 -0.1893
  283loPI   GL1 4517   4.122   6.641   9.758  0.0649  0.3229  0.2617
  283loPI   GL2 4518   4.128   6.275   9.658  0.1632  0.1831  0.1103
  283loPI   C1A 4519   4.142   6.575   9.296 -0.0412 -0.2278  0.2740
  283loPI   C2A 4520   4.137   6.697   8.894 -0.3957 -0.0311  0.2376
  283loPI   C3A 4521   4.153   6.588   8.515 -0.0540 -0.0536  0.0766
  283loPI   C4A 4522   4.153   6.568   8.079 -0.2073 -0.0279 -0.1722
  283loPI   C5A 4523   4.240   6.442   7.599 -0.0826 -0.2450  0.0708
  283loPI   C6A 4524   4.694   6.569   7.336  0.0048  0.2043  0.0065
  283loPI   C1B 4525   4.268   6.127   9.238 -0.2010  0.0972 -0.3509
  283loPI   C2B 4526   4.380   6.160   8.807  0.0521 -0.1324  0.0814
  283loPI   C3B 4527   4.497   6.030   8.455  0.1978 -0.3636 -0.1257
  283loPI   C4B 4528   4.325   6.060   7.993  0.0677 -0.0284 -0.0318
  284loPI    C1 4529  19.064   0.686  10.181  0.2675  0.1624 -0.0572
  284loPI    C2 4530  19.019   0.795  10.563  0.1714  0.0575 -0.0379
  284loPI    C3 4531  19.048   0.408  10.468  0.1263  0.0799 -0.1440
  284loPI   PO4 4532  18.926   0.845  10.044  0.1631 -0.0003  0.1505
  284loPI   GL1 4533  18.990   0.805   9.682 -0.0502 -0.0583  0.0901
  284loPI   GL2 4534  18.725   0.693   9.631 -0.2893  0.1235 -0.0020
  284loPI   C1A 4535  18.904   1.094   9.302  0.2514  0.0900 -0.1111
  284loPI   C2A 4536  18.619   1.326   9.049 -0.0055 -0.2169 -0.0538
  284loPI   C3A 4537  18.582   1.583   8.802  0.0555 -0.2461 -0.0463
  284loPI   C4A 4538  18.358   1.861   8.526  0.2066  0.2375 -0.3597
  284loPI   C5A 4539  17.927   1.881   8.403  0.0780  0.2323  0.0176
  284loPI   C6A 4540  17.450   1.998   8.320 -0.1393  0.2421 -0.1879
  284loPI   C1B 4541  18.721   0.657   9.226 -0.4683  0.1102 -0.1400
  284loPI   C2B 4542  18.623   0.467   8.774  0.0413 -0.4325 -0.0676
  284loPI   C3B 4543  18.774   0.679   8.336  0.1885  0.2057 -0.1339
  284loPI   C4B 4544  18.650   1.111   8.503 -0.0317 -0.1434 -0.0843
  285loPI    C1 4545   1.270   3.485  10.025  0.0898 -0.1575 -0.1249
  285loPI    C2 4546   1.409   3.119   9.941  0.0736 -0.2074  0.0601
  285loPI    C3 4547   1.118   3.165  10.211  0.1035 -0.0536  0.0672
  285loPI   PO4 4548   1.249   3.589   9.791  0.4656 -0.1511  0.3061
  285loPI   GL1 4549   1.076   3.570   9.466  0.3178  0.0929  0.3475
  285loPI   GL2 4550   0.742   3.386   9.312 -0.1086  0.1877 -0.1414
  285loPI   C1A 4551   0.941   3.807   9.096 -0.2158  0.4534  0.1733
  285loPI   C2A 4552   0.756   3.735   8.772  0.0384 -0.3430  0.3040
  285loPI   C3A 4553   0.785   3.581   8.303 -0.1876  0.0554  0.1600
  285loPI   C4A 4554   0.600   3.580   7.911 -0.4701  0.3620  0.1017
  285loPI   C5A 4555   0.676   3.920   7.513  0.0717 -0.3710 -0.1321
  285loPI   C6A 4556   0.488   4.342   7.281 -0.4403 -0.0400 -0.0131
  285loPI   C1B 4557   1.040   3.313   8.893 -0.0907 -0.0754  0.0353
  285loPI   C2B 4558   1.048   3.207   8.478 -0.2557  0.2532  0.1121
  285loPI   C3B 4559   0.908   3.168   8.070  0.3609 -0.3016 -0.0288
  285loPI   C4B 4560   0.928   3.157   7.607 -0.1159 -0.1040 -0.1569
  286loPI    C1 4561  11.558   8.866   9.761  0.0079 -0.0409  0.1122
  286loPI    C2 4562  11.786   8.853  10.089 -0.2131  0.1290  0.2758
  286loPI    C3 4563  11.403   8.967  10.116 -0.2226  0.1820 -0.0478
  286loPI   PO4 4564  11.746   9.062   9.616 -0.1087 -0.1701  0.1261
  286loPI   GL1 4565  12.061   8.933   9.256 -0.2551  0.2950  0.2710
  286loPI   GL2 4566  11.807   8.756   9.216 -0.0226  0.0107 -0.0278
  286loPI   C1A 4567  12.279   8.847   8.850  0.1707  0.1274 -0.2646
  286loPI   C2A 4568  12.200   8.900   8.306 -0.1884  0.0163  0.0706
  286loPI   C3A 4569  12.433   8.963   7.887 -0.1569  0.0803  0.2131
  286loPI   C4A 4570  12.421   9.180   7.521 -0.2495  0.2897  0.0545
  286loPI   C5A 4571  12.851   9.271   7.281 -0.2521  0.1151 -0.1252
  286loPI   C6A 4572  13.103   8.999   7.184 -0.2468 -0.2177 -0.1290
  286loPI   C1B 4573  11.813   8.680   8.813 -0.0770  0.1573 -0.2026
  286loPI   C2B 4574  11.787   8.561   8.466  0.0314  0.1494  0.2064
  286loPI   C3B 4575  11.780   8.426   7.937  0.1427  0.0365 -0.2497
  286loPI   C4B 4576  11.665   8.419   7.526 -0.0375  0.0267 -0.0998
  287loPI    C1 4577   4.118   4.713  10.294 -0.0714  0.0945 -0.1808
  287loPI    C2 4578   4.333   4.728  10.631  0.1798 -0.2642 -0.3189
  287loPI    C3 4579   3.962   4.580  10.637  0.1000 -0.0623 -0.1619
  287loPI   PO4 4580   4.287   4.552  10.091 -0.3322  0.0525 -0.2467
  287loPI   GL1 4581   4.108   4.530   9.648 -0.5133  0.0212 -0.2716
  287loPI   GL2 4582   4.022   4.785   9.437 -0.2807  0.0592  0.1169
  287loPI   C1A 4583   4.241   4.355   9.212 -0.2584  0.2944  0.0322
  287loPI   C2A 4584   4.166   4.225   8.807  0.1403  0.1143 -0.1709
  287loPI   C3A 4585   4.086   4.277   8.366  0.2252 -0.1045 -0.1137
  287loPI   C4A 4586   4.159   4.162   7.980  0.2999 -0.1394 -0.1093
  287loPI   C5A 4587   4.180   4.053   7.635 -0.1956  0.2364 -0.0357
  287loPI   C6A 4588   4.072   4.168   7.231 -0.1249  0.1336 -0.0871
  287loPI   C1B 4589   4.206   4.848   9.158 -0.2062  0.2033  0.3245
  287loPI   C2B 4590   4.405   4.736   8.817  0.0161  0.0778 -0.1322
  287loPI   C3B 4591   4.515   4.748   8.405  0.2081  0.1973 -0.0358
  287loPI   C4B 4592   4.512   4.789   8.003  0.1323  0.0867 -0.0831
  288loPI    C1 4593   6.662  15.193   9.996  0.1019 -0.0326 -0.0485
  288loPI    C2 4594   7.018  15.351  10.084  0.0727 -0.0101  0.0301
  288loPI    C3 4595   6.721  15.367  10.351  0.0085 -0.0162 -0.0407
  288loPI   PO4 4596   6.535  15.343   9.779  0.0183  0.0047 -0.0705
  288loPI   GL1 4597   6.560  15.523   9.274  0.3162  0.3927  0.1637
  288loPI   GL2 4598   6.606  15.716   9.209 -0.2243  0.0833 -0.0352
  288loPI   C1A 4599   6.378  15.388   8.816 -0.0423 -0.1622  0.1550
  288loPI   C2A 4600   6.176  15.529   8.423  0.0274 -0.0843  0.2745
  288loPI   C3A 4601   6.142  15.316   8.038  0.0602 -0.2466 -0.1873
  288loPI   C4A 4602   5.988  15.432   7.712 -0.1643  0.0892 -0.3568
  288loPI   C5A 4603   5.633  15.335   7.405 -0.2053 -0.0175 -0.0513
  288loPI   C6A 4604   5.268  15.422   7.099 -0.2248 -0.0370  0.2778
  288loPI   C1B 4605   6.394  15.855   8.800  0.0085  0.1937  0.0469
  288loPI   C2B 4606   6.540  15.878   8.333  0.0406  0.0042  0.1383
  288loPI   C3B 4607   6.586  16.104   7.864  0.4014  0.0557 -0.0377
  288loPI   C4B 4608   7.023  16.010   7.761 -0.0380 -0.0600 -0.0389
  289loPI    C1 4609   6.220  16.028  10.299 -0.1448 -0.1103  0.1333
  289loPI    C2 4610   6.381  16.251  10.590 -0.0954  0.1132 -0.0614
  289loPI    C3 4611   6.119  15.962  10.680 -0.1803  0.2662  0.1928
  289loPI   PO4 4612   6.201  16.140  10.074  0.1097  0.1964 -0.0484
  289loPI   GL1 4613   6.007  16.214   9.606 -0.0839  0.1756 -0.0395
  289loPI   GL2 4614   6.137  16.516   9.678 -0.1268  0.1580 -0.1318
  289loPI   C1A 4615   5.661  16.452   9.395 -0.2735 -0.0759 -0.2697
  289loPI   C2A 4616   5.569  16.606   9.065 -0.3456  0.3348  0.0221
  289loPI   C3A 4617   5.421  16.835   8.705 -0.1922 -0.1539 -0.0216
  289loPI   C4A 4618   5.404  16.969   8.313 -0.1042 -0.0922 -0.0075
  289loPI   C5A 4619   5.417  17.109   7.791 -0.1428  0.1473 -0.2468
  289loPI   C6A 4620   5.367  17.337   7.484 -0.0371 -0.1816 -0.1790
  289loPI   C1B 4621   6.175  16.722   9.240  0.1463  0.4339  0.0126
  289loPI   C2B 4622   5.981  16.809   8.861 -0.0013  0.3542  0.0173
  289loPI   C3B 4623   5.921  16.853   8.502 -0.3893  0.0062 -0.4514
  289loPI   C4B 4624   5.849  17.023   8.075 -0.0604  0.0269  0.1189
  290loPI    C1 4625   2.524  13.450   9.450  0.0373 -0.0761  0.0953
  290loPI    C2 4626   2.543  13.533   9.841 -0.1956  0.1094  0.0691
  290loPI    C3 4627   2.793  13.712   9.586 -0.2023  0.1696  0.1046
  290loPI   PO4 4628   2.269  13.383   9.439  0.0655 -0.0206  0.0417
  290loPI   GL1 4629   2.169  13.222   9.008  0.2761  0.0795  0.0488
  290loPI   GL2 4630   2.124  12.955   8.903  0.0767 -0.2521 -0.2306
  290loPI   C1A 4631   2.112  13.405   8.682 -0.1890 -0.0453  0.0420
  290loPI   C2A 4632   2.219  13.263   8.389 -0.3711  0.2469 -0.1061
  290loPI   C3A 4633   2.361  13.321   8.014 -0.1597 -0.2359  0.2393
  290loPI   C4A 4634   2.165  13.326   7.673 -0.1607  0.1126 -0.0997
  290loPI   C5A 4635   2.498  13.246   7.375 -0.3636  0.0114 -0.1665
  290loPI   C6A 4636   2.803  13.147   6.996 -0.3487  0.1169 -0.0567
  290loPI   C1B 4637   2.264  12.784   8.521 -0.0451  0.2972  0.0449
  290loPI   C2B 4638   2.533  12.809   8.110 -0.0469 -0.0834  0.0645
  290loPI   C3B 4639   2.727  12.994   7.767  0.0731 -0.1050 -0.0219
  290loPI   C4B 4640   2.648  12.776   7.336  0.1148 -0.2039  0.0766
  291loPI    C1 4641   2.066  14.423   9.327 -0.1476  0.0653 -0.1056
  291loPI    C2 4642   2.455  14.508   9.364 -0.1163  0.0034 -0.2866
  291loPI    C3 4643   2.219  14.515   9.686  0.0514 -0.0433 -0.1610
  291loPI   PO4 4644   2.118  14.167   9.193  0.1797  0.2869  0.2184
  291loPI   GL1 4645   1.985  13.951   8.780 -0.0504 -0.3620  0.0241
  291loPI   GL2 4646   1.909  14.206   8.628 -0.0997 -0.1001 -0.1813
  291loPI   C1A 4647   2.141  13.772   8.356  0.4519 -0.0552 -0.0901
  291loPI   C2A 4648   2.213  13.809   7.934 -0.0472  0.0058 -0.1437
  291loPI   C3A 4649   2.187  13.798   7.533 -0.0715  0.0544  0.1298
  291loPI   C4A 4650   2.263  14.149   7.251 -0.2567  0.3143  0.0372
  291loPI   C5A 4651   2.100  14.469   7.077 -0.2899 -0.1804  0.0411
  291loPI   C6A 4652   1.736  14.603   6.898  0.1237 -0.1262 -0.0003
  291loPI   C1B 4653   1.798  14.152   8.192  0.2715  0.1560 -0.4225
  291loPI   C2B 4654   1.774  14.030   7.747 -0.1251  0.2966  0.3706
  291loPI   C3B 4655   1.696  13.597   7.623 -0.3048 -0.1702  0.2958
  291loPI   C4B 4656   1.658  13.099   7.616 -0.3075  0.0675  0.0610
  292loPI    C1 4657  10.330   1.678  10.254 -0.0707  0.0559 -0.2501
  292loPI    C2 4658  10.629   1.415  10.214 -0.1522 -0.0570 -0.1241
  292loPI    C3 4659  10.347   1.358  10.492 -0.1053  0.2270 -0.0145
  292loPI   PO4 4660  10.377   1.820   9.975  0.1693  0.0935 -0.3863
  292loPI   GL1 4661  10.188   1.701   9.587 -0.0066 -0.2636  0.1101
  292loPI   GL2 4662  10.514   1.957   9.459  0.2186  0.0519  0.0667
  292loPI   C1A 4663  10.176   1.538   9.131  0.2859  0.0696 -0.0663
  292loPI   C2A 4664   9.997   1.286   8.712 -0.2747 -0.5911  0.1865
  292loPI   C3A 4665   9.873   1.430   8.263  0.0622 -0.0402 -0.2370
  292loPI   C4A 4666   9.861   1.253   7.872  0.1523 -0.0247 -0.1965
  292loPI   C5A 4667   9.806   1.207   7.388  0.0847  0.2839  0.0094
  292loPI   C6A 4668   9.616   1.047   7.044 -0.0688 -0.2478  0.0394
  292loPI   C1B 4669  10.429   2.033   8.962 -0.0417 -0.0548  0.1355
  292loPI   C2B 4670  10.469   2.332   8.644  0.2475 -0.2308  0.2271
  292loPI   C3B 4671  10.539   2.700   8.375  0.2099 -0.0970 -0.1993
  292loPI   C4B 4672  10.360   3.114   8.178  0.0037 -0.1962  0.0742
  293loPI    C1 4673  10.284  18.857  10.191 -0.0445 -0.0465 -0.0175
  293loPI    C2 4674  10.071  19.147  10.366  0.0390  0.0482 -0.0714
  293loPI    C3 4675  10.078  18.780  10.525 -0.1746  0.0405 -0.0769
  293loPI   PO4 4676  10.260  18.875   9.881 -0.0869 -0.3087 -0.5551
  293loPI   GL1 4677  10.173  18.979   9.485  0.0441 -0.2160  0.0639
  293loPI   GL2 4678  10.019  18.736   9.347 -0.2488  0.1163  0.1376
  293loPI   C1A 4679  10.381  18.998   9.163 -0.1301 -0.1122 -0.1754
  293loPI   C2A 4680  10.674  18.879   8.889 -0.0656 -0.0196  0.3063
  293loPI   C3A 4681  10.945  18.739   8.548 -0.0185 -0.1504 -0.0750
  293loPI   C4A 4682  11.104  18.656   8.105 -0.1214  0.2951  0.0239
  293loPI   C5A 4683  11.007  18.828   7.757 -0.1441 -0.0528 -0.2072
  293loPI   C6A 4684  10.939  19.176   7.510  0.0807  0.0353 -0.1232
  293loPI   C1B 4685  10.302  18.585   8.977 -0.0519 -0.0200 -0.1810
  293loPI   C2B 4686  10.455  18.601   8.535  0.1419  0.2129  0.1973
  293loPI   C3B 4687  10.189  18.721   8.275  0.1699  0.1311 -0.4190
  293loPI   C4B 4688  10.077  19.042   8.040 -0.0332 -0.1997 -0.0939
  294loPI    C1 4689  10.875   7.552  10.238 -0.1425  0.1445 -0.0680
  294loPI    C2 4690  11.274   7.542  10.221 -0.1432 -0.1790  0.0435
  294loPI    C3 4691  11.091   7.739  10.517 -0.0681 -0.0041 -0.0252
  294loPI   PO4 4692  10.823   7.531  10.006 -0.0793 -0.0313 -0.2342
  294loPI   GL1 4693  11.069   7.452   9.733  0.0687 -0.1539  0.0277
  294loPI   GL2 4694  11.082   7.111   9.654  0.1188  0.1948 -0.0778
  294loPI   C1A 4695  10.948   7.547   9.361 -0.1042  0.1257  0.1513
  294loPI   C2A 4696  10.944   7.657   8.969  0.3113 -0.1557  0.0304
  294loPI   C3A 4697  10.705   7.579   8.549  0.1978 -0.1010  0.2152
  294loPI   C4A 4698  10.326   7.889   8.456 -0.1567  0.1001 -0.1606
  294loPI   C5A 4699  10.303   7.952   8.050 -0.1374  0.0665  0.1564
  294loPI   C6A 4700  10.348   7.857   7.691 -0.4363 -0.1356  0.0619
  294loPI   C1B 4701  10.748   6.942   9.407  0.1951  0.4345  0.2557
  294loPI   C2B 4702  10.523   6.714   9.144  0.0607 -0.1214  0.0450
  294loPI   C3B 4703  10.546   6.517   8.673  0.1569  0.3173  0.1227
  294loPI   C4B 4704  10.282   6.444   8.353  0.1345 -0.1308  0.0527
  295loPI    C1 4705  13.425   2.309  10.491  0.0574 -0.1016  0.0361
  295loPI    C2 4706  13.659   2.624  10.412 -0.0637  0.0011  0.0839
  295loPI    C3 4707  13.444   2.613  10.750 -0.1287 -0.0920  0.0401
  295loPI   PO4 4708  13.326   2.261  10.216  0.1191 -0.0200  0.0578
  295loPI   GL1 4709  13.101   2.286   9.747  0.0220 -0.1880  0.0376
  295loPI   GL2 4710  13.308   2.187   9.584 -0.1523  0.1991  0.2601
  295loPI   C1A 4711  13.133   2.622   9.370  0.2177  0.1872  0.2125
  295loPI   C2A 4712  13.261   2.714   8.991  0.0688 -0.0557  0.0227
  295loPI   C3A 4713  13.145   2.742   8.566  0.0467 -0.2556 -0.0640
  295loPI   C4A 4714  13.168   2.620   8.223 -0.0555  0.2337 -0.0994
  295loPI   C5A 4715  12.890   2.786   7.918 -0.0556 -0.0917 -0.0793
  295loPI   C6A 4716  12.581   2.778   7.636 -0.1245 -0.1020  0.1373
  295loPI   C1B 4717  13.567   2.248   9.147  0.0445 -0.0540 -0.0061
  295loPI   C2B 4718  13.460   2.326   8.679 -0.0870 -0.2182 -0.0117
  295loPI   C3B 4719  13.695   2.415   8.147  0.2375  0.1220 -0.0098
  295loPI   C4B 4720  14.045   2.774   8.005 -0.2572  0.0785 -0.2522
  296loPI    C1 4721   3.772   2.028  10.319 -0.0017 -0.0673 -0.0184
  296loPI    C2 4722   3.695   2.158  10.689 -0.1901 -0.1402 -0.0310
  296loPI    C3 4723   3.505   1.836  10.547 -0.0875 -0.1374 -0.1761
  296loPI   PO4 4724   3.780   2.171  10.030 -0.2676 -0.0902 -0.1318
  296loPI   GL1 4725   3.814   2.058   9.588  0.4873  0.2084  0.1517
  296loPI   GL2 4726   3.935   1.733   9.733 -0.0763 -0.0193  0.2893
  296loPI   C1A 4727   3.852   1.984   9.204 -0.3145  0.0458  0.1772
  296loPI   C2A 4728   3.871   1.954   8.780 -0.0123  0.1896  0.0297
  296loPI   C3A 4729   3.829   1.889   8.326 -0.2851 -0.3536 -0.0310
  296loPI   C4A 4730   3.758   1.901   7.928 -0.0116  0.0769  0.1463
  296loPI   C5A 4731   3.506   1.860   7.514  0.0993  0.1838 -0.1402
  296loPI   C6A 4732   3.653   1.864   7.048 -0.2318  0.0906  0.0030
  296loPI   C1B 4733   4.004   1.489   9.395 -0.1917 -0.0344  0.2565
  296loPI   C2B 4734   4.113   1.571   9.030  0.0465  0.0977  0.1283
  296loPI   C3B 4735   4.104   1.480   8.546  0.2757 -0.0295  0.1341
  296loPI   C4B 4736   4.099   1.446   8.081  0.3040  0.0043 -0.1411
  297loPI    C1 4737   3.697   0.609  10.411 -0.0111 -0.3110  0.2818
  297loPI    C2 4738   3.938   0.926  10.446  0.0676 -0.3334 -0.0297
  297loPI    C3 4739   3.893   0.674  10.753  0.2118 -0.1677  0.1293
  297loPI   PO4 4740   3.666   0.534  10.123  0.0380 -0.2862  0.1694
  297loPI   GL1 4741   3.603   0.469   9.670 -0.0601 -0.2584 -0.0653
  297loPI   GL2 4742   3.817   0.257   9.708 -0.2001  0.0223  0.1984
  297loPI   C1A 4743   3.605   0.473   9.229 -0.0480 -0.1236  0.0633
  297loPI   C2A 4744   3.594   0.558   8.796  0.3414  0.0706 -0.2810
  297loPI   C3A 4745   3.649   0.588   8.381  0.0563 -0.1225 -0.0791
  297loPI   C4A 4746   3.588   0.571   7.919  0.0496  0.0152  0.0730
  297loPI   C5A 4747   3.700   0.087   7.621  0.0362 -0.0992  0.2547
  297loPI   C6A 4748   3.622   0.036   7.134  0.0681  0.1743  0.4760
  297loPI   C1B 4749   3.855   0.069   9.267  0.3243  0.0303  0.0912
  297loPI   C2B 4750   3.858   0.147   8.836  0.2379  0.2709 -0.0586
  297loPI   C3B 4751   3.858   0.147   8.469 -0.0651  0.2557 -0.1988
  297loPI   C4B 4752   3.756   0.154   8.130 -0.0587  0.2248  0.0394
  298loPI    C1 4753  19.392  10.192   9.428  0.1863  0.2093  0.2514
  298loPI    C2 4754  19.026  10.051   9.506  0.4222 -0.4295  0.2682
  298loPI    C3 4755  19.205  10.297   9.766  0.0358 -0.1587  0.2876
  298loPI   PO4 4756  19.479   9.965   9.319 -0.1123  0.1270  0.4405
  298loPI   GL1 4757  19.339   9.706   8.886 -0.0972 -0.0929 -0.0674
  298loPI   GL2 4758  19.143  10.001   8.952 -0.0029 -0.0910 -0.3574
  298loPI   C1A 4759  19.363   9.890   8.437  0.2500  0.3464 -0.1813
  298loPI   C2A 4760  19.478   9.744   8.048 -0.3312 -0.1685  0.0236
  298loPI   C3A 4761  19.574   9.797   7.601 -0.2138  0.0391  0.0449
  298loPI   C4A 4762  19.598   9.591   7.237  0.1285 -0.2281  0.1205
  298loPI   C5A 4763  19.938   9.424   7.006  0.0420  0.1097 -0.2824
  298loPI   C6A 4764  20.129   9.443   6.594 -0.2291  0.0104  0.1380
  298loPI   C1B 4765  19.287  10.329   8.607  0.0063  0.0045  0.1708
  298loPI   C2B 4766  19.348  10.262   8.137  0.0142 -0.0264  0.3013
  298loPI   C3B 4767  19.197  10.143   7.690 -0.0342  0.3421 -0.0852
  298loPI   C4B 4768  18.732   9.909   7.632 -0.0416  0.2186  0.0919
  299loPI    C1 4769   9.307   2.687  10.264 -0.3266  0.0079  0.1599
  299loPI    C2 4770   9.317   2.363  10.498  0.1719 -0.1245 -0.0304
  299loPI    C3 4771   9.419   2.720  10.647 -0.2553 -0.0702  0.1463
  299loPI   PO4 4772   9.239   2.551  10.031 -0.1606 -0.0447  0.0495
  299loPI   GL1 4773   9.091   2.369   9.623  0.0659  0.1590 -0.2972
  299loPI   GL2 4774   8.825   2.448   9.555  0.1112  0.0114 -0.1761
  299loPI   C1A 4775   9.047   2.088   9.214 -0.2240 -0.3618  0.1026
  299loPI   C2A 4776   9.053   2.043   8.772 -0.0563 -0.0694  0.2377
  299loPI   C3A 4777   9.177   2.078   8.289  0.3086 -0.2449 -0.2723
  299loPI   C4A 4778   9.162   1.893   7.975  0.1895  0.1233 -0.1327
  299loPI   C5A 4779   9.445   1.607   7.713 -0.0369  0.0692 -0.1609
  299loPI   C6A 4780   9.484   1.081   7.676  0.0958  0.4272 -0.0706
  299loPI   C1B 4781   8.694   2.467   9.174 -0.0983 -0.0545  0.0782
  299loPI   C2B 4782   8.552   2.193   8.807 -0.1092 -0.1667 -0.0596
  299loPI   C3B 4783   8.612   2.034   8.433  0.1429 -0.0531 -0.1522
  299loPI   C4B 4784   8.638   1.954   7.989 -0.2129 -0.0379  0.2068
  300loPI    C1 4785   4.091   1.284  10.122  0.0297 -0.1562  0.2272
  300loPI    C2 4786   4.036   1.491  10.459 -0.4073  0.1157 -0.0021
  300loPI    C3 4787   3.775   1.526  10.158  0.0345 -0.0363 -0.4151
  300loPI   PO4 4788   4.327   1.321  10.052  0.1856  0.4339  0.1082
  300loPI   GL1 4789   4.477   1.160   9.754 -0.1078 -0.3084 -0.1268
  300loPI   GL2 4790   4.343   1.010   9.592  0.1450 -0.0004 -0.0730
  300loPI   C1A 4791   4.614   1.487   9.383  0.0240 -0.1873  0.4776
  300loPI   C2A 4792   4.633   1.530   8.961 -0.0182 -0.2785  0.1331
  300loPI   C3A 4793   4.661   1.550   8.533  0.3213  0.1998 -0.0531
  300loPI   C4A 4794   4.578   1.475   8.057  0.1204  0.0605  0.0817
  300loPI   C5A 4795   4.426   1.340   7.678 -0.1183 -0.2111  0.0516
  300loPI   C6A 4796   4.394   1.400   7.233  0.0714  0.0678 -0.0481
  300loPI   C1B 4797   4.269   1.049   9.203 -0.1155 -0.1155  0.2106
  300loPI   C2B 4798   4.350   1.072   8.722  0.0181 -0.0040  0.0539
  300loPI   C3B 4799   4.369   1.097   8.320 -0.1572  0.1340 -0.1909
  300loPI   C4B 4800   4.385   0.938   7.935 -0.1844 -0.0160  0.2193
  301loPI    C1 4801  11.174   9.907   9.748 -0.1582 -0.1488 -0.0781
  301loPI    C2 4802  11.091  10.078  10.100  0.2253 -0.0234 -0.0439
  301loPI    C3 4803  11.141   9.682  10.076  0.0133 -0.0545  0.0049
  301loPI   PO4 4804  11.427  10.089   9.650 -0.2112 -0.1180 -0.0693
  301loPI   GL1 4805  11.663   9.932   9.312 -0.3545  0.0280 -0.1874
  301loPI   GL2 4806  11.350  10.040   9.135  0.0238  0.3206  0.2766
  301loPI   C1A 4807  11.830  10.139   8.929 -0.2597  0.2378  0.0741
  301loPI   C2A 4808  12.170  10.280   8.678 -0.0972 -0.0192  0.2347
  301loPI   C3A 4809  12.542  10.436   8.461  0.0519 -0.2705 -0.0527
  301loPI   C4A 4810  12.620  10.542   8.075 -0.1047  0.0603 -0.0976
  301loPI   C5A 4811  12.431  10.951   7.853 -0.2277  0.1029  0.0378
  301loPI   C6A 4812  12.678  11.261   7.729  0.1843 -0.0257 -0.1050
  301loPI   C1B 4813  11.427   9.582   8.864 -0.1128  0.2742  0.0448
  301loPI   C2B 4814  11.463   9.417   8.512  0.0236 -0.0924 -0.2097
  301loPI   C3B 4815  11.420   9.289   8.024  0.3296 -0.0712 -0.4106
  301loPI   C4B 4816  11.202   9.272   7.555  0.0252  0.6544  0.1842
  302loPI    C1 4817  15.122  13.356   9.874 -0.0413 -0.2237  0.0396
  302loPI    C2 4818  14.962  13.218  10.213 -0.2966  0.0683  0.0424
  302loPI    C3 4819  15.342  13.343  10.208 -0.1932 -0.2332  0.1400
  302loPI   PO4 4820  14.884  13.415   9.776  0.0149 -0.4430 -0.0571
  302loPI   GL1 4821  14.866  13.179   9.346 -0.0288  0.2953  0.1772
  302loPI   GL2 4822  14.997  12.881   9.227  0.2219 -0.1542 -0.1320
  302loPI   C1A 4823  14.660  13.228   8.944 -0.0222 -0.1672 -0.1942
  302loPI   C2A 4824  14.673  13.164   8.447  0.2896  0.4701 -0.1839
  302loPI   C3A 4825  14.861  13.163   8.164 -0.1299 -0.0074 -0.0678
  302loPI   C4A 4826  14.779  13.149   7.830 -0.0840 -0.0521  0.3089
  302loPI   C5A 4827  14.833  12.786   7.549  0.2040 -0.0393 -0.0979
  302loPI   C6A 4828  14.871  12.758   7.062 -0.2296  0.1925 -0.0943
  302loPI   C1B 4829  15.175  12.958   8.881 -0.0625 -0.1178 -0.0395
  302loPI   C2B 4830  15.248  13.144   8.487 -0.0228 -0.0627  0.0230
  302loPI   C3B 4831  15.366  13.227   8.051 -0.3090 -0.0008 -0.2173
  302loPI   C4B 4832  15.345  12.966   7.597  0.1792 -0.0926  0.0806
  303loPI    C1 4833   7.077   5.766   9.864 -0.1247  0.1428 -0.0278
  303loPI    C2 4834   7.236   5.603  10.193  0.0353 -0.0712 -0.2076
  303loPI    C3 4835   7.022   5.940  10.220 -0.0452 -0.1450  0.1287
  303loPI   PO4 4836   7.317   5.693   9.708  0.1168 -0.2493  0.2719
  303loPI   GL1 4837   7.456   5.674   9.252  0.0445  0.1281  0.0642
  303loPI   GL2 4838   7.518   5.291   9.517  0.0235  0.0674  0.0837
  303loPI   C1A 4839   7.535   5.474   8.792  0.2198 -0.1911 -0.2189
  303loPI   C2A 4840   7.524   5.306   8.351  0.0365 -0.1907 -0.2999
  303loPI   C3A 4841   7.884   5.152   8.134  0.0640 -0.1887  0.0420
  303loPI   C4A 4842   7.836   5.150   7.568  0.0819 -0.2019  0.1501
  303loPI   C5A 4843   7.590   4.895   7.412 -0.0650  0.1699 -0.0321
  303loPI   C6A 4844   7.370   4.584   7.600 -0.1066 -0.2349 -0.0363
  303loPI   C1B 4845   7.825   5.251   9.139  0.1117 -0.0910 -0.1402
  303loPI   C2B 4846   7.951   5.274   8.658 -0.1431  0.0755  0.2216
  303loPI   C3B 4847   8.190   5.507   8.339  0.1863 -0.1619  0.2781
  303loPI   C4B 4848   8.204   5.440   7.880 -0.0975 -0.2260 -0.1215
  304loPI    C1 4849   3.633   4.026  10.438  0.1714  0.1466  0.1896
  304loPI    C2 4850   3.568   3.717  10.684  0.3009 -0.1184 -0.1006
  304loPI    C3 4851   3.909   3.925  10.709  0.2478 -0.0468  0.0423
  304loPI   PO4 4852   3.527   3.928  10.156 -0.0375  0.1039 -0.1828
  304loPI   GL1 4853   3.371   4.026   9.814 -0.0065 -0.2492  0.0353
  304loPI   GL2 4854   3.501   3.885   9.655  0.0285 -0.1028  0.1519
  304loPI   C1A 4855   3.034   3.867   9.541  0.1026 -0.2300  0.0745
  304loPI   C2A 4856   2.913   3.749   9.143 -0.2088  0.1391  0.0960
  304loPI   C3A 4857   2.872   3.655   8.634 -0.2495  0.0952  0.0328
  304loPI   C4A 4858   2.731   3.863   8.215  0.1178 -0.0141 -0.0306
  304loPI   C5A 4859   2.552   4.290   7.852  0.2822  0.0250 -0.0897
  304loPI   C6A 4860   2.390   4.643   7.825  0.3973  0.0254 -0.2207
  304loPI   C1B 4861   3.464   3.795   9.178 -0.2074  0.2463  0.0188
  304loPI   C2B 4862   3.402   3.715   8.708 -0.1511 -0.0752  0.1629
  304loPI   C3B 4863   3.253   3.881   8.208  0.2812  0.0790  0.1065
  304loPI   C4B 4864   3.193   3.793   7.848  0.0577  0.0158  0.3952
  305loPI    C1 4865   8.716   3.770   9.934 -0.0577 -0.1907  0.1844
  305loPI    C2 4866   9.017   3.652   9.698  0.0201  0.3119  0.0211
  305loPI    C3 4867   8.998   3.525  10.077  0.2193 -0.0333 -0.0806
  305loPI   PO4 4868   8.531   3.700   9.781  0.1950 -0.1162 -0.1499
  305loPI   GL1 4869   8.368   3.851   9.416 -0.1448 -0.0613  0.1613
  305loPI   GL2 4870   8.686   3.964   9.439  0.1469 -0.0922 -0.2329
  305loPI   C1A 4871   8.535   4.032   8.988  0.1768 -0.3021  0.1795
  305loPI   C2A 4872   8.396   3.808   8.609  0.1244 -0.1066 -0.0511
  305loPI   C3A 4873   8.137   3.752   8.202  0.1012  0.2147 -0.0551
  305loPI   C4A 4874   8.069   3.662   7.746 -0.1369  0.2707 -0.0300
  305loPI   C5A 4875   8.183   3.453   7.357  0.0374 -0.2073 -0.1247
  305loPI   C6A 4876   8.184   3.369   6.860  0.2329 -0.0676 -0.3527
  305loPI   C1B 4877   8.911   4.300   9.082  0.3984 -0.1298 -0.1130
  305loPI   C2B 4878   9.156   4.406   8.739  0.0701  0.0551 -0.1421
  305loPI   C3B 4879   8.942   4.556   8.351 -0.2007 -0.0031  0.0104
  305loPI   C4B 4880   8.531   4.594   8.196 -0.2017  0.1098 -0.0962
  306loPI    C1 4881   9.279  16.964  10.293  0.4306  0.1833  0.1422
  306loPI    C2 4882   9.242  16.566  10.285 -0.1954  0.2293  0.2867
  306loPI    C3 4883   9.558  16.733  10.463  0.1358 -0.2000  0.1194
  306loPI   PO4 4884   9.179  17.020  10.071  0.2030  0.1888  0.1419
  306loPI   GL1 4885   9.141  17.055   9.608 -0.0926  0.2447  0.2258
  306loPI   GL2 4886   8.759  17.113   9.453  0.2883  0.2020 -0.1129
  306loPI   C1A 4887   9.274  17.063   9.190 -0.2611  0.2374  0.0012
  306loPI   C2A 4888   9.346  17.197   8.810  0.0984 -0.1449 -0.0810
  306loPI   C3A 4889   9.413  17.481   8.496 -0.2455 -0.2112 -0.2901
  306loPI   C4A 4890   9.349  17.483   8.066  0.0142 -0.4039 -0.0103
  306loPI   C5A 4891   9.156  17.388   7.578  0.2494  0.2351 -0.0422
  306loPI   C6A 4892   9.163  17.053   7.300  0.0575 -0.0995 -0.1571
  306loPI   C1B 4893   8.848  16.990   8.954  0.0528 -0.2892  0.4001
  306loPI   C2B 4894   9.051  16.890   8.585  0.0392 -0.1918  0.0704
  306loPI   C3B 4895   9.070  16.750   8.184  0.1134 -0.2086  0.1206
  306loPI   C4B 4896   8.975  16.985   7.783  0.0814  0.0882 -0.2394
  307loPI    C1 4897  11.049  12.356  10.080 -0.2565  0.0303 -0.0844
  307loPI    C2 4898  11.106  12.102  10.383  0.0006  0.2050  0.0179
  307loPI    C3 4899  10.808  12.368  10.398 -0.1541  0.0353 -0.0064
  307loPI   PO4 4900  11.015  12.262   9.763 -0.0471  0.1635 -0.0939
  307loPI   GL1 4901  11.216  12.321   9.421 -0.1228 -0.1671 -0.0630
  307loPI   GL2 4902  11.368  12.259   9.204  0.2554 -0.0700 -0.3536
  307loPI   C1A 4903  10.912  12.414   9.003  0.3149  0.3511  0.0985
  307loPI   C2A 4904  10.929  12.474   8.560  0.2212  0.1016 -0.0289
  307loPI   C3A 4905  10.857  12.535   8.133 -0.1943 -0.0386 -0.3458
  307loPI   C4A 4906  11.052  12.813   7.794  0.0771  0.1565  0.0214
  307loPI   C5A 4907  11.250  13.021   7.399 -0.0940 -0.2079  0.1025
  307loPI   C6A 4908  11.468  13.250   7.036 -0.0884  0.1281  0.1483
  307loPI   C1B 4909  11.386  12.340   8.864  0.0070  0.0025 -0.1656
  307loPI   C2B 4910  11.372  12.331   8.463 -0.0067  0.2988  0.0453
  307loPI   C3B 4911  11.343  12.344   7.951  0.0828  0.2953  0.1054
  307loPI   C4B 4912  11.510  12.542   7.672  0.2197 -0.0660  0.1480
  308loPI    C1 4913   4.065   5.726  10.093  0.0446 -0.1923  0.1371
  308loPI    C2 4914   4.080   6.004  10.381  0.1803 -0.1674  0.1071
  308loPI    C3 4915   3.967   5.630  10.469 -0.2937 -0.0342  0.0924
  308loPI   PO4 4916   3.991   5.876   9.879  0.3557  0.1523  0.0937
  308loPI   GL1 4917   3.821   5.827   9.530  0.0614  0.2190 -0.0190
  308loPI   GL2 4918   3.548   5.861   9.412 -0.0513  0.0000 -0.0187
  308loPI   C1A 4919   3.943   5.756   9.075  0.1115 -0.1050  0.1307
  308loPI   C2A 4920   4.104   5.729   8.654 -0.0417  0.0521  0.1030
  308loPI   C3A 4921   4.025   5.613   8.174  0.0338  0.1469 -0.0318
  308loPI   C4A 4922   4.011   5.587   7.643  0.0807 -0.0681 -0.0256
  308loPI   C5A 4923   4.289   5.366   7.403  0.0824  0.0251 -0.1382
  308loPI   C6A 4924   4.582   5.474   7.102 -0.0434 -0.3633  0.1862
  308loPI   C1B 4925   3.524   5.907   8.823  0.2100  0.2652 -0.1399
  308loPI   C2B 4926   3.625   5.806   8.433 -0.1706 -0.2461 -0.1776
  308loPI   C3B 4927   3.528   5.663   8.103 -0.2240 -0.2065  0.0172
  308loPI   C4B 4928   3.523   5.664   7.717  0.0607 -0.0189 -0.1152
  309loPI    C1 4929   9.431  19.339  10.413 -0.2044 -0.1681 -0.1634
  309loPI    C2 4930   9.653  19.070  10.609  0.1795  0.0600 -0.2743
  309loPI    C3 4931   9.254  19.052  10.629  0.2053 -0.1066  0.2727
  309loPI   PO4 4932   9.498  19.230  10.134 -0.0401 -0.0868  0.1745
  309loPI   GL1 4933   9.452  19.264   9.681  0.0610  0.0850  0.1975
  309loPI   GL2 4934   9.570  18.978   9.507  0.1071 -0.2140  0.0949
  309loPI   C1A 4935   9.274  19.338   9.296 -0.1115 -0.0364 -0.1071
  309loPI   C2A 4936   9.208  19.132   8.923 -0.0300 -0.1012  0.0278
  309loPI   C3A 4937   9.207  19.009   8.485 -0.5255  0.0628  0.3918
  309loPI   C4A 4938   8.990  18.916   8.032  0.1535  0.2060 -0.0936
  309loPI   C5A 4939   8.767  18.571   7.717  0.0488  0.0034 -0.2121
  309loPI   C6A 4940   8.974  18.261   7.363 -0.5307  0.0913  0.2550
  309loPI   C1B 4941   9.562  18.871   9.122  0.1235  0.3197  0.1802
  309loPI   C2B 4942   9.620  18.472   8.850  0.1246  0.0449  0.1963
  309loPI   C3B 4943   9.407  18.446   8.450 -0.0913 -0.1626  0.2792
  309loPI   C4B 4944   9.038  18.411   8.156  0.0428  0.0721  0.2188
  310loPI    C1 4945  12.347   5.878  10.312 -0.0755  0.1112 -0.0516
  310loPI    C2 4946  12.367   6.176  10.578 -0.0305 -0.0774  0.1595
  310loPI    C3 4947  12.620   5.867  10.605  0.1305  0.0134 -0.2443
  310loPI   PO4 4948  12.340   6.005  10.063  0.4592 -0.1400  0.1871
  310loPI   GL1 4949  11.987   6.150   9.816  0.0333  0.0111  0.1605
  310loPI   GL2 4950  12.107   5.866   9.670  0.0129  0.3328 -0.0793
  310loPI   C1A 4951  11.830   6.167   9.377 -0.1769 -0.1236  0.1358
  310loPI   C2A 4952  11.758   5.898   9.090 -0.1717 -0.0504 -0.0328
  310loPI   C3A 4953  11.671   5.657   8.770 -0.0126  0.0112 -0.3817
  310loPI   C4A 4954  11.411   5.738   8.450  0.1254 -0.1282 -0.0769
  310loPI   C5A 4955  11.299   5.691   8.078 -0.0107 -0.4160  0.3844
  310loPI   C6A 4956  11.499   5.387   7.776  0.0041 -0.0828 -0.2278
  310loPI   C1B 4957  12.334   6.048   9.401  0.1478  0.0536 -0.0024
  310loPI   C2B 4958  12.364   6.077   8.987 -0.0582 -0.0805 -0.2062
  310loPI   C3B 4959  12.044   5.978   8.653  0.0228  0.0002 -0.3161
  310loPI   C4B 4960  11.879   5.944   8.340  0.2360 -0.1988 -0.1506
  311loPI    C1 4961   8.401   2.707  10.189 -0.1256 -0.0660 -0.1207
  311loPI    C2 4962   8.325   2.333  10.311 -0.0403 -0.0390  0.0183
  311loPI    C3 4963   8.131   2.641  10.477 -0.0201 -0.0118 -0.0082
  311loPI   PO4 4964   8.572   2.753   9.973 -0.1899 -0.1223 -0.1806
  311loPI   GL1 4965   8.475   2.856   9.580 -0.1314 -0.2211  0.3126
  311loPI   GL2 4966   8.298   2.663   9.457 -0.1766 -0.2086 -0.0273
  311loPI   C1A 4967   8.858   2.945   9.240  0.1612  0.3517 -0.1471
  311loPI   C2A 4968   8.980   2.859   8.799 -0.0925 -0.3456  0.1642
  311loPI   C3A 4969   8.845   2.521   8.556 -0.0284 -0.1740 -0.0284
  311loPI   C4A 4970   8.593   2.485   8.209 -0.0538 -0.2322 -0.3015
  311loPI   C5A 4971   8.152   2.274   8.244  0.1703 -0.3396  0.1140
  311loPI   C6A 4972   7.981   2.039   8.681 -0.3516  0.4587  0.0159
  311loPI   C1B 4973   8.400   2.896   9.069  0.1292 -0.0409  0.1913
  311loPI   C2B 4974   8.495   3.063   8.651 -0.0328  0.1077 -0.1187
  311loPI   C3B 4975   8.810   2.986   8.352  0.0464  0.0042 -0.2884
  311loPI   C4B 4976   9.035   2.788   8.134 -0.0774  0.1629  0.0309
  312loPI    C1 4977  12.690   6.875   9.968 -0.1082  0.0654  0.0210
  312loPI    C2 4978  12.402   6.946  10.235  0.0091  0.0077  0.1644
  312loPI    C3 4979  12.769   7.093  10.293  0.0501 -0.0535  0.0641
  312loPI   PO4 4980  12.553   6.718   9.808 -0.0843  0.4917 -0.1509
  312loPI   GL1 4981  12.176   6.799   9.608 -0.0367 -0.1948 -0.2973
  312loPI   GL2 4982  12.009   7.100   9.511 -0.0641 -0.2579  0.0379
  312loPI   C1A 4983  12.246   6.491   9.238  0.1007 -0.0977 -0.0076
  312loPI   C2A 4984  11.927   6.386   8.876  0.0852  0.0507 -0.2708
  312loPI   C3A 4985  11.956   6.472   8.449 -0.0917 -0.0651 -0.1091
  312loPI   C4A 4986  11.918   6.782   8.123  0.0089 -0.2036 -0.1375
  312loPI   C5A 4987  12.013   7.205   7.811  0.1185 -0.0521 -0.2858
  312loPI   C6A 4988  12.355   7.469   7.973 -0.2453  0.0238  0.0249
  312loPI   C1B 4989  12.025   7.217   9.105 -0.0975 -0.0453 -0.0149
  312loPI   C2B 4990  12.204   7.323   8.773 -0.2844 -0.0072  0.0303
  312loPI   C3B 4991  12.438   7.248   8.496 -0.1652 -0.0316 -0.2605
  312loPI   C4B 4992  12.825   7.060   8.593  0.0260 -0.0857  0.1134
  313loPI    C1 4993  13.250  14.949  10.320  0.0453 -0.2585 -0.1388
  313loPI    C2 4994  12.911  14.893  10.524  0.0842 -0.0302 -0.0087
  313loPI    C3 4995  13.171  15.174  10.640  0.1226  0.0809 -0.3531
  313loPI   PO4 4996  13.072  14.950   9.993 -0.0543  0.2134  0.0022
  313loPI   GL1 4997  12.816  15.069   9.633  0.0629 -0.1130  0.0107
  313loPI   GL2 4998  12.686  14.970   9.484 -0.2978  0.3514  0.0556
  313loPI   C1A 4999  13.011  15.283   9.248 -0.0288 -0.2337  0.1464
  313loPI   C2A 5000  12.970  15.201   8.841 -0.0315 -0.3545  0.1086
  313loPI   C3A 5001  13.044  15.286   8.486 -0.1905  0.0584  0.0612
  313loPI   C4A 5002  12.948  15.327   8.048 -0.2038 -0.3992  0.1192
  313loPI   C5A 5003  13.069  15.481   7.636  0.0824 -0.1164  0.4385
  313loPI   C6A 5004  13.395  15.678   7.315  0.1475 -0.2527 -0.0140
  313loPI   C1B 5005  12.712  14.808   9.012 -0.1606  0.0002 -0.3387
  313loPI   C2B 5006  12.526  14.798   8.647 -0.0055 -0.3444  0.1256
  313loPI   C3B 5007  12.447  14.476   8.217  0.0899 -0.1679 -0.1292
  313loPI   C4B 5008  12.120  14.178   8.034 -0.0976 -0.1841 -0.1544
  314loPI    C1 5009  12.149   8.624   9.703 -0.3037  0.0081  0.3435
  314loPI    C2 5010  12.306   8.431  10.016  0.0150 -0.1024  0.1221
  314loPI    C3 5011  12.279   8.830  10.020  0.1945 -0.0903  0.2124
  314loPI   PO4 5012  11.908   8.502   9.694  0.0190 -0.2725 -0.0311
  314loPI   GL1 5013  11.719   8.351   9.417 -0.2478 -0.0333  0.1042
  314loPI   GL2 5014  11.408   8.478   9.496  0.1824 -0.1613  0.1237
  314loPI   C1A 5015  11.800   8.175   9.070  0.2425  0.0828  0.2360
  314loPI   C2A 5016  11.706   8.053   8.631 -0.1839 -0.1702  0.2340
  314loPI   C3A 5017  11.842   7.957   8.152 -0.2099  0.2963 -0.0403
  314loPI   C4A 5018  11.792   7.564   7.958  0.1305  0.0430 -0.1384
  314loPI   C5A 5019  11.601   7.389   7.555 -0.1824  0.2773 -0.1187
  314loPI   C6A 5020  11.523   7.189   7.114 -0.0953 -0.0054 -0.0530
  314loPI   C1B 5021  11.374   8.557   9.051 -0.1410 -0.3614 -0.1376
  314loPI   C2B 5022  11.308   8.417   8.677 -0.2054  0.1638  0.0425
  314loPI   C3B 5023  11.285   8.626   8.230  0.2685  0.0801 -0.0212
  314loPI   C4B 5024  11.088   8.367   7.965  0.2325  0.0856  0.2162
  315loPI    C1 5025  13.694  13.094  10.222  0.0326 -0.1455  0.0792
  315loPI    C2 5026  13.563  13.443  10.367 -0.0544 -0.0834 -0.1445
  315loPI    C3 5027  13.584  13.123  10.606 -0.0707  0.0488  0.0365
  315loPI   PO4 5028  13.634  13.032   9.985  0.0787  0.2276 -0.1787
  315loPI   GL1 5029  13.403  12.877   9.749 -0.0262 -0.0107  0.0143
  315loPI   GL2 5030  13.321  13.214   9.622 -0.1073 -0.0055 -0.3285
  315loPI   C1A 5031  13.614  13.014   9.303  0.4498 -0.1467  0.1029
  315loPI   C2A 5032  13.785  12.897   8.945  0.1014 -0.1801  0.1195
  315loPI   C3A 5033  13.732  12.842   8.543  0.3623 -0.1275 -0.2030
  315loPI   C4A 5034  13.858  12.676   8.114  0.3178  0.4704  0.0096
  315loPI   C5A 5035  13.901  13.013   7.775 -0.1292 -0.0430 -0.0399
  315loPI   C6A 5036  13.987  13.073   7.301  0.1633  0.0477  0.0677
  315loPI   C1B 5037  13.150  12.977   9.315 -0.1475  0.2621  0.0877
  315loPI   C2B 5038  13.258  13.087   8.958  0.1436  0.1424  0.2583
  315loPI   C3B 5039  13.269  13.187   8.530 -0.2055  0.1054  0.2421
  315loPI   C4B 5040  13.502  13.041   8.124  0.2920  0.1893  0.1249
  316loPI    C1 5041   5.411   3.683  10.155  0.1419 -0.0067  0.0560
  316loPI    C2 5042   5.375   4.074  10.082 -0.0741 -0.0364 -0.0019
  316loPI    C3 5043   5.315   3.933  10.452 -0.2787 -0.0488 -0.0384
  316loPI   PO4 5044   5.486   3.488   9.847  0.1243 -0.0417 -0.1232
  316loPI   GL1 5045   5.248   3.239   9.579  0.0906  0.6313 -0.0901
  316loPI   GL2 5046   4.998   3.089   9.545  0.0443  0.1457 -0.3333
  316loPI   C1A 5047   5.137   3.199   9.135 -0.1318 -0.2095  0.1602
  316loPI   C2A 5048   5.133   3.230   8.636  0.0378 -0.2457  0.2664
  316loPI   C3A 5049   5.034   3.325   8.131  0.4303 -0.2288 -0.0252
  316loPI   C4A 5050   4.848   3.378   7.710  0.1624 -0.0537  0.0395
  316loPI   C5A 5051   4.738   3.216   7.426  0.4189  0.1251 -0.1619
  316loPI   C6A 5052   4.538   3.285   7.069  0.0708  0.1704  0.2004
  316loPI   C1B 5053   4.859   2.775   9.136 -0.1638  0.0409 -0.0999
  316loPI   C2B 5054   4.860   2.842   8.636  0.0187  0.0042  0.2540
  316loPI   C3B 5055   4.791   2.877   8.209  0.2084  0.2050  0.0751
  316loPI   C4B 5056   4.718   2.865   7.775  0.1701  0.0178  0.3059
  317loPI    C1 5057  13.796  18.556  10.342  0.0690  0.1577 -0.0751
  317loPI    C2 5058  13.807  18.745  10.695 -0.0334  0.0575 -0.0173
  317loPI    C3 5059  13.497  18.800  10.448 -0.1581 -0.1810  0.0830
  317loPI   PO4 5060  13.990  18.576  10.140  0.0466 -0.3864 -0.3147
  317loPI   GL1 5061  13.973  18.609   9.758  0.1391  0.0015  0.1288
  317loPI   GL2 5062  13.699  18.639   9.469  0.2224  0.3120  0.2689
  317loPI   C1A 5063  14.207  18.390   9.478  0.0877 -0.0958  0.1839
  317loPI   C2A 5064  14.432  18.428   9.131 -0.1537 -0.1706  0.1262
  317loPI   C3A 5065  14.164  18.573   8.800 -0.3759  0.1049  0.1310
  317loPI   C4A 5066  14.146  18.602   8.338  0.0214 -0.0929 -0.1530
  317loPI   C5A 5067  14.138  18.545   7.899  0.2743 -0.0965 -0.0211
  317loPI   C6A 5068  14.018  18.366   7.504 -0.4428  0.2686  0.0544
  317loPI   C1B 5069  13.684  18.668   9.095  0.0171 -0.1813  0.1875
  317loPI   C2B 5070  13.661  18.619   8.657  0.0364  0.0685 -0.0125
  317loPI   C3B 5071  13.689  18.567   8.166  0.2399  0.0961  0.0245
  317loPI   C4B 5072  13.639  18.314   7.787 -0.1155 -0.0212 -0.1485
  318loPI    C1 5073   8.899   8.442   9.894  0.0851 -0.0295 -0.0228
  318loPI    C2 5074   8.650   8.485  10.203  0.0680 -0.0734 -0.0303
  318loPI    C3 5075   8.967   8.726  10.167  0.0022  0.0116 -0.0446
  318loPI   PO4 5076   8.754   8.499   9.668 -0.0658 -0.1077  0.0231
  318loPI   GL1 5077   8.446   8.292   9.373  0.0326 -0.2365  0.0092
  318loPI   GL2 5078   8.297   8.475   9.290  0.1014  0.0589  0.0789
  318loPI   C1A 5079   8.707   8.305   8.956 -0.7331 -0.0431 -0.1183
  318loPI   C2A 5080   8.974   8.462   8.528  0.1191  0.0003  0.2042
  318loPI   C3A 5081   9.278   8.574   8.186  0.2184  0.1063  0.1873
  318loPI   C4A 5082   9.633   8.585   7.878 -0.0377  0.0852 -0.0954
  318loPI   C5A 5083   9.819   8.418   7.447  0.0105 -0.0204  0.2133
  318loPI   C6A 5084   9.736   8.332   7.078  0.0613  0.3498 -0.2594
  318loPI   C1B 5085   8.230   8.465   8.847 -0.1453 -0.1126 -0.0178
  318loPI   C2B 5086   8.015   8.411   8.482  0.1697  0.2901 -0.0840
  318loPI   C3B 5087   8.142   8.239   8.116 -0.1097 -0.0101 -0.3653
  318loPI   C4B 5088   8.262   8.442   7.759  0.0210 -0.0483  0.1235
  319loPI    C1 5089   1.017   2.230  10.502 -0.0787 -0.0052  0.1899
  319loPI    C2 5090   1.334   2.437  10.632 -0.0287 -0.1469  0.2959
  319loPI    C3 5091   1.132   2.200  10.884 -0.1290 -0.1717  0.1930
  319loPI   PO4 5092   1.095   2.283  10.214 -0.0536  0.0625  0.0014
  319loPI   GL1 5093   1.287   2.231   9.859  0.1241  0.0251 -0.0228
  319loPI   GL2 5094   1.385   1.850   9.972 -0.0938 -0.1364  0.1119
  319loPI   C1A 5095   1.165   2.331   9.486  0.0950 -0.2647  0.0669
  319loPI   C2A 5096   1.111   2.404   8.995  0.3636  0.0408  0.1626
  319loPI   C3A 5097   1.051   2.267   8.617  0.0956  0.2423  0.3614
  319loPI   C4A 5098   0.880   2.305   8.157 -0.2528  0.2120  0.1084
  319loPI   C5A 5099   0.982   2.220   7.706 -0.4037 -0.2254 -0.0419
  319loPI   C6A 5100   0.942   2.034   7.276 -0.3392 -0.4539  0.2224
  319loPI   C1B 5101   1.352   1.891   9.524  0.2671 -0.3520 -0.3427
  319loPI   C2B 5102   1.299   1.891   9.070 -0.1958 -0.1988 -0.0164
  319loPI   C3B 5103   1.271   1.835   8.616  0.2778  0.0965 -0.2935
  319loPI   C4B 5104   1.225   1.854   8.150  0.2829  0.1471  0.0844
  320loPI    C1 5105  19.177   9.020   9.429  0.1130 -0.1332 -0.2833
  320loPI    C2 5106  19.130   9.171   9.062 -0.0284  0.1563 -0.1495
  320loPI    C3 5107  19.247   9.408   9.362  0.0017 -0.0595  0.0113
  320loPI   PO4 5108  18.933   8.816   9.447 -0.2302 -0.1295  0.0190
  320loPI   GL1 5109  18.844   8.537   9.181  0.0491  0.2557  0.1033
  320loPI   GL2 5110  19.112   8.404   9.115 -0.0515  0.1369  0.0870
  320loPI   C1A 5111  18.709   8.460   8.728 -0.3673  0.3516 -0.0776
  320loPI   C2A 5112  18.738   8.340   8.261  0.4447 -0.0375 -0.5976
  320loPI   C3A 5113  19.124   8.447   8.044 -0.1739  0.0833 -0.2311
  320loPI   C4A 5114  18.879   8.446   7.640  0.0185  0.3038 -0.3660
  320loPI   C5A 5115  18.435   8.314   7.490  0.1309 -0.1351 -0.3116
  320loPI   C6A 5116  18.273   7.940   7.341  0.1957  0.1255 -0.2011
  320loPI   C1B 5117  19.199   8.225   8.784 -0.0352 -0.0060 -0.0105
  320loPI   C2B 5118  19.324   8.017   8.393  0.0533 -0.1746 -0.0601
  320loPI   C3B 5119  19.588   7.760   8.076  0.1221  0.1112  0.0102
  320loPI   C4B 5120  19.684   7.329   7.913  0.1354 -0.0640  0.1508
  321loPI    C1 5121   4.888  -0.028  10.486  0.0233 -0.1323  0.1064
  321loPI    C2 5122   5.268   0.066  10.402  0.0012  0.0287  0.1828
  321loPI    C3 5123   5.087   0.230  10.719 -0.1379 -0.0340  0.1365
  321loPI   PO4 5124   4.774  -0.010  10.232 -0.0665  0.1999 -0.1574
  321loPI   GL1 5125   5.094  -0.200   9.868 -0.1295  0.0172 -0.0568
  321loPI   GL2 5126   5.192  -0.048   9.927  0.3641 -0.0104 -0.2279
  321loPI   C1A 5127   5.181  -0.457   9.570 -0.2296  0.3654  0.0703
  321loPI   C2A 5128   5.194  -0.351   9.213  0.1497 -0.0635  0.0128
  321loPI   C3A 5129   5.216  -0.336   8.760  0.0325  0.2833  0.2983
  321loPI   C4A 5130   5.157  -0.268   8.357  0.0206 -0.2617  0.3432
  321loPI   C5A 5131   5.066  -0.390   7.927 -0.2243  0.1832  0.1118
  321loPI   C6A 5132   5.167  -0.552   7.571 -0.1099  0.2948 -0.0947
  321loPI   C1B 5133   5.387   0.091   9.560  0.4739  0.0877  0.0618
  321loPI   C2B 5134   5.387   0.164   9.160  0.0238 -0.0691  0.3221
  321loPI   C3B 5135   5.442   0.192   8.696 -0.2489 -0.2204 -0.1634
  321loPI   C4B 5136   5.356   0.155   8.341 -0.1835  0.0171  0.1381
  322loPI    C1 5137   2.670  15.435   9.581 -0.1955 -0.1934 -0.0309
  322loPI    C2 5138   2.752  15.238   9.919 -0.0522 -0.0484  0.0200
  322loPI    C3 5139   2.442  15.490   9.904  0.0478  0.0807  0.0986
  322loPI   PO4 5140   2.869  15.368   9.443  0.0737  0.2569  0.1552
  322loPI   GL1 5141   3.328  15.454   9.164  0.0866 -0.3643  0.1415
  322loPI   GL2 5142   3.060  15.746   9.107 -0.0810  0.3592 -0.1606
  322loPI   C1A 5143   3.575  15.538   8.694 -0.3164 -0.0193 -0.0133
  322loPI   C2A 5144   3.842  15.399   8.307  0.1145 -0.2936 -0.0678
  322loPI   C3A 5145   3.987  15.245   8.012  0.0167  0.0361  0.0024
  322loPI   C4A 5146   4.249  15.231   7.717 -0.1585  0.0893  0.0283
  322loPI   C5A 5147   4.057  15.121   7.315  0.0268 -0.2036 -0.1159
  322loPI   C6A 5148   3.677  14.982   7.119 -0.1906 -0.1179  0.3468
  322loPI   C1B 5149   3.272  15.921   8.839  0.0766 -0.0240  0.1815
  322loPI   C2B 5150   3.315  16.149   8.463  0.1986  0.2599  0.1430
  322loPI   C3B 5151   3.160  16.152   8.093  0.0935  0.0283  0.2805
  322loPI   C4B 5152   3.067  15.811   7.775 -0.0069 -0.2148 -0.1194
  323loPI    C1 5153   5.996  11.753   9.795  0.0439 -0.0126  0.0063
  323loPI    C2 5154   6.256  12.011   9.956  0.1336 -0.0111 -0.1396
  323loPI    C3 5155   6.294  11.619  10.025  0.1295 -0.0045 -0.0996
  323loPI   PO4 5156   6.027  11.854   9.560 -0.3533  0.1941 -0.0789
  323loPI   GL1 5157   6.034  11.771   9.144 -0.0152  0.0698  0.3376
  323loPI   GL2 5158   5.994  12.084   8.903 -0.1641 -0.2844 -0.0763
  323loPI   C1A 5159   6.062  11.640   8.716 -0.1325  0.0806 -0.1368
  323loPI   C2A 5160   6.087  11.620   8.303 -0.1572  0.0747 -0.0606
  323loPI   C3A 5161   6.228  11.638   7.846 -0.4193  0.2307 -0.1975
  323loPI   C4A 5162   6.599  11.277   7.575 -0.0031 -0.0761  0.0226
  323loPI   C5A 5163   6.631  10.939   7.466 -0.0869 -0.2014 -0.1173
  323loPI   C6A 5164   6.575  10.633   7.619  0.1045  0.1825 -0.1005
  323loPI   C1B 5165   5.899  12.090   8.391  0.0476 -0.1885  0.1253
  323loPI   C2B 5166   5.780  12.091   7.993  0.1110 -0.1021 -0.1324
  323loPI   C3B 5167   5.940  11.878   7.539  0.4082 -0.2605  0.0043
  323loPI   C4B 5168   6.014  11.576   7.254  0.2475 -0.1122 -0.0978
  324loPI    C1 5169  14.070  14.151   9.634 -0.1031 -0.1041  0.0257
  324loPI    C2 5170  14.217  14.039   9.989 -0.1251  0.0356  0.0795
  324loPI    C3 5171  14.116  13.763   9.718 -0.2123 -0.0756  0.2240
  324loPI   PO4 5172  13.871  14.299   9.723 -0.1490  0.0351  0.0841
  324loPI   GL1 5173  13.676  14.496   9.509 -0.1470  0.0671 -0.1790
  324loPI   GL2 5174  13.436  14.350   9.375  0.0443 -0.1561 -0.0723
  324loPI   C1A 5175  13.806  14.669   9.153  0.2371  0.0330  0.2067
  324loPI   C2A 5176  13.891  14.763   8.774 -0.2015  0.2070  0.0511
  324loPI   C3A 5177  14.033  14.817   8.302  0.1897 -0.0983 -0.1108
  324loPI   C4A 5178  14.163  14.678   7.861 -0.0923  0.0591  0.0792
  324loPI   C5A 5179  14.066  14.392   7.594  0.1089 -0.3950  0.3008
  324loPI   C6A 5180  13.916  14.449   7.190 -0.0159 -0.1780  0.0101
  324loPI   C1B 5181  13.528  14.360   8.837 -0.0897  0.2875 -0.0350
  324loPI   C2B 5182  13.496  14.551   8.452  0.2828  0.1806  0.0079
  324loPI   C3B 5183  13.345  14.471   7.886  0.0056 -0.1602  0.2572
  324loPI   C4B 5184  13.525  14.448   7.559  0.3945  0.0144  0.3626
  325loPI    C1 5185   9.501  14.422   9.912  0.0357 -0.0183 -0.0003
  325loPI    C2 5186   9.513  14.084  10.124  0.0931 -0.0621 -0.0727
  325loPI    C3 5187   9.588  14.434  10.302 -0.3011 -0.0496  0.0780
  325loPI   PO4 5188   9.572  14.374   9.729 -0.1450  0.2849 -0.2459
  325loPI   GL1 5189   9.838  14.291   9.396  0.2161 -0.1489 -0.1792
  325loPI   GL2 5190  10.111  14.052   9.457 -0.3374 -0.1096 -0.3538
  325loPI   C1A 5191   9.580  14.184   9.020  0.3652  0.0683 -0.0918
  325loPI   C2A 5192   9.403  14.163   8.588 -0.2119  0.1077  0.1162
  325loPI   C3A 5193   9.340  14.116   8.090 -0.2661  0.0354 -0.1299
  325loPI   C4A 5194   9.314  14.054   7.704  0.3583 -0.1582  0.1562
  325loPI   C5A 5195   9.512  14.023   7.369 -0.4009  0.1349  0.0674
  325loPI   C6A 5196   9.896  13.842   7.316  0.1389 -0.0385  0.2326
  325loPI   C1B 5197  10.041  13.965   9.055 -0.1345  0.1836  0.2683
  325loPI   C2B 5198   9.870  14.030   8.619  0.1154  0.3616  0.0222
  325loPI   C3B 5199   9.734  13.787   8.269 -0.2940 -0.1787 -0.0177
  325loPI   C4B 5200   9.326  13.635   8.062  0.0022 -0.2453  0.2025
  326loPI    C1 5201  16.786   6.727   9.962 -0.0114  0.1042  0.0084
  326loPI    C2 5202  16.614   6.389  10.089 -0.1179  0.1269 -0.0735
  326loPI    C3 5203  16.884   6.575  10.319 -0.1195  0.0308  0.0073
  326loPI   PO4 5204  16.607   6.750   9.715  0.0089 -0.0354 -0.0675
  326loPI   GL1 5205  16.529   6.551   9.377 -0.1709 -0.0475  0.0881
  326loPI   GL2 5206  16.265   6.724   9.268 -0.0474  0.1245  0.1967
  326loPI   C1A 5207  16.569   6.638   8.887  0.0051 -0.3195  0.3376
  326loPI   C2A 5208  16.389   6.687   8.468  0.2822  0.1190  0.1336
  326loPI   C3A 5209  16.261   6.688   8.128 -0.0613 -0.0402 -0.0237
  326loPI   C4A 5210  16.093   6.675   7.874  0.0455  0.0040  0.2138
  326loPI   C5A 5211  15.922   6.643   7.511  0.0741 -0.1125 -0.1064
  326loPI   C6A 5212  15.737   6.293   7.256 -0.0091 -0.0353  0.1402
  326loPI   C1B 5213  16.096   6.917   8.974 -0.0162 -0.0112  0.0099
  326loPI   C2B 5214  15.873   6.854   8.552  0.2778  0.0872  0.1663
  326loPI   C3B 5215  15.728   6.977   8.182  0.0797 -0.2677 -0.1172
  326loPI   C4B 5216  15.650   7.046   7.808 -0.0594  0.0778  0.0626
  327loPI    C1 5217   1.184   4.110  10.334  0.0806  0.1590 -0.2333
  327loPI    C2 5218   0.972   4.060  10.669  0.1336  0.1321 -0.2036
  327loPI    C3 5219   0.939   4.399  10.460  0.1959  0.2008 -0.1026
  327loPI   PO4 5220   1.116   3.946  10.169 -0.0293 -0.4072  0.1272
  327loPI   GL1 5221   1.054   4.054   9.754 -0.0644  0.0389  0.2773
  327loPI   GL2 5222   0.713   3.873   9.605  0.0402 -0.0681  0.5302
  327loPI   C1A 5223   1.153   4.323   9.321 -0.0158 -0.0144  0.1321
  327loPI   C2A 5224   1.212   4.208   8.869 -0.0418 -0.0543 -0.3391
  327loPI   C3A 5225   1.354   4.134   8.365  0.2305 -0.2713 -0.0739
  327loPI   C4A 5226   1.775   4.175   8.216  0.1416 -0.0072 -0.1120
  327loPI   C5A 5227   1.920   4.347   7.842 -0.0844 -0.0454  0.4049
  327loPI   C6A 5228   2.060   4.709   7.357 -0.1546  0.2166 -0.3337
  327loPI   C1B 5229   0.404   3.738   9.277 -0.1237 -0.0851 -0.1519
  327loPI   C2B 5230   0.272   3.849   8.848 -0.4450  0.1601 -0.0069
  327loPI   C3B 5231   0.315   3.665   8.547 -0.0630  0.2700  0.0708
  327loPI   C4B 5232   0.203   3.495   8.187 -0.2333  0.0919  0.0888
  328loPI    C1 5233   5.612  10.990   9.734 -0.0707  0.0302 -0.1201
  328loPI    C2 5234   5.727  10.655   9.921  0.1337  0.0515 -0.2046
  328loPI    C3 5235   5.627  10.979  10.133  0.0225 -0.0343 -0.1249
  328loPI   PO4 5236   5.678  10.941   9.534 -0.0746 -0.0375 -0.0424
  328loPI   GL1 5237   5.915  10.692   9.233  0.2417 -0.0689 -0.0498
  328loPI   GL2 5238   5.570  10.566   9.096  0.1862  0.2626  0.1346
  328loPI   C1A 5239   6.038  10.663   8.755  0.2052 -0.1162 -0.0008
  328loPI   C2A 5240   5.716  10.695   8.535  0.0535  0.0069  0.0753
  328loPI   C3A 5241   5.498  10.450   8.273 -0.2828 -0.2220  0.1280
  328loPI   C4A 5242   5.562  10.146   7.936  0.0226  0.0072 -0.1464
  328loPI   C5A 5243   5.562   9.655   7.891 -0.3620  0.2268  0.1408
  328loPI   C6A 5244   5.478   9.218   7.719  0.0256 -0.0480  0.1154
  328loPI   C1B 5245   5.150  10.571   8.811  0.0305  0.0330 -0.2100
  328loPI   C2B 5246   5.074  10.672   8.419  0.1711  0.1782 -0.0240
  328loPI   C3B 5247   4.986  10.814   7.995 -0.2439 -0.0202 -0.0093
  328loPI   C4B 5248   4.877  10.944   7.639 -0.0817 -0.1466  0.3519
  329loPI    C1 5249   5.056  14.103   9.589 -0.2294 -0.0741  0.0028
  329loPI    C2 5250   4.988  13.754   9.405 -0.0030 -0.1291  0.0208
  329loPI    C3 5251   5.082  13.760   9.794  0.4064 -0.0833 -0.0749
  329loPI   PO4 5252   4.948  14.272   9.522 -0.1247 -0.4428 -0.3301
  329loPI   GL1 5253   4.898  14.484   9.134  0.0639 -0.2580 -0.1868
  329loPI   GL2 5254   4.831  14.223   9.022 -0.2093 -0.1079  0.0521
  329loPI   C1A 5255   4.898  14.502   8.583 -0.0575 -0.1115  0.1013
  329loPI   C2A 5256   4.812  14.095   8.386  0.2407  0.2370  0.3309
  329loPI   C3A 5257   4.846  14.055   7.980 -0.4277  0.0072  0.0634
  329loPI   C4A 5258   4.703  14.141   7.621 -0.0472 -0.2565 -0.1811
  329loPI   C5A 5259   4.912  14.067   7.251  0.2675  0.0580  0.2342
  329loPI   C6A 5260   5.095  14.052   6.863  0.0671  0.0401  0.5877
  329loPI   C1B 5261   4.877  13.900   8.826 -0.3059 -0.0105  0.0732
  329loPI   C2B 5262   5.183  13.740   8.491 -0.0238  0.0346  0.2082
  329loPI   C3B 5263   5.342  13.984   7.989  0.1301 -0.1009 -0.1385
  329loPI   C4B 5264   5.245  14.214   7.635 -0.2273 -0.1324 -0.3770
  330loPI    C1 5265   7.552  15.682   9.785 -0.1628  0.0215 -0.0490
  330loPI    C2 5266   7.725  15.337   9.679 -0.2389 -0.0779  0.1461
  330loPI    C3 5267   7.522  15.362  10.023 -0.2627  0.1528  0.1169
  330loPI   PO4 5268   7.424  15.745   9.590 -0.1354 -0.1960  0.2607
  330loPI   GL1 5269   7.666  16.110   9.411  0.0930  0.0850 -0.2124
  330loPI   GL2 5270   7.458  16.183   9.185 -0.0736  0.1346 -0.2628
  330loPI   C1A 5271   7.858  16.011   8.995 -0.1130 -0.5004  0.1094
  330loPI   C2A 5272   7.994  15.961   8.545  0.3367 -0.3612  0.1126
  330loPI   C3A 5273   7.968  16.096   8.137  0.1941 -0.1829  0.0147
  330loPI   C4A 5274   7.906  16.237   7.654  0.3668  0.3346  0.0272
  330loPI   C5A 5275   7.920  16.311   7.313  0.0010 -0.3312 -0.1712
  330loPI   C6A 5276   7.592  16.350   7.111 -0.0341  0.0616 -0.3697
  330loPI   C1B 5277   7.332  16.089   8.773 -0.2128 -0.1354  0.0315
  330loPI   C2B 5278   7.387  16.086   8.321 -0.0237 -0.0119  0.0861
  330loPI   C3B 5279   7.494  15.967   7.938  0.0957 -0.0140  0.2661
  330loPI   C4B 5280   7.424  15.846   7.440  0.0817  0.0576  0.3213
  331loPI    C1 5281  14.673  10.583   9.829  0.0536  0.0350  0.0165
  331loPI    C2 5282  14.885  10.329  10.054  0.0447 -0.0234 -0.0403
  331loPI    C3 5283  14.517  10.438  10.168  0.1037  0.0762  0.0574
  331loPI   PO4 5284  14.893  10.736   9.743 -0.0400 -0.1617 -0.0071
  331loPI   GL1 5285  14.893  10.850   9.271 -0.1579  0.3633 -0.0741
  331loPI   GL2 5286  15.196  10.970   9.359 -0.1099  0.1092 -0.0437
  331loPI   C1A 5287  14.886  10.584   8.910  0.1154  0.0249  0.1689
  331loPI   C2A 5288  15.085  10.301   8.641 -0.0732  0.0035  0.1991
  331loPI   C3A 5289  15.325  10.341   8.242  0.1050 -0.2179 -0.2191
  331loPI   C4A 5290  15.627  10.269   8.026  0.0354  0.1625  0.3286
  331loPI   C5A 5291  15.938  10.556   7.799  0.1045 -0.2797 -0.0599
  331loPI   C6A 5292  15.947  10.727   7.410 -0.1435 -0.3341 -0.0889
  331loPI   C1B 5293  15.372  10.767   8.910 -0.4740 -0.0193  0.0738
  331loPI   C2B 5294  15.444  10.741   8.522  0.4774  0.1989  0.0836
  331loPI   C3B 5295  15.612  10.818   8.169 -0.0291 -0.0597 -0.2191
  331loPI   C4B 5296  15.544  10.898   7.710  0.1697 -0.0423 -0.0269
  332loPI    C1 5297   4.395  11.977   9.998 -0.0731  0.0903  0.1833
  332loPI    C2 5298   4.492  11.589   9.984 -0.1067  0.0866  0.0400
  332loPI    C3 5299   4.111  11.702   9.936 -0.0749  0.1475 -0.0724
  332loPI   PO4 5300   4.505  12.079   9.716 -0.0330  0.0463 -0.3271
  332loPI   GL1 5301   4.489  12.196   9.310  0.2278 -0.2042 -0.0829
  332loPI   GL2 5302   4.297  12.448   9.452 -0.1890  0.0075 -0.1440
  332loPI   C1A 5303   4.590  12.421   8.906  0.1619  0.4797  0.1136
  332loPI   C2A 5304   4.767  12.238   8.497 -0.0691  0.2485 -0.2055
  332loPI   C3A 5305   4.590  12.151   8.041  0.1338 -0.0457 -0.4665
  332loPI   C4A 5306   4.848  12.064   7.661 -0.0727  0.2589 -0.1250
  332loPI   C5A 5307   4.638  12.097   7.232 -0.2476 -0.0729 -0.0051
  332loPI   C6A 5308   4.491  11.708   6.948 -0.4064 -0.0371 -0.0024
  332loPI   C1B 5309   4.083  12.591   9.002  0.1607  0.0352  0.1761
  332loPI   C2B 5310   3.763  12.612   8.628  0.2377  0.0367  0.2956
  332loPI   C3B 5311   3.851  12.387   8.271 -0.2466  0.3136 -0.1099
  332loPI   C4B 5312   4.186  12.415   7.877 -0.0163 -0.0713 -0.0567
  333loPI    C1 5313  13.095   9.885  10.142 -0.1716 -0.0931 -0.0573
  333loPI    C2 5314  13.331   9.568  10.202 -0.0592  0.0233  0.1284
  333loPI    C3 5315  13.157   9.749  10.513 -0.1689  0.1097  0.0179
  333loPI   PO4 5316  12.985   9.849   9.824 -0.0932  0.0847  0.0432
  333loPI   GL1 5317  13.060   9.711   9.380 -0.1610  0.0546 -0.0633
  333loPI   GL2 5318  13.072   9.345   9.182  0.0686 -0.1953 -0.3455
  333loPI   C1A 5319  12.863   9.957   9.129 -0.1271  0.2100  0.1117
  333loPI   C2A 5320  13.083  10.047   8.706  0.0286 -0.0156  0.0645
  333loPI   C3A 5321  13.488  10.242   8.396  0.0799  0.2146  0.0767
  333loPI   C4A 5322  13.668  10.049   7.921  0.0994 -0.0022  0.1096
  333loPI   C5A 5323  13.513   9.658   7.791  0.0816  0.0871  0.0833
  333loPI   C6A 5324  13.773   9.380   7.597  0.0952 -0.0636 -0.1171
  333loPI   C1B 5325  12.908   9.559   8.802  0.0277 -0.2591 -0.0004
  333loPI   C2B 5326  12.929   9.611   8.432  0.0844  0.4263 -0.1732
  333loPI   C3B 5327  13.141   9.446   8.015  0.1373  0.0237  0.0020
  333loPI   C4B 5328  13.223   9.310   7.649  0.1559 -0.0678 -0.0554
  334loPI    C1 5329   2.324   9.492   9.792 -0.1078 -0.1472 -0.1263
  334loPI    C2 5330   1.942   9.379   9.823 -0.0790 -0.1309  0.3590
  334loPI    C3 5331   2.234   9.115   9.890 -0.0017 -0.1419 -0.0054
  334loPI   PO4 5332   2.329   9.659   9.500  0.3493 -0.1592 -0.1251
  334loPI   GL1 5333   2.387   9.583   9.108  0.0372 -0.1211 -0.0698
  334loPI   GL2 5334   2.056   9.740   8.808 -0.1315 -0.1230 -0.1133
  334loPI   C1A 5335   2.525   9.653   8.668 -0.2505  0.0338 -0.0156
  334loPI   C2A 5336   2.806   9.415   8.344  0.1829  0.2429 -0.1520
  334loPI   C3A 5337   2.803   9.662   8.018  0.1137 -0.0296  0.0228
  334loPI   C4A 5338   2.769   9.602   7.514 -0.1242 -0.0435 -0.2432
  334loPI   C5A 5339   2.962   9.658   7.103 -0.0983 -0.0686  0.0454
  334loPI   C6A 5340   2.958   9.702   6.733 -0.1093  0.1469  0.0650
  334loPI   C1B 5341   1.987   9.510   8.450 -0.1957  0.1379 -0.1603
  334loPI   C2B 5342   1.895   9.210   8.012  0.1242 -0.1399 -0.0578
  334loPI   C3B 5343   1.808   8.794   7.962 -0.0090  0.0329 -0.0558
  334loPI   C4B 5344   1.469   8.504   7.912  0.2451 -0.0339  0.2562
  335loPI    C1 5345   1.687  15.241   9.672 -0.1192  0.1104  0.0155
  335loPI    C2 5346   1.989  15.345   9.913  0.0597  0.1201 -0.2097
  335loPI    C3 5347   1.882  14.961   9.880 -0.2427  0.1626  0.2040
  335loPI   PO4 5348   1.675  15.249   9.437 -0.3041  0.0413  0.0912
  335loPI   GL1 5349   1.345  15.237   9.002  0.0352  0.0619 -0.1281
  335loPI   GL2 5350   1.359  14.988   9.011 -0.1183  0.3093 -0.1138
  335loPI   C1A 5351   1.169  15.290   8.664 -0.1266  0.1480 -0.0626
  335loPI   C2A 5352   1.140  15.556   8.253  0.2465 -0.1316  0.0774
  335loPI   C3A 5353   1.385  15.518   7.922 -0.1355  0.1350  0.0335
  335loPI   C4A 5354   1.516  15.647   7.571 -0.2791  0.1034 -0.2716
  335loPI   C5A 5355   1.764  15.534   7.183 -0.1325 -0.2173  0.0781
  335loPI   C6A 5356   1.562  15.203   6.874 -0.0560 -0.1083 -0.1018
  335loPI   C1B 5357   1.470  14.959   8.559 -0.0678 -0.3972 -0.0461
  335loPI   C2B 5358   1.284  15.040   8.142 -0.2144  0.1194  0.3538
  335loPI   C3B 5359   1.345  15.046   7.714 -0.2666  0.0767  0.1389
  335loPI   C4B 5360   1.720  15.227   7.641  0.1822  0.0076 -0.0949
  336loPI    C1 5361   7.640   1.683  10.013 -0.0179 -0.2506  0.0131
  336loPI    C2 5362   7.460   1.599  10.360  0.0908 -0.0124  0.1292
  336loPI    C3 5363   7.420   1.962  10.197  0.3907  0.0151  0.1114
  336loPI   PO4 5364   7.575   1.592   9.853 -0.1184 -0.1003 -0.0186
  336loPI   GL1 5365   7.562   1.628   9.387  0.1341 -0.1142  0.0987
  336loPI   GL2 5366   7.856   1.421   9.436 -0.1272  0.2240  0.2020
  336loPI   C1A 5367   7.574   1.969   9.105 -0.0404  0.0687 -0.0544
  336loPI   C2A 5368   7.362   1.986   8.733  0.1192  0.2008 -0.0749
  336loPI   C3A 5369   7.228   2.038   8.346 -0.0430  0.0414 -0.2562
  336loPI   C4A 5370   7.070   2.159   7.964 -0.1977 -0.2700  0.0146
  336loPI   C5A 5371   6.820   2.360   7.691 -0.2304 -0.2073 -0.0310
  336loPI   C6A 5372   6.826   2.712   7.519 -0.1752 -0.4323 -0.1657
  336loPI   C1B 5373   7.948   1.178   9.064  0.1316  0.0895  0.1842
  336loPI   C2B 5374   7.912   1.194   8.643  0.2431 -0.2316  0.0782
  336loPI   C3B 5375   7.918   1.135   8.234 -0.2515 -0.1147  0.0234
  336loPI   C4B 5376   7.911   1.456   7.878  0.1664 -0.1983 -0.0735
  337loPI    C1 5377  11.579   1.197   9.802  0.1464  0.3723  0.1577
  337loPI    C2 5378  11.674   0.865  10.003 -0.0776  0.0670 -0.2283
  337loPI    C3 5379  11.540   1.186  10.200  0.0191 -0.1118  0.1374
  337loPI   PO4 5380  11.494   1.099   9.542 -0.0270  0.1316 -0.2521
  337loPI   GL1 5381  11.186   1.228   9.185 -0.0709  0.1705 -0.3797
  337loPI   GL2 5382  10.866   1.273   9.211 -0.1729  0.0386  0.2859
  337loPI   C1A 5383  11.483   1.269   8.769 -0.0926 -0.2807  0.1486
  337loPI   C2A 5384  11.550   1.698   8.605 -0.1623 -0.0708  0.2869
  337loPI   C3A 5385  11.397   1.949   8.223 -0.0587  0.0574 -0.0136
  337loPI   C4A 5386  11.502   2.027   7.797 -0.0518  0.1644 -0.0565
  337loPI   C5A 5387  11.713   2.081   7.475  0.2071 -0.0687  0.2350
  337loPI   C6A 5388  11.924   2.434   7.319 -0.1281 -0.0182  0.2672
  337loPI   C1B 5389  10.681   1.538   9.031  0.1884 -0.1178  0.2249
  337loPI   C2B 5390  10.547   1.588   8.604  0.1579 -0.0282 -0.2579
  337loPI   C3B 5391  10.365   1.353   8.182  0.1094 -0.1974 -0.0704
  337loPI   C4B 5392  10.296   1.504   7.872 -0.0044 -0.0906  0.0199
  338loPI    C1 5393  18.138  10.919   9.612 -0.0921  0.1567 -0.0446
  338loPI    C2 5394  18.185  10.705   9.277  0.1526  0.0610  0.0486
  338loPI    C3 5395  17.935  10.578   9.563  0.0422  0.0757 -0.0408
  338loPI   PO4 5396  18.001  11.176   9.506  0.1417  0.0216  0.2172
  338loPI   GL1 5397  18.021  11.514   9.136  0.0556  0.0430  0.0926
  338loPI   GL2 5398  18.028  11.213   8.993 -0.1117 -0.0612  0.0120
  338loPI   C1A 5399  18.031  11.743   8.736  0.2008  0.2079  0.1886
  338loPI   C2A 5400  17.827  12.131   8.525  0.2317  0.1474  0.1770
  338loPI   C3A 5401  17.721  12.253   8.055 -0.3591 -0.1261 -0.2914
  338loPI   C4A 5402  17.394  12.525   7.726  0.0632 -0.1137 -0.2143
  338loPI   C5A 5403  16.982  12.695   7.526  0.1318  0.0820 -0.1752
  338loPI   C6A 5404  16.802  12.676   7.037 -0.2811  0.0491  0.1642
  338loPI   C1B 5405  18.249  11.299   8.547 -0.1693  0.0400 -0.1654
  338loPI   C2B 5406  18.497  11.421   8.186  0.0494  0.0732 -0.1435
  338loPI   C3B 5407  18.469  11.748   7.842  0.1346  0.2815  0.1879
  338loPI   C4B 5408  18.526  12.154   7.737  0.0336 -0.1132 -0.0684
  339loPI    C1 5409   0.297   9.023   9.509 -0.1620 -0.4569  0.0580
  339loPI    C2 5410   0.426   8.714   9.727  0.2150 -0.2628  0.1190
  339loPI    C3 5411   0.481   9.088   9.859  0.0809 -0.1569 -0.1197
  339loPI   PO4 5412   0.364   9.043   9.318 -0.0990 -0.0326 -0.0825
  339loPI   GL1 5413   0.154   9.228   8.866 -0.2141 -0.0696 -0.2827
  339loPI   GL2 5414   0.210   9.394   8.670 -0.2244  0.0797  0.2048
  339loPI   C1A 5415   0.123   8.948   8.417 -0.0684  0.5315  0.2212
  339loPI   C2A 5416   0.117   8.789   7.954  0.0499  0.2043  0.1085
  339loPI   C3A 5417  -0.095   8.717   7.546 -0.2618  0.0140  0.0844
  339loPI   C4A 5418  -0.490   8.685   7.221 -0.1248  0.0943 -0.3281
  339loPI   C5A 5419  -0.887   8.730   7.218  0.1677  0.0087  0.3034
  339loPI   C6A 5420  -1.168   8.945   6.933 -0.1070  0.1351 -0.0295
  339loPI   C1B 5421   0.484   9.413   8.347  0.4110 -0.2290  0.0904
  339loPI   C2B 5422   0.522   9.064   8.164 -0.3969  0.0446  0.3260
  339loPI   C3B 5423   0.649   8.916   7.794 -0.0930 -0.1576 -0.2939
  339loPI   C4B 5424   1.044   8.728   7.628  0.3136  0.1235  0.1002
  340loPI    C1 5425  14.288  16.493  10.014 -0.0989 -0.0246 -0.0216
  340loPI    C2 5426  13.896  16.561  10.057 -0.1349 -0.0719 -0.2632
  340loPI    C3 5427  14.129  16.525  10.380 -0.2815  0.2278 -0.1203
  340loPI   PO4 5428  14.282  16.325   9.787  0.1832 -0.0896 -0.1391
  340loPI   GL1 5429  14.018  16.364   9.460 -0.1514 -0.3339 -0.0415
  340loPI   GL2 5430  13.800  16.409   9.555  0.1374  0.1012  0.3347
  340loPI   C1A 5431  14.310  16.324   9.109  0.3125  0.2569  0.0315
  340loPI   C2A 5432  14.557  16.401   8.768 -0.4412 -0.0861  0.2765
  340loPI   C3A 5433  14.751  16.100   8.483  0.1690 -0.0727 -0.0290
  340loPI   C4A 5434  14.813  16.115   8.071  0.1494 -0.1576 -0.3329
  340loPI   C5A 5435  14.703  15.963   7.703  0.0961  0.0668  0.1359
  340loPI   C6A 5436  14.576  15.934   7.261 -0.1445  0.1743  0.1991
  340loPI   C1B 5437  13.881  16.689   9.106 -0.1257  0.2175 -0.2909
  340loPI   C2B 5438  13.743  16.559   8.672  0.1098 -0.1800  0.0651
  340loPI   C3B 5439  13.855  16.451   8.256 -0.1671  0.2392  0.0841
  340loPI   C4B 5440  13.825  16.403   7.808 -0.3447  0.0756  0.0112
  341loPI    C1 5441  17.299   3.113  10.006 -0.1010 -0.1771  0.0684
  341loPI    C2 5442  17.431   2.748  10.102 -0.0840 -0.1865  0.0096
  341loPI    C3 5443  17.646   3.070  10.200 -0.0621 -0.1966 -0.0054
  341loPI   PO4 5444  17.202   3.044   9.775  0.0791  0.2792 -0.0744
  341loPI   GL1 5445  16.923   3.137   9.436  0.0329  0.3131 -0.3284
  341loPI   GL2 5446  17.308   2.921   9.279 -0.0938 -0.0601 -0.0579
  341loPI   C1A 5447  17.199   3.375   9.237  0.2915 -0.1235 -0.0547
  341loPI   C2A 5448  17.474   3.418   9.000 -0.0742 -0.1162  0.1951
  341loPI   C3A 5449  17.538   3.286   8.526  0.0996 -0.1160  0.3292
  341loPI   C4A 5450  17.421   3.086   8.166  0.2514 -0.0175  0.0449
  341loPI   C5A 5451  17.214   2.852   7.768 -0.4406 -0.2152  0.0936
  341loPI   C6A 5452  17.141   2.660   7.397  0.0005 -0.3388 -0.2063
  341loPI   C1B 5453  17.160   3.037   8.897  0.0922  0.1383 -0.0860
  341loPI   C2B 5454  17.128   2.892   8.532  0.3870 -0.0542  0.2267
  341loPI   C3B 5455  16.919   2.988   8.150 -0.1932  0.0066 -0.1376
  341loPI   C4B 5456  16.747   2.721   7.783 -0.1890 -0.2048  0.1061
  342loPI    C1 5457   4.022  17.963  10.055  0.0273  0.0499  0.0170
  342loPI    C2 5458   3.968  18.359  10.047 -0.0986  0.0329  0.0055
  342loPI    C3 5459   4.013  18.170  10.397 -0.0495  0.0557  0.0116
  342loPI   PO4 5460   3.784  17.822   9.915 -0.1280  0.0634  0.2762
  342loPI   GL1 5461   3.557  18.051   9.659  0.1876  0.0704 -0.0503
  342loPI   GL2 5462   3.559  18.388   9.765  0.0690 -0.0923 -0.1614
  342loPI   C1A 5463   3.685  17.913   9.269  0.1863 -0.1582  0.2042
  342loPI   C2A 5464   3.885  17.659   8.948 -0.4577 -0.1389 -0.2782
  342loPI   C3A 5465   3.906  17.792   8.588  0.4654 -0.1447  0.2498
  342loPI   C4A 5466   3.871  17.661   8.165  0.0364  0.1484  0.2562
  342loPI   C5A 5467   3.973  17.761   7.739 -0.1502  0.0352  0.1425
  342loPI   C6A 5468   4.073  17.706   7.312  0.1297 -0.2036  0.1301
  342loPI   C1B 5469   3.849  18.487   9.424 -0.0882  0.4149  0.0845
  342loPI   C2B 5470   3.829  18.580   9.006  0.0638  0.4367 -0.1174
  342loPI   C3B 5471   3.804  18.626   8.585 -0.2597  0.3859  0.1157
  342loPI   C4B 5472   3.843  18.684   8.176 -0.3736 -0.1665  0.2129
  343loPI    C1 5473   7.535   8.608   9.867  0.1161  0.0124  0.0307
  343loPI    C2 5474   7.866   8.623  10.092  0.1165  0.0466  0.0278
  343loPI    C3 5475   7.532   8.460  10.239  0.0442  0.2967  0.1456
  343loPI   PO4 5476   7.491   8.809   9.811  0.1879 -0.0051  0.0961
  343loPI   GL1 5477   7.386   8.888   9.366  0.0375  0.1750  0.2140
  343loPI   GL2 5478   7.593   9.143   9.301  0.0766 -0.1334 -0.2826
  343loPI   C1A 5479   7.612   8.752   8.986  0.0257  0.2413 -0.0999
  343loPI   C2A 5480   7.619   8.717   8.501 -0.2230 -0.0853  0.0737
  343loPI   C3A 5481   7.811   8.602   8.104 -0.1009 -0.1694 -0.0025
  343loPI   C4A 5482   7.743   8.383   7.727  0.1244 -0.0800  0.0482
  343loPI   C5A 5483   7.968   8.185   7.355  0.1311  0.1527  0.2052
  343loPI   C6A 5484   8.050   8.268   6.890  0.1146 -0.0750  0.0850
  343loPI   C1B 5485   7.618   9.211   8.868  0.3061 -0.0675  0.0655
  343loPI   C2B 5486   7.772   9.293   8.449  0.0066 -0.0553  0.1262
  343loPI   C3B 5487   8.085   9.425   8.198 -0.1000 -0.0644 -0.1773
  343loPI   C4B 5488   8.376   9.601   7.808 -0.1412 -0.4957 -0.2062
  344loPI    C1 5489  18.452   4.135  10.003 -0.1979 -0.0901  0.0647
  344loPI    C2 5490  18.337   4.374  10.302 -0.3189 -0.0049 -0.0489
  344loPI    C3 5491  18.609   4.088  10.368 -0.2486  0.0975  0.1116
  344loPI   PO4 5492  18.303   4.138   9.797 -0.1796 -0.0865  0.0017
  344loPI   GL1 5493  18.279   4.315   9.441  0.0125 -0.2510 -0.1285
  344loPI   GL2 5494  18.358   4.525   9.440 -0.0753  0.0987 -0.0736
  344loPI   C1A 5495  18.309   4.013   9.146  0.2113  0.0730  0.0180
  344loPI   C2A 5496  18.355   3.814   8.715 -0.1228  0.0164 -0.2448
  344loPI   C3A 5497  18.247   3.760   8.288 -0.0149  0.2975  0.1303
  344loPI   C4A 5498  18.161   3.740   7.867 -0.0314  0.2167 -0.2485
  344loPI   C5A 5499  18.207   3.918   7.428  0.1109 -0.1184 -0.1370
  344loPI   C6A 5500  17.962   4.104   7.213  0.3121 -0.2981 -0.1385
  344loPI   C1B 5501  18.644   4.731   9.145  0.2392  0.0018  0.1512
  344loPI   C2B 5502  18.664   4.650   8.730 -0.0533 -0.0629 -0.3058
  344loPI   C3B 5503  18.795   4.985   8.408 -0.2702  0.0200  0.1710
  344loPI   C4B 5504  18.696   5.134   7.991  0.0919 -0.1281  0.2606
  345loPI    C1 5505   1.686   7.260   9.758 -0.2924  0.2381  0.3681
  345loPI    C2 5506   1.839   7.577   9.949  0.1031  0.2038  0.1199
  345loPI    C3 5507   1.804   7.227  10.139  0.1620  0.2602  0.2361
  345loPI   PO4 5508   1.855   7.284   9.528 -0.1160  0.1564  0.1262
  345loPI   GL1 5509   1.780   7.047   9.144  0.1605  0.0740 -0.2244
  345loPI   GL2 5510   1.452   6.951   9.093 -0.0092  0.1140 -0.1997
  345loPI   C1A 5511   1.903   6.994   8.751 -0.2044 -0.2234 -0.0187
  345loPI   C2A 5512   1.987   6.813   8.306  0.0303 -0.1922 -0.1806
  345loPI   C3A 5513   2.018   6.698   7.915  0.3482  0.0494  0.0515
  345loPI   C4A 5514   2.064   6.654   7.473  0.0294  0.1408  0.4227
  345loPI   C5A 5515   1.735   6.373   7.299 -0.2567  0.3578 -0.0484
  345loPI   C6A 5516   1.678   5.982   7.409 -0.0168 -0.3060  0.2993
  345loPI   C1B 5517   1.437   6.928   8.575  0.1013  0.0421 -0.0720
  345loPI   C2B 5518   1.588   6.890   8.053  0.4392  0.1840  0.1987
  345loPI   C3B 5519   1.558   6.929   7.632  0.2542 -0.2576 -0.3018
  345loPI   C4B 5520   1.398   6.731   7.381 -0.1669 -0.0866 -0.0420
  346loPI    C1 5521  11.226   4.124  10.468  0.0314  0.0804  0.0040
  346loPI    C2 5522  11.534   3.885  10.558 -0.1060 -0.0612  0.1050
  346loPI    C3 5523  11.352   4.095  10.846 -0.2007 -0.0953  0.0704
  346loPI   PO4 5524  11.153   4.079  10.216  0.1667 -0.0773  0.2937
  346loPI   GL1 5525  11.017   4.366   9.901 -0.1021 -0.0764  0.2800
  346loPI   GL2 5526  11.376   4.211   9.694 -0.0622 -0.1360  0.0508
  346loPI   C1A 5527  10.893   4.402   9.477  0.0443  0.1972 -0.1795
  346loPI   C2A 5528  10.596   4.593   9.249 -0.1308 -0.2283 -0.1808
  346loPI   C3A 5529  10.546   4.758   8.834 -0.1427 -0.2028 -0.0924
  346loPI   C4A 5530  10.520   4.792   8.412 -0.3622  0.0334 -0.0273
  346loPI   C5A 5531  10.370   4.834   8.044  0.1282  0.1991 -0.1557
  346loPI   C6A 5532  10.247   4.727   7.747 -0.0921 -0.1408 -0.1261
  346loPI   C1B 5533  11.307   4.190   9.205 -0.2757 -0.1305  0.3295
  346loPI   C2B 5534  10.971   4.466   8.936 -0.0682  0.3673 -0.1121
  346loPI   C3B 5535  10.812   4.331   8.538  0.0235  0.2434  0.2617
  346loPI   C4B 5536  10.890   4.148   8.057 -0.2272  0.0494  0.0523
  347loPI    C1 5537  13.456  17.771  10.075  0.2154  0.0008  0.1235
  347loPI    C2 5538  13.256  17.463  10.233  0.0013  0.0372 -0.0716
  347loPI    C3 5539  13.355  17.776  10.462  0.2924 -0.2089  0.1474
  347loPI   PO4 5540  13.268  17.895   9.879 -0.0324 -0.0733  0.2133
  347loPI   GL1 5541  13.304  18.077   9.541  0.1893 -0.1506 -0.0866
  347loPI   GL2 5542  13.628  18.248   9.727 -0.1581 -0.1791 -0.1533
  347loPI   C1A 5543  13.359  18.383   9.264 -0.1522 -0.0006 -0.1371
  347loPI   C2A 5544  13.167  18.734   8.994 -0.1224 -0.2559 -0.0517
  347loPI   C3A 5545  13.289  18.968   8.698  0.2037  0.2081  0.2258
  347loPI   C4A 5546  13.269  18.763   8.289  0.1162 -0.1567  0.1891
  347loPI   C5A 5547  13.272  18.694   7.804  0.1266  0.0021  0.2417
  347loPI   C6A 5548  13.733  18.827   7.603 -0.5954 -0.1557  0.3293
  347loPI   C1B 5549  13.813  18.137   9.402  0.1089 -0.3027  0.0721
  347loPI   C2B 5550  14.025  18.139   9.043 -0.0477 -0.2259  0.1954
  347loPI   C3B 5551  13.972  18.157   8.574 -0.3664 -0.3547  0.2879
  347loPI   C4B 5552  13.949  18.063   8.147 -0.1187  0.0350 -0.1696
  348loPI    C1 5553   3.679  19.463  10.155 -0.1759 -0.1695  0.0109
  348loPI    C2 5554   3.666  19.187  10.444  0.3364 -0.0468  0.1619
  348loPI    C3 5555   3.716  19.572  10.538  0.0696  0.0486 -0.0722
  348loPI   PO4 5556   3.853  19.265   9.957  0.1570  0.3226 -0.0409
  348loPI   GL1 5557   3.730  19.006   9.730  0.0136 -0.2593 -0.1008
  348loPI   GL2 5558   4.062  18.914   9.622 -0.0914 -0.1053  0.1818
  348loPI   C1A 5559   3.691  19.027   9.320 -0.1332 -0.0202  0.0171
  348loPI   C2A 5560   3.639  19.103   8.960  0.1818 -0.1312  0.0931
  348loPI   C3A 5561   3.616  19.118   8.530  0.1600  0.1521 -0.1920
  348loPI   C4A 5562   3.492  19.182   8.109 -0.2800 -0.0969  0.1298
  348loPI   C5A 5563   3.441  19.134   7.720 -0.0584 -0.0936 -0.0966
  348loPI   C6A 5564   3.250  19.148   7.222 -0.1273  0.2668 -0.0686
  348loPI   C1B 5565   4.150  18.971   9.143 -0.0041  0.0763 -0.0815
  348loPI   C2B 5566   4.094  19.055   8.705  0.0480 -0.0248 -0.1070
  348loPI   C3B 5567   4.117  19.198   8.329  0.0120 -0.1518 -0.2653
  348loPI   C4B 5568   4.027  19.155   7.878 -0.2576 -0.3245 -0.3163
  349loPI    C1 5569   4.321  10.830   9.697 -0.1666  0.2884  0.4433
  349loPI    C2 5570   4.154  10.672   9.370  0.2882  0.1343  0.2764
  349loPI    C3 5571   4.045  10.543   9.733 -0.0794  0.1686  0.1829
  349loPI   PO4 5572   4.565  10.744   9.656  0.1435 -0.0515  0.1258
  349loPI   GL1 5573   4.711  10.803   9.196  0.2611 -0.1290 -0.3369
  349loPI   GL2 5574   4.593  10.574   9.139  0.0262 -0.2585 -0.0880
  349loPI   C1A 5575   4.711  10.984   8.763 -0.2888  0.1407  0.4902
  349loPI   C2A 5576   4.577  10.881   8.314 -0.0728 -0.0274 -0.4086
  349loPI   C3A 5577   4.450  10.863   7.932 -0.1232  0.0251 -0.2012
  349loPI   C4A 5578   4.305  10.891   7.503 -0.0375  0.0049 -0.3436
  349loPI   C5A 5579   4.042  11.024   7.143 -0.1563 -0.0825 -0.3740
  349loPI   C6A 5580   3.672  11.151   6.799  0.3830 -0.1740 -0.0234
  349loPI   C1B 5581   4.415  10.422   8.743  0.0631 -0.3837 -0.0882
  349loPI   C2B 5582   4.669  10.401   8.444 -0.0686 -0.2874 -0.0514
  349loPI   C3B 5583   4.584  10.365   7.990 -0.0747  0.1468 -0.0722
  349loPI   C4B 5584   4.613  10.429   7.537 -0.1324  0.1623 -0.1641
  350loPI    C1 5585  12.696  13.790   9.827 -0.3011  0.0794 -0.2549
  350loPI    C2 5586  12.552  14.041  10.103  0.0932  0.0426 -0.0084
  350loPI    C3 5587  12.852  14.157   9.865 -0.1003 -0.0021 -0.2773
  350loPI   PO4 5588  12.473  13.727   9.719  0.0874 -0.2667  0.1283
  350loPI   GL1 5589  12.205  13.505   9.331 -0.2707 -0.2009 -0.2364
  350loPI   GL2 5590  11.947  13.671   9.589 -0.0562  0.2568  0.1989
  350loPI   C1A 5591  12.133  13.861   9.090 -0.2578  0.0007  0.2369
  350loPI   C2A 5592  12.193  13.729   8.636  0.0906 -0.2398  0.2013
  350loPI   C3A 5593  12.042  13.648   8.168 -0.0329  0.3176  0.1323
  350loPI   C4A 5594  11.813  13.784   7.745 -0.0117  0.1131  0.0538
  350loPI   C5A 5595  11.901  13.948   7.238  0.2699  0.2331 -0.4700
  350loPI   C6A 5596  11.796  14.181   6.870  0.4119  0.0328 -0.0145
  350loPI   C1B 5597  11.652  13.901   9.249 -0.2203  0.2256  0.0827
  350loPI   C2B 5598  11.664  14.071   8.934 -0.3383  0.2082 -0.1354
  350loPI   C3B 5599  11.307  14.225   8.597 -0.1216  0.0176  0.1823
  350loPI   C4B 5600  11.152  14.416   8.260  0.0847  0.0464  0.1478
  351loPI    C1 5601  15.864  16.556  10.320 -0.0849  0.0946  0.2363
  351loPI    C2 5602  15.480  16.665  10.348 -0.0200  0.3210  0.2674
  351loPI    C3 5603  15.728  16.729  10.655  0.0328  0.1326  0.2647
  351loPI   PO4 5604  15.907  16.600  10.007 -0.2773 -0.1057  0.1974
  351loPI   GL1 5605  15.757  16.636   9.553 -0.2026  0.2157  0.0672
  351loPI   GL2 5606  15.911  16.274   9.641  0.0196 -0.0583  0.1199
  351loPI   C1A 5607  15.521  16.665   9.136  0.2029 -0.3064 -0.0306
  351loPI   C2A 5608  15.465  16.802   8.743  0.2754 -0.1640 -0.1045
  351loPI   C3A 5609  15.461  16.600   8.421  0.1472 -0.2123  0.1041
  351loPI   C4A 5610  15.329  16.428   8.068  0.2407  0.2185 -0.2477
  351loPI   C5A 5611  15.394  16.230   7.647  0.1881  0.1139  0.1889
  351loPI   C6A 5612  15.061  16.067   7.350 -0.0541  0.0119  0.2139
  351loPI   C1B 5613  15.495  16.242   9.425 -0.2320 -0.1279 -0.0173
  351loPI   C2B 5614  15.190  16.067   9.193 -0.1955  0.0277  0.1438
  351loPI   C3B 5615  14.828  16.108   9.088 -0.0211 -0.1706 -0.0585
  351loPI   C4B 5616  14.533  15.933   8.941 -0.3170  0.2058 -0.0147
  352loPI    C1 5617   7.632   2.596  10.323  0.0173 -0.0620 -0.1632
  352loPI    C2 5618   7.355   2.761  10.560  0.2824  0.2358 -0.0540
  352loPI    C3 5619   7.368   2.364  10.514  0.1403  0.1835  0.3204
  352loPI   PO4 5620   7.612   2.816  10.113 -0.1042  0.0074  0.0172
  352loPI   GL1 5621   7.603   2.888   9.696 -0.0744  0.1030 -0.0484
  352loPI   GL2 5622   7.504   3.174   9.474 -0.2585  0.1096  0.0714
  352loPI   C1A 5623   7.837   2.823   9.231 -0.2638 -0.0881  0.0121
  352loPI   C2A 5624   7.939   2.977   8.878 -0.3169 -0.1745 -0.1653
  352loPI   C3A 5625   7.651   2.970   8.526 -0.0015  0.2517  0.0629
  352loPI   C4A 5626   7.705   2.835   8.063 -0.2017 -0.0732  0.3348
  352loPI   C5A 5627   7.691   2.782   7.610 -0.3746  0.0582  0.1356
  352loPI   C6A 5628   7.683   2.634   7.176 -0.0817 -0.1769 -0.1762
  352loPI   C1B 5629   7.419   3.043   9.028 -0.0231 -0.0175 -0.1958
  352loPI   C2B 5630   7.204   2.968   8.645  0.1606  0.1274  0.1662
  352loPI   C3B 5631   7.003   2.924   8.281 -0.2307 -0.1221  0.2637
  352loPI   C4B 5632   7.161   2.726   7.905 -0.2348  0.0689  0.1309
  353loPI    C1 5633  10.170   2.729  10.552 -0.0603 -0.0253  0.1280
  353loPI    C2 5634  10.223   3.123  10.507 -0.2114 -0.0441 -0.2496
  353loPI    C3 5635   9.896   2.985  10.692 -0.2815  0.0022 -0.3385
  353loPI   PO4 5636  10.162   2.653  10.287  0.1505  0.1822  0.2284
  353loPI   GL1 5637  10.098   2.745   9.817  0.0769  0.0541  0.1440
  353loPI   GL2 5638   9.725   2.615   9.677  0.4559 -0.1074 -0.0452
  353loPI   C1A 5639  10.238   2.930   9.445  0.2038 -0.1765  0.0052
  353loPI   C2A 5640  10.395   3.269   9.149 -0.0602  0.2213 -0.0202
  353loPI   C3A 5641  10.359   3.658   8.900  0.1808  0.2513  0.1724
  353loPI   C4A 5642  10.532   3.901   8.611  0.0154  0.2627 -0.1236
  353loPI   C5A 5643  10.394   3.938   8.225 -0.2141  0.0991  0.1638
  353loPI   C6A 5644  10.402   3.745   7.862  0.0210 -0.3022  0.1520
  353loPI   C1B 5645   9.784   2.809   9.200  0.1916  0.3026  0.0009
  353loPI   C2B 5646   9.783   2.747   8.744  0.0216 -0.2171 -0.1399
  353loPI   C3B 5647   9.877   2.807   8.377  0.2517  0.2285  0.0583
  353loPI   C4B 5648   9.980   3.031   7.939 -0.0549  0.2642  0.0041
  354loPI    C1 5649  10.786   3.980  10.601  0.4894  0.0998  0.0563
  354loPI    C2 5650  10.761   3.629  10.791  0.1487  0.1437  0.0977
  354loPI    C3 5651  10.592   3.956  10.949  0.0750  0.2321 -0.1587
  354loPI   PO4 5652  10.718   3.864  10.318 -0.2537  0.0309 -0.0339
  354loPI   GL1 5653  10.888   3.832   9.928 -0.1607  0.0022  0.0189
  354loPI   GL2 5654  10.775   3.569   9.892  0.2954 -0.3924 -0.0504
  354loPI   C1A 5655  11.144   3.799   9.568 -0.0367 -0.1606  0.2508
  354loPI   C2A 5656  11.286   3.693   9.220  0.0326  0.1084 -0.1086
  354loPI   C3A 5657  11.428   3.550   8.756 -0.0795 -0.2330  0.0987
  354loPI   C4A 5658  11.569   3.565   8.350  0.3229  0.2624  0.3198
  354loPI   C5A 5659  11.718   3.574   7.907  0.0791  0.0350  0.0680
  354loPI   C6A 5660  11.891   3.379   7.534  0.2659 -0.1428 -0.3385
  354loPI   C1B 5661  10.852   3.440   9.447 -0.0559  0.2669 -0.1966
  354loPI   C2B 5662  10.864   3.473   9.082  0.0322 -0.1729  0.0796
  354loPI   C3B 5663  10.834   3.366   8.599 -0.3712 -0.2554 -0.2070
  354loPI   C4B 5664  10.779   3.462   8.216 -0.3186  0.0509  0.1093
  355loPI    C1 5665  13.864   3.779  10.128 -0.0474  0.0677  0.0183
  355loPI    C2 5666  13.698   4.113  10.272  0.0755  0.1043  0.0769
  355loPI    C3 5667  13.899   3.869  10.516  0.2187  0.1268 -0.0175
  355loPI   PO4 5668  13.688   3.663   9.946  0.0771  0.4597  0.3729
  355loPI   GL1 5669  13.698   3.496   9.488 -0.0551 -0.0530 -0.2064
  355loPI   GL2 5670  13.986   3.304   9.466  0.0536  0.1384 -0.1492
  355loPI   C1A 5671  13.360   3.497   9.218 -0.2411  0.1018 -0.1526
  355loPI   C2A 5672  13.301   3.350   8.864  0.0685  0.1030  0.1747
  355loPI   C3A 5673  13.343   3.254   8.484  0.1224 -0.0034  0.0747
  355loPI   C4A 5674  13.268   3.271   8.051 -0.1859 -0.4041 -0.2667
  355loPI   C5A 5675  13.274   3.060   7.554 -0.0868 -0.2218 -0.2024
  355loPI   C6A 5676  13.580   2.785   7.254  0.2837 -0.1215 -0.0002
  355loPI   C1B 5677  13.831   3.436   8.983  0.2184 -0.0679  0.2781
  355loPI   C2B 5678  13.831   3.336   8.545  0.0311 -0.0809 -0.0185
  355loPI   C3B 5679  13.645   3.010   8.239 -0.3673 -0.0371 -0.2174
  355loPI   C4B 5680  13.497   2.749   7.851  0.2839 -0.0929 -0.0610
  356loPI    C1 5681   6.103  12.397   9.364  0.0364  0.5274 -0.0938
  356loPI    C2 5682   6.271  12.472   9.719  0.2248 -0.1819 -0.0176
  356loPI    C3 5683   5.896  12.333   9.700  0.1204  0.1059 -0.1165
  356loPI   PO4 5684   6.370  12.272   9.273  0.3333  0.0295 -0.1246
  356loPI   GL1 5685   6.553  12.252   8.931 -0.1002 -0.4862 -0.0706
  356loPI   GL2 5686   6.782  12.489   8.762  0.0932  0.0860 -0.0833
  356loPI   C1A 5687   6.425  12.111   8.562 -0.0570  0.1022  0.0158
  356loPI   C2A 5688   6.337  12.119   8.145  0.1554  0.0323 -0.1680
  356loPI   C3A 5689   6.364  12.083   7.656  0.0724 -0.0631 -0.0810
  356loPI   C4A 5690   6.278  12.037   7.221 -0.0835 -0.0560  0.0022
  356loPI   C5A 5691   6.131  11.844   6.881  0.0041  0.1834 -0.1597
  356loPI   C6A 5692   5.927  11.587   6.591 -0.4548 -0.1626 -0.2363
  356loPI   C1B 5693   6.672  12.691   8.361  0.1581  0.1937 -0.0422
  356loPI   C2B 5694   6.618  12.633   7.942 -0.1340 -0.1249  0.1660
  356loPI   C3B 5695   6.277  12.566   7.529 -0.1780  0.2345 -0.1881
  356loPI   C4B 5696   5.938  12.408   7.582 -0.3770 -0.0280  0.0178
  357loPI    C1 5697   7.749  14.585   9.678 -0.0235  0.1143  0.2277
  357loPI    C2 5698   7.696  14.902   9.917 -0.1581  0.0933  0.2265
  357loPI    C3 5699   7.550  14.545  10.023 -0.1066  0.0561  0.1732
  357loPI   PO4 5700   7.973  14.644   9.554 -0.2027 -0.0080 -0.2099
  357loPI   GL1 5701   8.276  14.437   9.214  0.1694 -0.1809 -0.1732
  357loPI   GL2 5702   8.239  14.155   9.074 -0.1790  0.2949 -0.1277
  357loPI   C1A 5703   8.374  14.673   8.802 -0.1109 -0.1647 -0.1155
  357loPI   C2A 5704   8.271  14.954   8.588  0.1520 -0.0324  0.0030
  357loPI   C3A 5705   7.895  15.109   8.394  0.2673  0.1814 -0.3257
  357loPI   C4A 5706   7.559  14.968   8.014 -0.0725  0.2047  0.3515
  357loPI   C5A 5707   7.265  15.010   7.701 -0.0629 -0.0596  0.0936
  357loPI   C6A 5708   7.270  15.136   7.158  0.0869  0.0744 -0.1328
  357loPI   C1B 5709   8.295  14.180   8.685 -0.2391 -0.3240  0.0802
  357loPI   C2B 5710   8.369  14.445   8.368  0.1795  0.1056 -0.1037
  357loPI   C3B 5711   8.299  14.203   8.032  0.2664 -0.0688 -0.0604
  357loPI   C4B 5712   8.220  13.875   7.686  0.1773 -0.0823  0.1541
  358loPI    C1 5713   6.091   5.579  10.041 -0.0296 -0.2297 -0.2159
  358loPI    C2 5714   5.777   5.649  10.280  0.1468 -0.0605 -0.0294
  358loPI    C3 5715   5.929   5.279  10.251 -0.1462 -0.1700 -0.2197
  358loPI   PO4 5716   6.083   5.794   9.879  0.1974 -0.1358 -0.2014
  358loPI   GL1 5717   6.191   5.903   9.403  0.4747  0.1005 -0.2199
  358loPI   GL2 5718   6.428   5.693   9.331 -0.1341 -0.1433  0.0579
  358loPI   C1A 5719   6.110   5.966   9.049  0.1435  0.0492  0.0390
  358loPI   C2A 5720   5.967   5.792   8.744  0.1319 -0.0082  0.2890
  358loPI   C3A 5721   6.254   5.635   8.363  0.3060 -0.0989  0.0456
  358loPI   C4A 5722   6.570   5.506   8.164  0.2185  0.1119 -0.0988
  358loPI   C5A 5723   6.802   5.193   8.243  0.3400 -0.0377 -0.0555
  358loPI   C6A 5724   7.067   4.995   8.483  0.2047 -0.5684  0.2046
  358loPI   C1B 5725   6.221   5.451   9.088  0.1235 -0.3439 -0.1131
  358loPI   C2B 5726   6.091   5.313   8.701  0.2655  0.1534  0.1850
  358loPI   C3B 5727   6.214   5.051   8.409 -0.3527  0.1592  0.1254
  358loPI   C4B 5728   6.332   5.072   7.985 -0.1176 -0.1603 -0.3464
  359loPI    C1 5729  10.077  17.527  10.117 -0.0816  0.0638 -0.0654
  359loPI    C2 5730  10.359  17.770  10.263 -0.0240  0.0344 -0.1271
  359loPI    C3 5731  10.068  17.634  10.502  0.0736 -0.0194 -0.0378
  359loPI   PO4 5732  10.206  17.497   9.832  0.0269  0.1839  0.5256
  359loPI   GL1 5733   9.958  17.279   9.521  0.2461  0.0220  0.1454
  359loPI   GL2 5734   9.587  17.207   9.489 -0.1033  0.2605 -0.3427
  359loPI   C1A 5735   9.813  17.351   8.974  0.1400  0.1238  0.1781
  359loPI   C2A 5736   9.935  17.368   8.551  0.1122 -0.1973 -0.1616
  359loPI   C3A 5737  10.480  17.328   8.344  0.0627  0.0435 -0.2515
  359loPI   C4A 5738  10.707  17.338   7.966 -0.3011 -0.0312 -0.1852
  359loPI   C5A 5739  10.732  17.137   7.684  0.1470 -0.0499  0.1133
  359loPI   C6A 5740  10.779  16.873   7.324  0.2622 -0.2415 -0.6343
  359loPI   C1B 5741   9.391  17.544   9.234 -0.0533  0.1490 -0.0203
  359loPI   C2B 5742   9.031  17.514   9.000  0.1614  0.4322  0.0941
  359loPI   C3B 5743   8.913  17.402   8.694 -0.1258  0.2354  0.1350
  359loPI   C4B 5744   8.938  17.265   8.250  0.0422 -0.1138  0.0508
  360loPI    C1 5745  18.998  14.475   9.623 -0.4509 -0.0650  0.2279
  360loPI    C2 5746  19.248  14.401   9.927 -0.0080  0.3238 -0.0281
  360loPI    C3 5747  19.079  14.097   9.728  0.2315  0.0538  0.1723
  360loPI   PO4 5748  19.072  14.623   9.550 -0.0079  0.0619  0.1162
  360loPI   GL1 5749  19.013  14.957   9.319  0.0300 -0.2002 -0.3141
  360loPI   GL2 5750  19.150  15.217   9.285  0.2071 -0.1215 -0.0647
  360loPI   C1A 5751  19.006  14.926   8.822 -0.1066  0.0966  0.1477
  360loPI   C2A 5752  18.771  15.104   8.489 -0.0868 -0.5439  0.3058
  360loPI   C3A 5753  18.574  15.070   8.151 -0.1071 -0.1119 -0.1421
  360loPI   C4A 5754  18.697  15.033   7.669 -0.2715  0.0405 -0.0271
  360loPI   C5A 5755  18.872  14.823   7.301 -0.0861 -0.0231  0.2352
  360loPI   C6A 5756  19.228  14.621   7.314  0.0009 -0.1474  0.0304
  360loPI   C1B 5757  19.377  15.368   8.962 -0.1209 -0.1449 -0.3268
  360loPI   C2B 5758  19.248  15.271   8.574 -0.1561 -0.0572  0.1012
  360loPI   C3B 5759  19.011  15.500   8.237 -0.2082 -0.0636 -0.0302
  360loPI   C4B 5760  18.718  15.564   7.913  0.3370  0.0897  0.1004
  361loPI    C1 5761   5.742  15.064  10.241  0.1111  0.2721 -0.1891
  361loPI    C2 5762   5.387  15.186  10.379  0.0715  0.0678 -0.1063
  361loPI    C3 5763   5.653  15.021  10.628  0.0075 -0.2864 -0.2661
  361loPI   PO4 5764   5.662  14.869   9.980  0.1451 -0.2220  0.0925
  361loPI   GL1 5765   5.483  15.040   9.579 -0.4382 -0.0590  0.3320
  361loPI   GL2 5766   5.512  14.713   9.307  0.0337 -0.0879 -0.2561
  361loPI   C1A 5767   5.434  15.341   9.248 -0.1965 -0.2004 -0.1725
  361loPI   C2A 5768   5.412  15.592   8.920 -0.1559 -0.5012 -0.1158
  361loPI   C3A 5769   5.403  15.820   8.565 -0.0205  0.1969  0.1240
  361loPI   C4A 5770   5.601  16.044   8.204  0.1867 -0.1543  0.0446
  361loPI   C5A 5771   5.698  16.256   7.842 -0.0671 -0.0277  0.1547
  361loPI   C6A 5772   5.804  16.672   7.700 -0.2259  0.1392  0.1158
  361loPI   C1B 5773   5.599  14.916   8.932 -0.0368 -0.0228  0.1425
  361loPI   C2B 5774   5.962  14.837   8.805  0.1818 -0.3517 -0.3455
  361loPI   C3B 5775   6.429  14.947   8.662 -0.0174 -0.0057 -0.1926
  361loPI   C4B 5776   6.671  14.794   8.331 -0.1327  0.1116  0.1591
  362loPI    C1 5777  16.272   8.715   9.642  0.1285  0.2387  0.0847
  362loPI    C2 5778  16.080   8.843   9.969 -0.0616 -0.1213  0.1194
  362loPI    C3 5779  16.476   8.890   9.938 -0.1256  0.4936  0.1132
  362loPI   PO4 5780  16.183   8.504   9.591  0.0733  0.2607  0.2130
  362loPI   GL1 5781  16.003   8.553   9.123  0.1884  0.1086 -0.2746
  362loPI   GL2 5782  16.253   8.803   9.077 -0.1951 -0.0495  0.0524
  362loPI   C1A 5783  15.696   8.480   8.808 -0.1859 -0.0236  0.1947
  362loPI   C2A 5784  15.727   8.458   8.405 -0.1125 -0.1664  0.0541
  362loPI   C3A 5785  15.901   8.452   8.005 -0.1544 -0.1290  0.3424
  362loPI   C4A 5786  16.044   8.352   7.627  0.2240 -0.1191  0.1497
  362loPI   C5A 5787  16.430   8.075   7.437 -0.0753 -0.2977  0.2312
  362loPI   C6A 5788  16.894   8.160   7.603 -0.1747  0.0586 -0.0355
  362loPI   C1B 5789  16.243   8.757   8.725 -0.3623 -0.2180 -0.1955
  362loPI   C2B 5790  16.109   8.832   8.296 -0.0007  0.0648  0.0423
  362loPI   C3B 5791  15.885   8.909   7.792  0.0323 -0.3131  0.2034
  362loPI   C4B 5792  15.582   8.742   7.571 -0.0849 -0.3529  0.0598
  363loPI    C1 5793  11.924   5.708  10.218 -0.1190 -0.1775 -0.0452
  363loPI    C2 5794  11.843   5.624  10.600  0.0163 -0.1394 -0.0075
  363loPI    C3 5795  11.546   5.716  10.348 -0.0737 -0.1698  0.0867
  363loPI   PO4 5796  12.188   5.509  10.039 -0.3638  0.1948  0.0469
  363loPI   GL1 5797  12.172   5.325   9.674 -0.4258  0.0181  0.1355
  363loPI   GL2 5798  12.274   5.041   9.539 -0.1151  0.1681  0.3564
  363loPI   C1A 5799  12.219   5.575   9.320  0.2386  0.1680  0.1964
  363loPI   C2A 5800  12.217   5.606   8.960  0.4001 -0.0631 -0.1149
  363loPI   C3A 5801  12.195   5.402   8.620 -0.0547  0.0624 -0.1558
  363loPI   C4A 5802  12.300   5.577   8.257  0.2034 -0.0167  0.2352
  363loPI   C5A 5803  12.352   6.025   8.152  0.2648  0.1412 -0.0956
  363loPI   C6A 5804  12.147   6.371   7.916 -0.1801 -0.2275 -0.0248
  363loPI   C1B 5805  12.240   5.001   9.082  0.0525  0.0416  0.0760
  363loPI   C2B 5806  12.119   4.878   8.691 -0.1342 -0.2768 -0.1454
  363loPI   C3B 5807  12.153   5.060   8.249  0.1578  0.1296  0.0360
  363loPI   C4B 5808  12.175   4.766   7.718  0.0892 -0.3372 -0.0485
  364loPI    C1 5809  11.494   9.406   9.889  0.1083 -0.1122 -0.0311
  364loPI    C2 5810  11.773   9.615   9.694  0.1217  0.1105  0.2214
  364loPI    C3 5811  11.644   9.739  10.052 -0.3524  0.0495  0.0779
  364loPI   PO4 5812  11.334   9.364   9.768  0.1730 -0.1693  0.1277
  364loPI   GL1 5813  11.286   9.569   9.363 -0.1001 -0.2361 -0.3082
  364loPI   GL2 5814  11.621   9.410   9.281 -0.1967  0.1908 -0.0024
  364loPI   C1A 5815  10.971   9.571   9.045 -0.0821 -0.0178 -0.0683
  364loPI   C2A 5816  10.871   9.641   8.602  0.0358  0.0950  0.1730
  364loPI   C3A 5817  11.151   9.661   8.214  0.1606 -0.1858 -0.1383
  364loPI   C4A 5818  11.270   9.706   7.759 -0.1473  0.2607  0.1299
  364loPI   C5A 5819  11.263  10.036   7.406 -0.3541 -0.3732  0.0377
  364loPI   C6A 5820  11.300  10.552   7.252 -0.0836  0.1986 -0.1981
  364loPI   C1B 5821  11.840   9.208   8.866  0.0019 -0.2557 -0.2780
  364loPI   C2B 5822  11.970   9.332   8.482  0.1419  0.2091 -0.1668
  364loPI   C3B 5823  12.063   9.323   8.006 -0.2728  0.1284 -0.0021
  364loPI   C4B 5824  12.125   9.703   7.735 -0.3021  0.1947 -0.3446
  365loPI    C1 5825  12.939   4.832  10.378 -0.2594  0.2256 -0.0699
  365loPI    C2 5826  12.769   5.125  10.591 -0.1245  0.4472 -0.2614
  365loPI    C3 5827  13.044   4.888  10.760 -0.5258  0.1643  0.0145
  365loPI   PO4 5828  13.011   4.920  10.166 -0.1009 -0.0561 -0.0731
  365loPI   GL1 5829  13.316   5.005   9.877  0.0194  0.1125  0.0807
  365loPI   GL2 5830  13.414   4.659   9.836 -0.0791 -0.2177  0.1593
  365loPI   C1A 5831  13.155   4.869   9.370  0.2648 -0.1141  0.1913
  365loPI   C2A 5832  12.819   4.784   9.036 -0.1523  0.2926 -0.3538
  365loPI   C3A 5833  12.952   4.762   8.587  0.1207  0.0572 -0.1727
  365loPI   C4A 5834  12.981   4.854   8.130 -0.2368 -0.2094 -0.1205
  365loPI   C5A 5835  13.146   4.888   7.813 -0.1169  0.2325 -0.1956
  365loPI   C6A 5836  13.359   4.686   7.411 -0.0237 -0.0478 -0.2446
  365loPI   C1B 5837  13.412   4.387   9.436 -0.1596  0.1200  0.1913
  365loPI   C2B 5838  13.263   4.451   8.981  0.1505 -0.4139 -0.0284
  365loPI   C3B 5839  13.281   4.318   8.607  0.4613  0.1355  0.0092
  365loPI   C4B 5840  13.076   4.353   8.160  0.2319  0.0139  0.1184
  366loPI    C1 5841  10.574  19.456  10.176  0.1244  0.3854  0.3423
  366loPI    C2 5842  10.612  19.179  10.462 -0.0383  0.0703  0.0660
  366loPI    C3 5843  10.432  19.527  10.544 -0.0650 -0.0073  0.3504
  366loPI   PO4 5844  10.470  19.345   9.973  0.2947  0.0644 -0.0139
  366loPI   GL1 5845  10.337  19.395   9.629 -0.0530  0.0194  0.0453
  366loPI   GL2 5846   9.966  19.530   9.472 -0.0323 -0.1640 -0.0828
  366loPI   C1A 5847  10.505  19.491   9.299  0.0083 -0.2312  0.0540
  366loPI   C2A 5848  10.757  19.352   9.042 -0.4057  0.0502  0.3310
  366loPI   C3A 5849  10.856  19.337   8.634 -0.1759 -0.0853  0.0516
  366loPI   C4A 5850  10.825  19.092   8.238  0.3357 -0.1905  0.3081
  366loPI   C5A 5851  10.594  18.763   8.009 -0.0006  0.4137 -0.0034
  366loPI   C6A 5852  10.269  18.631   7.790 -0.0243  0.1225  0.1830
  366loPI   C1B 5853   9.928  19.256   9.123  0.1420  0.0486  0.1812
  366loPI   C2B 5854   9.963  18.947   8.749  0.0622  0.1469  0.2052
  366loPI   C3B 5855   9.712  18.847   8.410  0.1070 -0.0997  0.0543
  366loPI   C4B 5856   9.590  19.025   8.048 -0.1352 -0.1453  0.1387
  367loPI    C1 5857  18.931   4.513  10.225 -0.0308  0.1387  0.0342
  367loPI    C2 5858  18.955   4.871  10.047  0.2707  0.0723 -0.0649
  367loPI    C3 5859  19.188   4.787  10.361 -0.0671  0.0928  0.1979
  367loPI   PO4 5860  18.975   4.328  10.054 -0.2131 -0.2767  0.1143
  367loPI   GL1 5861  19.190   4.375   9.663 -0.1821  0.1994  0.3736
  367loPI   GL2 5862  18.894   4.273   9.597 -0.1042  0.0770  0.2988
  367loPI   C1A 5863  19.128   4.563   9.201 -0.2270  0.1383 -0.3076
  367loPI   C2A 5864  19.112   4.407   8.825 -0.2120 -0.4556 -0.0975
  367loPI   C3A 5865  18.944   4.342   8.438  0.0020  0.2977  0.1015
  367loPI   C4A 5866  18.962   4.218   7.945 -0.0352 -0.1171 -0.4807
  367loPI   C5A 5867  19.096   3.944   7.725  0.1342 -0.2317  0.1932
  367loPI   C6A 5868  19.084   3.789   7.398 -0.0872 -0.1850 -0.0867
  367loPI   C1B 5869  18.730   4.263   9.196  0.0784 -0.0678 -0.3311
  367loPI   C2B 5870  18.795   3.989   8.790 -0.2401  0.1157 -0.0611
  367loPI   C3B 5871  18.735   3.826   8.434  0.0383  0.1419  0.0759
  367loPI   C4B 5872  18.698   3.789   8.041  0.1895 -0.0125  0.2196
  368loPI    C1 5873  15.511   2.070  10.407  0.1290  0.0523  0.0923
  368loPI    C2 5874  15.638   2.005  10.033 -0.1314 -0.1492  0.0365
  368loPI    C3 5875  15.895   2.130  10.312  0.1529 -0.3879 -0.1132
  368loPI   PO4 5876  15.214   2.214  10.281 -0.0741  0.3425 -0.1977
  368loPI   GL1 5877  15.194   2.248   9.770  0.0730  0.0382  0.2449
  368loPI   GL2 5878  15.226   2.570   9.662  0.0273 -0.1403 -0.0248
  368loPI   C1A 5879  15.025   2.011   9.422  0.2841  0.1671 -0.0328
  368loPI   C2A 5880  14.968   1.876   9.081 -0.0847  0.0846 -0.2224
  368loPI   C3A 5881  14.932   1.937   8.634 -0.0102  0.3890 -0.0229
  368loPI   C4A 5882  15.022   1.968   8.172 -0.2000  0.0283 -0.0684
  368loPI   C5A 5883  15.008   2.373   7.948 -0.0922  0.0786  0.0658
  368loPI   C6A 5884  15.342   2.452   7.689 -0.0851 -0.1504 -0.2551
  368loPI   C1B 5885  15.011   2.438   9.210 -0.1296 -0.0305 -0.0192
  368loPI   C2B 5886  14.921   2.514   8.790 -0.2725  0.0794  0.1246
  368loPI   C3B 5887  15.124   2.738   8.397 -0.2146  0.3056  0.3594
  368loPI   C4B 5888  15.143   2.852   7.973  0.1585 -0.1859  0.1801
  369loPI    C1 5889  19.281   5.300  10.391 -0.0577 -0.1833 -0.0517
  369loPI    C2 5890  18.894   5.200  10.416 -0.1664  0.2506  0.0900
  369loPI    C3 5891  19.148   5.092  10.706 -0.2005  0.0541  0.0477
  369loPI   PO4 5892  19.339   5.254  10.177 -0.1058  0.2851 -0.2123
  369loPI   GL1 5893  19.600   5.240   9.751  0.0363 -0.0074 -0.3974
  369loPI   GL2 5894  19.356   5.489   9.744  0.2145 -0.1305 -0.0933
  369loPI   C1A 5895  19.595   5.218   9.346 -0.1944 -0.1554  0.2915
  369loPI   C2A 5896  20.022   5.106   9.163  0.0502 -0.0865  0.1851
  369loPI   C3A 5897  20.358   4.686   8.942 -0.0729  0.0956  0.0944
  369loPI   C4A 5898  20.513   4.601   8.488 -0.3550  0.0350 -0.3291
  369loPI   C5A 5899  20.577   4.545   8.148  0.0565 -0.1980 -0.2230
  369loPI   C6A 5900  20.828   4.169   7.844 -0.2451 -0.0754 -0.2659
  369loPI   C1B 5901  19.168   5.533   9.261  0.1824  0.0297 -0.2937
  369loPI   C2B 5902  19.024   5.578   8.800 -0.2249  0.1011  0.0324
  369loPI   C3B 5903  19.152   5.342   8.508  0.0908 -0.3845 -0.1871
  369loPI   C4B 5904  19.303   5.112   8.161 -0.0203 -0.1299 -0.0446
  370loPI    C1 5905   5.742   0.271  10.332 -0.0395 -0.1647 -0.1486
  370loPI    C2 5906   5.655   0.207  10.717 -0.0422 -0.1055 -0.1393
  370loPI    C3 5907   6.031   0.289  10.608 -0.0697  0.0393 -0.1285
  370loPI   PO4 5908   5.637   0.430  10.221 -0.1594  0.0056  0.1110
  370loPI   GL1 5909   5.444   0.393   9.912  0.3403  0.4230  0.0031
  370loPI   GL2 5910   5.187   0.450   9.814 -0.1865  0.0292  0.0090
  370loPI   C1A 5911   5.620   0.483   9.460 -0.0176  0.0281 -0.2142
  370loPI   C2A 5912   5.584   0.575   9.038  0.0897 -0.3583 -0.0946
  370loPI   C3A 5913   5.647   0.621   8.550 -0.2592  0.3717 -0.1928
  370loPI   C4A 5914   5.702   0.558   8.135  0.1988 -0.1435  0.1161
  370loPI   C5A 5915   5.718   0.544   7.763 -0.3574 -0.0492  0.0395
  370loPI   C6A 5916   5.973   0.298   7.584 -0.0508 -0.0803 -0.3828
  370loPI   C1B 5917   5.018   0.473   9.364  0.1403 -0.3063 -0.1993
  370loPI   C2B 5918   5.122   0.573   8.881 -0.0802 -0.0700  0.0573
  370loPI   C3B 5919   5.141   0.597   8.505  0.0912 -0.2580  0.1479
  370loPI   C4B 5920   5.133   0.592   8.128  0.1048 -0.2483 -0.3668
  371loPI    C1 5921   6.531  10.201   9.798  0.1371  0.0612 -0.0088
  371loPI    C2 5922   6.639   9.828   9.702  0.1329  0.0355  0.0853
  371loPI    C3 5923   6.798  10.006  10.024  0.1480  0.1213  0.0307
  371loPI   PO4 5924   6.521  10.316   9.617  0.1280 -0.1301 -0.0632
  371loPI   GL1 5925   6.557  10.551   9.229  0.0884  0.3364  0.1243
  371loPI   GL2 5926   6.877  10.479   9.228 -0.0382  0.1747 -0.2042
  371loPI   C1A 5927   6.433  10.326   8.759 -0.0336  0.0115  0.2524
  371loPI   C2A 5928   6.123  10.299   8.432 -0.0172 -0.1323 -0.1669
  371loPI   C3A 5929   6.136  10.363   7.994 -0.0009 -0.0628  0.0845
  371loPI   C4A 5930   5.987  10.412   7.610 -0.0780  0.0618 -0.1724
  371loPI   C5A 5931   5.947  10.153   7.262  0.1814  0.0059 -0.0021
  371loPI   C6A 5932   6.003   9.796   6.914 -0.1198 -0.1414  0.3261
  371loPI   C1B 5933   6.973  10.470   8.754  0.3285  0.2049  0.1225
  371loPI   C2B 5934   7.114  10.446   8.351  0.0468  0.0039 -0.2043
  371loPI   C3B 5935   7.134  10.464   7.917  0.0450 -0.0042  0.0898
  371loPI   C4B 5936   6.809  10.247   7.773 -0.1709  0.1520 -0.1636
  372loPI    C1 5937  16.980   0.071   9.933  0.3689  0.4373  0.1229
  372loPI    C2 5938  16.581   0.068   9.945  0.3634 -0.0254  0.0110
  372loPI    C3 5939  16.789   0.149  10.276  0.1787  0.0357  0.1139
  372loPI   PO4 5940  16.992   0.158   9.696  0.0519  0.1976 -0.1338
  372loPI   GL1 5941  17.204   0.304   9.445  0.3715  0.2093  0.2367
  372loPI   GL2 5942  17.460   0.067   9.403 -0.1778  0.2125  0.1134
  372loPI   C1A 5943  17.088   0.224   9.015  0.1532 -0.0224 -0.3094
  372loPI   C2A 5944  17.322   0.195   8.608 -0.2849 -0.1455 -0.1898
  372loPI   C3A 5945  17.452   0.113   8.219 -0.2380 -0.1338 -0.5163
  372loPI   C4A 5946  17.187   0.139   7.920 -0.0613  0.3106  0.0292
  372loPI   C5A 5947  17.072   0.353   7.544  0.0541 -0.0839  0.1591
  372loPI   C6A 5948  17.095   0.554   7.061  0.1502  0.0774 -0.3513
  372loPI   C1B 5949  17.383  -0.204   9.033 -0.1009 -0.1469  0.3751
  372loPI   C2B 5950  17.186  -0.573   8.783 -0.3315  0.0152 -0.2007
  372loPI   C3B 5951  16.902  -0.756   8.460  0.0240  0.0011 -0.0610
  372loPI   C4B 5952  16.747  -0.956   8.048  0.1611  0.0381  0.0710
  373loPI    C1 5953   4.376   0.845  10.348  0.1134  0.2290 -0.1479
  373loPI    C2 5954   4.464   0.815  10.737 -0.1942  0.0844 -0.0864
  373loPI    C3 5955   4.364   1.170  10.581 -0.0116  0.1537 -0.0479
  373loPI   PO4 5956   4.548   0.755  10.130  0.0060  0.0101 -0.0444
  373loPI   GL1 5957   4.619   0.616   9.803  0.0627  0.2435  0.0169
  373loPI   GL2 5958   4.759   0.267   9.816  0.0361  0.1301 -0.0797
  373loPI   C1A 5959   4.789   0.903   9.466  0.0904 -0.3381  0.3253
  373loPI   C2A 5960   4.838   0.978   9.060 -0.2269  0.3089  0.0156
  373loPI   C3A 5961   4.895   0.992   8.605  0.1621 -0.0187  0.0028
  373loPI   C4A 5962   4.917   1.080   8.153  0.0477  0.1797  0.1528
  373loPI   C5A 5963   4.861   0.934   7.758 -0.3013 -0.2023 -0.1753
  373loPI   C6A 5964   4.872   1.271   7.358  0.0334 -0.0221 -0.1360
  373loPI   C1B 5965   4.888  -0.026   9.438  0.1189  0.0654 -0.0272
  373loPI   C2B 5966   4.945   0.083   9.038 -0.4465 -0.1996  0.0212
  373loPI   C3B 5967   4.873   0.165   8.569  0.1542 -0.1607 -0.0090
  373loPI   C4B 5968   4.842   0.109   8.118  0.1862  0.2678 -0.0763
  374loPI    C1 5969   3.208  15.752  10.099  0.1767 -0.2000 -0.0455
  374loPI    C2 5970   3.113  15.723  10.487 -0.1261  0.0691 -0.0961
  374loPI    C3 5971   3.293  16.053  10.349 -0.0298 -0.0211 -0.1879
  374loPI   PO4 5972   2.931  15.701   9.963 -0.2569  0.2517  0.3993
  374loPI   GL1 5973   2.739  16.042   9.644 -0.0921  0.1072 -0.0558
  374loPI   GL2 5974   2.962  16.234   9.485 -0.1316  0.2145  0.1389
  374loPI   C1A 5975   2.583  15.834   9.233 -0.0350 -0.1555  0.1149
  374loPI   C2A 5976   2.714  15.873   8.748  0.2044 -0.1679  0.3179
  374loPI   C3A 5977   2.744  16.109   8.421  0.0964 -0.0563 -0.2701
  374loPI   C4A 5978   2.702  16.364   8.005  0.1450  0.2003 -0.0229
  374loPI   C5A 5979   2.600  16.719   7.801  0.0413 -0.0734 -0.1438
  374loPI   C6A 5980   2.870  16.906   7.467  0.0851 -0.1146 -0.1873
  374loPI   C1B 5981   2.827  16.291   9.086  0.0400  0.1532  0.0316
  374loPI   C2B 5982   2.998  16.434   8.731 -0.0722  0.1020 -0.1096
  374loPI   C3B 5983   2.936  16.626   8.276 -0.2722 -0.2177  0.1521
  374loPI   C4B 5984   3.008  16.911   8.016 -0.1386  0.2388  0.3279
  375loPI    C1 5985   7.267  14.609   9.537 -0.0208  0.1253 -0.1107
  375loPI    C2 5986   7.155  14.239   9.433  0.0603  0.0844 -0.0531
  375loPI    C3 5987   7.131  14.356   9.815  0.0785  0.1231 -0.0635
  375loPI   PO4 5988   7.190  14.738   9.290  0.0495  0.0585 -0.1145
  375loPI   GL1 5989   6.838  14.634   9.016  0.1964 -0.0147  0.0290
  375loPI   GL2 5990   7.081  14.392   8.944  0.0196  0.0371  0.0000
  375loPI   C1A 5991   6.952  14.898   8.715  0.1815 -0.0504 -0.1856
  375loPI   C2A 5992   6.769  15.245   8.536  0.1834 -0.2325  0.2577
  375loPI   C3A 5993   6.618  15.436   8.193 -0.0620 -0.1180 -0.1489
  375loPI   C4A 5994   6.563  15.611   7.858 -0.2178  0.0953  0.1402
  375loPI   C5A 5995   6.764  15.770   7.426 -0.0052 -0.0654  0.1657
  375loPI   C6A 5996   7.073  15.651   7.208  0.4204  0.0670 -0.0336
  375loPI   C1B 5997   7.044  14.410   8.481  0.0291  0.0817 -0.0369
  375loPI   C2B 5998   6.966  14.523   8.032  0.1229 -0.1424  0.3234
  375loPI   C3B 5999   6.591  14.364   7.768  0.1750  0.0351  0.2943
  375loPI   C4B 6000   6.157  14.444   7.699 -0.0020 -0.2065  0.1852
  376loPI    C1 6001  16.334  16.478  10.314  0.0020 -0.0116 -0.0170
  376loPI    C2 6002  16.529  16.468  10.663  0.2377 -0.1721 -0.1508
  376loPI    C3 6003  16.151  16.341  10.642  0.2683 -0.2947  0.0182
  376loPI   PO4 6004  16.468  16.363  10.127  0.1511 -0.0904 -0.0547
  376loPI   GL1 6005  16.362  16.524   9.758 -0.1831 -0.0199 -0.2421
  376loPI   GL2 6006  16.256  16.824   9.635 -0.1289  0.5198 -0.1442
  376loPI   C1A 6007  16.245  16.416   9.285 -0.0234 -0.4007  0.2817
  376loPI   C2A 6008  16.116  16.691   8.988 -0.2848 -0.3257 -0.2854
  376loPI   C3A 6009  15.991  16.603   8.672  0.0491 -0.2473 -0.2662
  376loPI   C4A 6010  16.068  16.599   8.224  0.0001  0.0248 -0.0003
  376loPI   C5A 6011  16.316  16.631   7.820  0.0929 -0.3325 -0.1362
  376loPI   C6A 6012  16.489  16.699   7.371 -0.2050 -0.1544 -0.1505
  376loPI   C1B 6013  15.974  17.040   9.377  0.3573  0.1047 -0.1916
  376loPI   C2B 6014  15.911  17.146   8.903  0.1073 -0.3034  0.0440
  376loPI   C3B 6015  15.799  17.015   8.403 -0.1245  0.0145  0.0999
  376loPI   C4B 6016  15.768  16.977   7.977  0.0632 -0.2531 -0.2254
  377loPI    C1 6017  10.697   2.879  10.468  0.0824 -0.1542 -0.3904
  377loPI    C2 6018  11.074   2.750  10.505  0.1339  0.0507 -0.1861
  377loPI    C3 6019  10.979   3.126  10.606 -0.1197  0.0101 -0.2656
  377loPI   PO4 6020  10.674   2.781  10.174 -0.1970 -0.0224 -0.0893
  377loPI   GL1 6021  10.639   2.773   9.688 -0.0215 -0.3620 -0.0197
  377loPI   GL2 6022  10.810   3.045   9.716  0.0416  0.0964 -0.2042
  377loPI   C1A 6023  10.403   2.420   9.510 -0.3391  0.2404 -0.2157
  377loPI   C2A 6024  10.086   2.336   9.301  0.2327 -0.2430  0.2367
  377loPI   C3A 6025  10.013   2.342   8.856  0.4102  0.0583 -0.0375
  377loPI   C4A 6026  10.096   2.345   8.377 -0.0123  0.0148 -0.2867
  377loPI   C5A 6027  10.025   2.537   7.963  0.0076 -0.0045  0.0422
  377loPI   C6A 6028  10.208   2.718   7.561 -0.0854 -0.1411 -0.0014
  377loPI   C1B 6029  10.764   2.983   9.224 -0.0933 -0.1038  0.0805
  377loPI   C2B 6030  10.800   2.909   8.799 -0.0421 -0.1745  0.0675
  377loPI   C3B 6031  10.888   2.995   8.259 -0.0822  0.0494 -0.1091
  377loPI   C4B 6032  10.727   2.752   7.869  0.0943  0.0630 -0.1131
  378loPI    C1 6033   5.645   7.553   9.808  0.1756 -0.0215  0.0757
  378loPI    C2 6034   6.020   7.472   9.921  0.1316 -0.1485  0.1327
  378loPI    C3 6035   5.721   7.443  10.185  0.0479 -0.3006  0.0228
  378loPI   PO4 6036   5.730   7.799   9.579  0.0528 -0.0089  0.0575
  378loPI   GL1 6037   5.738   7.606   9.142 -0.0468  0.0253 -0.0337
  378loPI   GL2 6038   5.450   7.539   9.240 -0.0763  0.5733 -0.2210
  378loPI   C1A 6039   5.798   7.900   8.767  0.0795  0.1708 -0.1829
  378loPI   C2A 6040   5.517   7.977   8.519 -0.2979 -0.0241 -0.0801
  378loPI   C3A 6041   5.250   7.846   8.260  0.2096 -0.0715  0.3472
  378loPI   C4A 6042   5.262   7.463   8.061  0.2724 -0.0819  0.1336
  378loPI   C5A 6043   4.946   7.166   7.969  0.2222 -0.1220 -0.1841
  378loPI   C6A 6044   4.899   7.013   7.558 -0.1138 -0.1618  0.0598
  378loPI   C1B 6045   5.311   7.621   8.837  0.0794  0.2505 -0.2764
  378loPI   C2B 6046   5.186   7.333   8.525  0.0483  0.2304 -0.1867
  378loPI   C3B 6047   4.762   7.340   8.482  0.1740 -0.2539 -0.4354
  378loPI   C4B 6048   4.367   7.411   8.458 -0.1878  0.3826  0.0923
  379loPI    C1 6049   1.149  12.190   9.504 -0.0637  0.0349  0.1182
  379loPI    C2 6050   1.081  12.257   9.893  0.2267  0.0455  0.1700
  379loPI    C3 6051   1.277  11.928   9.778 -0.2086 -0.1625 -0.0008
  379loPI   PO4 6052   0.928  12.213   9.307  0.0018 -0.1479  0.2935
  379loPI   GL1 6053   1.132  12.086   8.932  0.1036 -0.1326  0.1198
  379loPI   GL2 6054   1.121  11.873   8.659 -0.5450 -0.2028  0.1621
  379loPI   C1A 6055   1.020  12.360   8.513 -0.1329 -0.0851  0.1070
  379loPI   C2A 6056   1.042  12.454   8.013 -0.1703  0.0101  0.2345
  379loPI   C3A 6057   1.361  12.518   7.559 -0.0083  0.0151 -0.1330
  379loPI   C4A 6058   1.513  12.744   7.290 -0.3702  0.0658  0.0895
  379loPI   C5A 6059   1.967  12.975   7.224  0.0890  0.0056  0.0855
  379loPI   C6A 6060   2.349  13.010   6.917  0.0908  0.1918 -0.0270
  379loPI   C1B 6061   1.197  11.942   8.198 -0.2030  0.2658  0.0071
  379loPI   C2B 6062   1.088  12.064   7.662 -0.1823 -0.0678 -0.0366
  379loPI   C3B 6063   1.125  11.979   7.262  0.0337  0.2799  0.1170
  379loPI   C4B 6064   0.904  11.812   6.994 -0.1429  0.0229  0.1091
  380loPI    C1 6065   8.524  16.547   9.751  0.0532 -0.2963  0.1213
  380loPI    C2 6066   8.799  16.494  10.037  0.0777 -0.1175  0.1317
  380loPI    C3 6067   8.759  16.851   9.861 -0.1185 -0.1546  0.0990
  380loPI   PO4 6068   8.492  16.249   9.704  0.3392  0.0481 -0.0674
  380loPI   GL1 6069   8.611  16.248   9.308 -0.1307  0.0111  0.1692
  380loPI   GL2 6070   8.283  16.104   9.294  0.1663  0.1174 -0.1989
  380loPI   C1A 6071   8.730  16.028   8.931 -0.1217 -0.2420 -0.0867
  380loPI   C2A 6072   8.485  15.989   8.557 -0.0836  0.6016  0.2217
  380loPI   C3A 6073   8.480  16.065   8.148  0.1644 -0.1605  0.2453
  380loPI   C4A 6074   8.430  16.003   7.682  0.3008 -0.0792  0.0098
  380loPI   C5A 6075   8.165  15.933   7.394  0.1994 -0.1654  0.2742
  380loPI   C6A 6076   7.831  15.899   7.041  0.0531 -0.0198  0.1440
  380loPI   C1B 6077   8.273  16.233   8.929  0.2853 -0.2399 -0.0504
  380loPI   C2B 6078   8.246  16.459   8.533 -0.2451  0.0820 -0.0153
  380loPI   C3B 6079   8.251  16.496   8.055  0.1513  0.1443  0.1761
  380loPI   C4B 6080   8.370  16.538   7.613  0.0085  0.0229 -0.0418
  381loPI    C1 6081  15.410   3.494  10.047 -0.0454  0.0312  0.0051
  381loPI    C2 6082  15.482   3.199  10.307  0.1794  0.0963  0.0189
  381loPI    C3 6083  15.384   3.563  10.440 -0.0131  0.0509  0.0039
  381loPI   PO4 6084  15.543   3.408   9.839 -0.1856  0.1867 -0.1913
  381loPI   GL1 6085  15.735   3.607   9.437  0.2935 -0.1668  0.0839
  381loPI   GL2 6086  15.919   3.448   9.275 -0.0983 -0.0671 -0.1501
  381loPI   C1A 6087  15.399   3.799   9.195  0.0365  0.1260 -0.1553
  381loPI   C2A 6088  15.158   3.693   8.884 -0.3416 -0.1390 -0.2312
  381loPI   C3A 6089  15.225   3.340   8.648  0.0231  0.0160 -0.1025
  381loPI   C4A 6090  15.368   3.173   8.231  0.0204 -0.0247 -0.2710
  381loPI   C5A 6091  15.705   3.446   7.949 -0.0560  0.3512 -0.0659
  381loPI   C6A 6092  15.810   3.898   7.974  0.1762 -0.2436  0.0586
  381loPI   C1B 6093  16.235   3.493   8.990 -0.2905 -0.0057 -0.0446
  381loPI   C2B 6094  16.405   3.841   8.692 -0.1642 -0.0669 -0.3196
  381loPI   C3B 6095  16.456   3.879   8.221 -0.0057 -0.2084  0.0122
  381loPI   C4B 6096  16.760   3.779   7.841  0.4288  0.1965 -0.0616
  382loPI    C1 6097   0.848  17.454  10.114  0.1439 -0.2163  0.2120
  382loPI    C2 6098   0.632  17.789  10.151  0.3512 -0.0573  0.0098
  382loPI    C3 6099   0.625  17.514  10.441  0.2960  0.1900  0.2468
  382loPI   PO4 6100   0.855  17.424   9.874  0.0671  0.4219 -0.3175
  382loPI   GL1 6101   0.953  17.425   9.491 -0.0299 -0.2167 -0.0474
  382loPI   GL2 6102   0.658  17.257   9.469 -0.1359  0.1038  0.0899
  382loPI   C1A 6103   1.234  17.393   9.167  0.1389  0.0935 -0.1670
  382loPI   C2A 6104   1.289  17.319   8.703 -0.0806  0.0119 -0.2238
  382loPI   C3A 6105   1.167  17.428   8.258  0.1241 -0.1992  0.0714
  382loPI   C4A 6106   1.050  17.363   7.823  0.0105 -0.1134  0.2876
  382loPI   C5A 6107   1.200  17.372   7.497 -0.0991 -0.0946  0.0313
  382loPI   C6A 6108   1.654  17.422   7.370 -0.0239  0.0344  0.0385
  382loPI   C1B 6109   0.738  17.454   9.029  0.3863 -0.1537 -0.0778
  382loPI   C2B 6110   0.807  17.501   8.606  0.1434  0.0691  0.2908
  382loPI   C3B 6111   0.649  17.529   8.155  0.2104  0.2118 -0.0582
  382loPI   C4B 6112   0.546  17.630   7.696  0.1567  0.0154 -0.0332
  383loPI    C1 6113   2.420   8.593   9.742 -0.0399 -0.2452 -0.2890
  383loPI    C2 6114   2.048   8.552   9.883  0.1064  0.0092  0.1931
  383loPI    C3 6115   2.353   8.372  10.068  0.2347 -0.1543 -0.1681
  383loPI   PO4 6116   2.470   8.557   9.448 -0.0447 -0.0300 -0.2520
  383loPI   GL1 6117   2.526   8.568   8.995  0.0788 -0.1992 -0.2291
  383loPI   GL2 6118   2.254   8.760   8.932  0.2523 -0.2671  0.4612
  383loPI   C1A 6119   2.558   8.362   8.599 -0.0040 -0.0092  0.1806
  383loPI   C2A 6120   2.484   8.185   8.231 -0.1116 -0.0531  0.0971
  383loPI   C3A 6121   2.465   7.991   7.770 -0.3593 -0.0155 -0.1852
  383loPI   C4A 6122   2.717   8.259   7.489  0.0537  0.2600  0.1641
  383loPI   C5A 6123   3.044   8.476   7.238  0.1694  0.2366 -0.1842
  383loPI   C6A 6124   3.214   8.441   6.792  0.3591  0.0425  0.1778
  383loPI   C1B 6125   2.086   8.321   8.738  0.2013 -0.1239 -0.1242
  383loPI   C2B 6126   1.829   8.078   8.763 -0.0660  0.2475 -0.0044
  383loPI   C3B 6127   1.905   7.675   8.832 -0.0787  0.1981  0.3148
  383loPI   C4B 6128   1.574   7.352   8.836 -0.1694  0.0260  0.2584
  384loPI    C1 6129   3.119   5.875  10.260 -0.0967  0.0186 -0.2269
  384loPI    C2 6130   2.724   5.897  10.322 -0.0420  0.2609  0.0613
  384loPI    C3 6131   2.967   5.777  10.617  0.1095  0.2043 -0.0848
  384loPI   PO4 6132   3.209   5.683  10.078 -0.0336  0.3408  0.0910
  384loPI   GL1 6133   3.114   5.614   9.722 -0.1227  0.0118  0.1058
  384loPI   GL2 6134   3.238   5.357   9.617  0.2170  0.0166  0.1414
  384loPI   C1A 6135   3.100   5.701   9.160  0.0384 -0.1357  0.1411
  384loPI   C2A 6136   3.189   5.504   8.884  0.0617 -0.0034 -0.2232
  384loPI   C3A 6137   3.196   5.254   8.553 -0.3034 -0.2168 -0.0488
  384loPI   C4A 6138   3.260   5.250   8.113 -0.1572 -0.0304 -0.0814
  384loPI   C5A 6139   3.160   5.086   7.613 -0.3973 -0.1152  0.0656
  384loPI   C6A 6140   3.267   5.234   7.196 -0.0265 -0.3507  0.0703
  384loPI   C1B 6141   2.977   5.198   9.285  0.4285  0.0250 -0.3775
  384loPI   C2B 6142   2.906   5.094   8.928 -0.3390 -0.0488  0.1447
  384loPI   C3B 6143   2.839   4.902   8.474  0.0952 -0.0287  0.0931
  384loPI   C4B 6144   3.141   4.750   8.225 -0.0086 -0.0791  0.2364
  385loPI    C1 6145   1.605  14.188   9.355 -0.2200 -0.3671  0.1585
  385loPI    C2 6146   1.651  14.434   9.667 -0.1687 -0.2317  0.0456
  385loPI    C3 6147   1.829  14.076   9.667 -0.0376 -0.1672  0.1021
  385loPI   PO4 6148   1.627  14.254   9.175 -0.0673  0.1184  0.1996
  385loPI   GL1 6149   1.614  14.575   8.845  0.0763  0.2125  0.1177
  385loPI   GL2 6150   1.877  14.736   8.845  0.0777  0.0549  0.0070
  385loPI   C1A 6151   1.319  14.439   8.499  0.1087  0.0690  0.0340
  385loPI   C2A 6152   1.385  14.453   8.041  0.2013 -0.0262  0.1589
  385loPI   C3A 6153   1.583  14.583   7.679  0.0316  0.0680 -0.1614
  385loPI   C4A 6154   1.740  14.735   7.375  0.1429 -0.1707 -0.1577
  385loPI   C5A 6155   2.025  14.953   7.187  0.0051 -0.0090 -0.0391
  385loPI   C6A 6156   2.300  15.265   6.976 -0.0503 -0.1255 -0.2741
  385loPI   C1B 6157   1.821  14.636   8.401 -0.1818 -0.1061 -0.4165
  385loPI   C2B 6158   1.749  14.844   8.084 -0.1885 -0.1459  0.2126
  385loPI   C3B 6159   2.037  14.893   7.728 -0.0386  0.1286 -0.4089
  385loPI   C4B 6160   2.415  15.106   7.507 -0.1703  0.0984 -0.1200
  386loPI    C1 6161   5.165   2.102  10.257  0.0811  0.1170 -0.1693
  386loPI    C2 6162   4.851   2.169  10.018 -0.1342  0.2761  0.1517
  386loPI    C3 6163   4.810   2.196  10.415  0.1800 -0.1415  0.2201
  386loPI   PO4 6164   5.216   1.846  10.164  0.2467  0.1071  0.0628
  386loPI   GL1 6165   5.437   1.808   9.844  0.1006  0.0390 -0.2733
  386loPI   GL2 6166   5.722   1.828   9.768 -0.1198 -0.1686  0.0124
  386loPI   C1A 6167   5.367   1.873   9.372 -0.0910  0.0063  0.1059
  386loPI   C2A 6168   5.354   1.885   8.937 -0.0924 -0.0841  0.0902
  386loPI   C3A 6169   5.392   2.039   8.580  0.1989 -0.1675  0.2096
  386loPI   C4A 6170   5.482   2.055   8.062 -0.2988 -0.0682  0.0890
  386loPI   C5A 6171   5.399   1.856   7.658  0.2011  0.1419  0.1968
  386loPI   C6A 6172   5.119   1.783   7.329 -0.0113  0.0904 -0.0135
  386loPI   C1B 6173   5.852   1.839   9.283 -0.3047  0.2125 -0.4414
  386loPI   C2B 6174   5.928   1.948   8.806  0.0485  0.0025 -0.2400
  386loPI   C3B 6175   5.872   1.966   8.350 -0.2010  0.1265 -0.1743
  386loPI   C4B 6176   6.143   2.121   8.058  0.0648  0.1265 -0.1026
  387loPI    C1 6177   9.330   0.982  10.150 -0.1586  0.1119 -0.0237
  387loPI    C2 6178   9.339   0.643   9.938  0.0097  0.2900 -0.3070
  387loPI    C3 6179   9.675   0.785  10.103 -0.1589  0.0316  0.2850
  387loPI   PO4 6180   9.219   1.191  10.032 -0.2692  0.1097 -0.0336
  387loPI   GL1 6181   9.089   1.314   9.613 -0.1241  0.0632 -0.3183
  387loPI   GL2 6182   9.112   1.034   9.566 -0.4801 -0.2776  0.1366
  387loPI   C1A 6183   8.824   1.620   9.339 -0.2703 -0.2363 -0.0584
  387loPI   C2A 6184   8.664   1.604   8.899 -0.0764  0.1470  0.0650
  387loPI   C3A 6185   8.801   1.646   8.461 -0.2609 -0.1456  0.3792
  387loPI   C4A 6186   8.840   1.494   8.013 -0.0422 -0.2480 -0.0815
  387loPI   C5A 6187   8.630   1.538   7.703  0.2659  0.2038 -0.1036
  387loPI   C6A 6188   8.484   1.607   7.209 -0.0965 -0.0714 -0.0636
  387loPI   C1B 6189   9.024   1.173   9.120  0.2275  0.1096  0.1483
  387loPI   C2B 6190   8.962   1.186   8.781  0.0860 -0.0771  0.3526
  387loPI   C3B 6191   8.922   1.125   8.331 -0.0405  0.3153  0.1948
  387loPI   C4B 6192   9.103   1.038   7.999 -0.0973 -0.0563  0.1110
  388loPI    C1 6193  11.435  17.194  10.003 -0.0086 -0.3203  0.2831
  388loPI    C2 6194  11.485  17.553  10.171 -0.0770 -0.1679 -0.0151
  388loPI    C3 6195  11.149  17.347  10.237 -0.2223  0.0123 -0.1796
  388loPI   PO4 6196  11.488  17.126   9.731  0.1405 -0.0916  0.1950
  388loPI   GL1 6197  11.383  16.954   9.404 -0.6166  0.1817  0.1715
  388loPI   GL2 6198  11.748  16.846   9.285  0.0232 -0.1567  0.1078
  388loPI   C1A 6199  11.262  17.120   8.993 -0.0983  0.1530  0.0660
  388loPI   C2A 6200  11.177  16.755   8.575 -0.1021 -0.3053  0.1603
  388loPI   C3A 6201  11.452  16.693   8.290  0.1583 -0.1277 -0.1097
  388loPI   C4A 6202  11.636  16.820   7.899 -0.1073 -0.2492 -0.1739
  388loPI   C5A 6203  11.589  16.888   7.414  0.1131 -0.1348 -0.0876
  388loPI   C6A 6204  11.323  17.011   7.105 -0.1763 -0.2430 -0.3690
  388loPI   C1B 6205  11.590  16.729   8.911 -0.1373  0.0298 -0.1162
  388loPI   C2B 6206  11.869  16.827   8.531  0.0775 -0.0307 -0.0259
  388loPI   C3B 6207  11.986  17.041   8.232 -0.0182  0.0844 -0.3167
  388loPI   C4B 6208  12.137  16.931   7.840 -0.1717  0.1892 -0.0269
  389loPI    C1 6209  17.192   4.274   9.982 -0.1854  0.0641  0.1017
  389loPI    C2 6210  17.513   4.151  10.186 -0.4171 -0.0820  0.3867
  389loPI    C3 6211  17.473   4.537  10.090 -0.1309 -0.0719  0.2964
  389loPI   PO4 6212  17.254   3.962   9.805 -0.1670 -0.0262  0.4392
  389loPI   GL1 6213  17.111   3.871   9.425 -0.1115  0.3047 -0.1504
  389loPI   GL2 6214  17.485   3.895   9.336  0.2905  0.1921 -0.3171
  389loPI   C1A 6215  16.933   4.062   9.066 -0.0271  0.0613 -0.3844
  389loPI   C2A 6216  16.838   4.103   8.604  0.0099  0.0043 -0.0727
  389loPI   C3A 6217  16.882   4.173   8.217  0.2204  0.2273 -0.2158
  389loPI   C4A 6218  16.691   4.361   7.950 -0.3027 -0.0935  0.4193
  389loPI   C5A 6219  16.746   4.395   7.540  0.2736 -0.1249 -0.2756
  389loPI   C6A 6220  16.690   4.707   7.274  0.1211 -0.2671  0.3564
  389loPI   C1B 6221  17.472   3.954   9.010  0.0667  0.0271  0.2824
  389loPI   C2B 6222  17.371   3.845   8.523 -0.0076 -0.0831 -0.1315
  389loPI   C3B 6223  17.255   3.927   8.090 -0.1829 -0.1093 -0.1252
  389loPI   C4B 6224  17.154   4.196   7.720  0.1075  0.0928 -0.0331
  390loPI    C1 6225   0.474  12.942   9.650  0.0784 -0.0095  0.0094
  390loPI    C2 6226   0.726  13.245   9.717  0.0889  0.0292 -0.1989
  390loPI    C3 6227   0.533  13.075  10.023  0.1481  0.1890 -0.0709
  390loPI   PO4 6228   0.445  13.053   9.367  0.0573 -0.0782  0.1358
  390loPI   GL1 6229   0.499  13.239   8.967 -0.0469  0.0409 -0.0370
  390loPI   GL2 6230   0.486  12.950   8.872  0.0398  0.1763 -0.0762
  390loPI   C1A 6231   0.150  13.259   8.771  0.1388  0.0726  0.1534
  390loPI   C2A 6232  -0.099  13.428   8.402 -0.0564  0.2312  0.2402
  390loPI   C3A 6233  -0.233  13.201   8.048 -0.1471  0.3330  0.0326
  390loPI   C4A 6234  -0.370  12.892   7.845  0.0104 -0.3477  0.3625
  390loPI   C5A 6235  -0.403  12.710   7.426 -0.0505 -0.0716 -0.2670
  390loPI   C6A 6236  -0.523  12.348   7.416 -0.1699  0.0793 -0.0443
  390loPI   C1B 6237   0.533  12.977   8.376  0.0712 -0.2067 -0.0321
  390loPI   C2B 6238   0.195  12.984   7.983  0.0100 -0.0834  0.2023
  390loPI   C3B 6239   0.118  12.697   7.604 -0.1456  0.2576 -0.1171
  390loPI   C4B 6240   0.239  12.688   7.116 -0.0501 -0.2551  0.3106
  391loPI    C1 6241  18.332   0.361  10.159  0.2260 -0.0329 -0.0154
  391loPI    C2 6242  18.709   0.399  10.030  0.1808  0.0893 -0.1146
  391loPI    C3 6243  18.601   0.556  10.382  0.2661 -0.1059  0.0006
  391loPI   PO4 6244  18.160   0.382  10.023  0.3661 -0.0898 -0.2148
  391loPI   GL1 6245  18.187   0.442   9.543 -0.0207 -0.1628  0.1763
  391loPI   GL2 6246  18.447   0.293   9.606 -0.0961 -0.2122 -0.0242
  391loPI   C1A 6247  18.226   0.584   9.214  0.2595  0.0895 -0.1655
  391loPI   C2A 6248  17.989   0.600   8.883 -0.2023  0.0029  0.0028
  391loPI   C3A 6249  17.804   0.450   8.479  0.1407  0.2049  0.0426
  391loPI   C4A 6250  17.911   0.393   8.116  0.0749 -0.2294  0.1839
  391loPI   C5A 6251  18.145   0.284   7.717  0.1856  0.2319  0.1187
  391loPI   C6A 6252  18.435   0.200   7.375  0.0244 -0.1290  0.1457
  391loPI   C1B 6253  18.576   0.142   9.300  0.0293 -0.5652 -0.1484
  391loPI   C2B 6254  18.603  -0.001   8.934 -0.0719  0.0291 -0.1483
  391loPI   C3B 6255  18.829  -0.441   8.761 -0.0947  0.0557 -0.2589
  391loPI   C4B 6256  18.887  -0.834   8.456  0.0545 -0.0472 -0.1888
  392loPI    C1 6257   9.579   4.730  10.003 -0.0859  0.0976 -0.1986
  392loPI    C2 6258   9.184   4.689   9.955 -0.1084  0.0395  0.0246
  392loPI    C3 6259   9.330   4.820  10.303  0.0703  0.0534 -0.0544
  392loPI   PO4 6260   9.656   4.773   9.816  0.1437 -0.0956 -0.1456
  392loPI   GL1 6261   9.555   4.620   9.390  0.2291  0.4740 -0.0592
  392loPI   GL2 6262   9.304   4.734   9.473 -0.4006  0.2441  0.1582
  392loPI   C1A 6263   9.608   4.570   8.986 -0.2122 -0.1509  0.0809
  392loPI   C2A 6264   9.707   4.474   8.554 -0.5246 -0.2166  0.0972
  392loPI   C3A 6265   9.462   4.303   8.284  0.1403 -0.0199 -0.0824
  392loPI   C4A 6266   9.105   4.070   8.387  0.3005  0.1484 -0.1953
  392loPI   C5A 6267   8.970   3.892   8.740 -0.2976  0.1750 -0.3131
  392loPI   C6A 6268   9.078   3.741   9.191  0.0683  0.1146 -0.0338
  392loPI   C1B 6269   9.191   4.799   9.030 -0.0405  0.0975  0.1731
  392loPI   C2B 6270   9.032   4.944   8.701  0.2176  0.1763 -0.2635
  392loPI   C3B 6271   8.826   5.098   8.303 -0.1154  0.0392  0.1901
  392loPI   C4B 6272   8.870   5.381   7.853 -0.1078 -0.2103  0.0914
  393loPI    C1 6273  12.476  19.539   9.955 -0.2195 -0.2845  0.2025
  393loPI    C2 6274  12.833  19.385   9.860 -0.0964 -0.0015  0.1956
  393loPI    C3 6275  12.529  19.143   9.954 -0.0720 -0.2729 -0.3806
  393loPI   PO4 6276  12.346  19.637   9.782 -0.2458  0.2224 -0.3027
  393loPI   GL1 6277  12.186  19.790   9.400 -0.0571 -0.0400  0.0752
  393loPI   GL2 6278  11.941  19.879   9.159  0.1882  0.0227  0.1103
  393loPI   C1A 6279  12.500  19.613   8.995 -0.0140  0.2643  0.5459
  393loPI   C2A 6280  12.506  19.511   8.560  0.4811 -0.3334 -0.1265
  393loPI   C3A 6281  12.705  19.406   8.234 -0.0116 -0.1567 -0.1293
  393loPI   C4A 6282  12.998  19.705   8.095  0.1142  0.0863  0.0033
  393loPI   C5A 6283  13.277  19.766   7.771  0.4915  0.0525 -0.0944
  393loPI   C6A 6284  13.720  19.630   7.727 -0.1470 -0.1330  0.1436
  393loPI   C1B 6285  12.184  19.893   8.706 -0.0732 -0.2323  0.0750
  393loPI   C2B 6286  12.093  19.726   8.253  0.0614  0.1515  0.1271
  393loPI   C3B 6287  12.015  19.763   7.784 -0.1482 -0.0376  0.2112
  393loPI   C4B 6288  11.734  19.662   7.476 -0.2056  0.3891 -0.2356
  394loPI    C1 6289   5.144   3.119  10.167  0.0231  0.1186 -0.0617
  394loPI    C2 6290   5.112   3.371  10.476 -0.1645 -0.0869  0.0899
  394loPI    C3 6291   5.215   2.990  10.539  0.1664 -0.0409 -0.1429
  394loPI   PO4 6292   4.909   3.030  10.033 -0.0433 -0.1721  0.3137
  394loPI   GL1 6293   4.446   3.013   9.855 -0.0100  0.1569 -0.0519
  394loPI   GL2 6294   4.442   3.231   9.613 -0.0435  0.1398 -0.0182
  394loPI   C1A 6295   4.376   2.815   9.399  0.0662  0.0075 -0.3566
  394loPI   C2A 6296   4.399   2.828   8.911 -0.1469  0.2251  0.0790
  394loPI   C3A 6297   4.316   2.919   8.415 -0.3082  0.1647  0.0366
  394loPI   C4A 6298   4.276   2.797   8.006 -0.0093 -0.1578  0.3128
  394loPI   C5A 6299   4.251   3.017   7.599 -0.0262 -0.2684  0.0252
  394loPI   C6A 6300   4.007   3.145   7.289  0.1180  0.0613  0.2447
  394loPI   C1B 6301   4.593   3.208   9.141 -0.0777 -0.0117 -0.0762
  394loPI   C2B 6302   4.664   3.296   8.857  0.4108 -0.0386  0.0998
  394loPI   C3B 6303   4.619   3.349   8.459 -0.0838 -0.0288  0.0556
  394loPI   C4B 6304   4.521   3.229   8.025  0.0813  0.0044  0.0064
  395loPI    C1 6305  14.210  16.016  10.180 -0.2774  0.1967 -0.0455
  395loPI    C2 6306  14.111  15.772  10.481 -0.0744  0.0334 -0.1086
  395loPI    C3 6307  13.875  16.081  10.389 -0.0607  0.1783  0.3168
  395loPI   PO4 6308  14.291  15.782   9.977  0.1703  0.0632  0.0259
  395loPI   GL1 6309  14.214  15.850   9.527 -0.0800 -0.1422  0.0055
  395loPI   GL2 6310  14.568  16.057   9.489 -0.6221 -0.4088  0.3304
  395loPI   C1A 6311  14.337  15.498   9.294  0.1157 -0.0255  0.1419
  395loPI   C2A 6312  14.481  15.435   8.874 -0.0245 -0.2317 -0.4504
  395loPI   C3A 6313  14.787  15.429   8.584 -0.1534  0.0270 -0.3368
  395loPI   C4A 6314  14.932  15.703   8.293  0.2168 -0.0356  0.0122
  395loPI   C5A 6315  15.312  15.866   7.926 -0.0372  0.0338 -0.1754
  395loPI   C6A 6316  15.395  15.727   7.510 -0.0951  0.1417  0.1361
  395loPI   C1B 6317  14.825  15.661   9.360 -0.1853  0.1332  0.1351
  395loPI   C2B 6318  15.103  15.584   8.966 -0.1744  0.2766 -0.2724
  395loPI   C3B 6319  15.205  15.845   8.709  0.0702 -0.4508  0.2998
  395loPI   C4B 6320  15.232  16.054   8.376 -0.2371 -0.0599 -0.1202
  396loPI    C1 6321   7.433   3.901  10.227 -0.1377 -0.0594 -0.0120
  396loPI    C2 6322   7.647   3.657  10.461 -0.0339 -0.0954 -0.1428
  396loPI    C3 6323   7.499   3.998  10.609  0.2702  0.0198 -0.0978
  396loPI   PO4 6324   7.629   3.958  10.007  0.2473 -0.1016  0.1260
  396loPI   GL1 6325   7.685   3.889   9.563  0.1632  0.2190  0.1505
  396loPI   GL2 6326   7.757   3.618   9.457  0.2968  0.0037  0.0443
  396loPI   C1A 6327   7.409   3.908   9.236  0.1804  0.0401 -0.1454
  396loPI   C2A 6328   7.290   3.883   8.812  0.2319  0.0815  0.1408
  396loPI   C3A 6329   7.182   3.987   8.417 -0.0926  0.0990  0.0560
  396loPI   C4A 6330   6.968   3.896   8.047  0.1304  0.3784 -0.0913
  396loPI   C5A 6331   6.737   3.794   7.709 -0.2086  0.1238  0.1162
  396loPI   C6A 6332   6.411   3.523   7.563 -0.0918  0.0121 -0.2219
  396loPI   C1B 6333   7.614   3.474   9.039 -0.0114 -0.3934 -0.4328
  396loPI   C2B 6334   7.372   3.426   8.646  0.0111  0.4372 -0.1305
  396loPI   C3B 6335   7.399   3.215   8.211 -0.2199 -0.1144  0.2351
  396loPI   C4B 6336   7.276   3.205   7.929 -0.3880  0.0757  0.0966
  397loPI    C1 6337   2.251   2.356  10.243  0.1440  0.0800 -0.0930
  397loPI    C2 6338   1.966   2.220  10.489 -0.0332  0.2351 -0.2101
  397loPI    C3 6339   2.348   2.223  10.608 -0.0845  0.0646 -0.0364
  397loPI   PO4 6340   2.156   2.423  10.021 -0.0318 -0.0445 -0.0805
  397loPI   GL1 6341   1.964   2.451   9.531 -0.0670  0.0931  0.3381
  397loPI   GL2 6342   1.738   2.278   9.630  0.0072 -0.3860  0.0442
  397loPI   C1A 6343   2.111   2.353   9.080 -0.0295  0.1399 -0.0900
  397loPI   C2A 6344   2.062   2.333   8.622  0.1519  0.0754 -0.0347
  397loPI   C3A 6345   1.928   2.311   8.188 -0.1125 -0.1147  0.0587
  397loPI   C4A 6346   2.032   2.105   7.845 -0.0885  0.1019  0.3478
  397loPI   C5A 6347   2.375   1.823   7.562  0.0145  0.1358  0.1456
  397loPI   C6A 6348   2.654   1.966   7.257 -0.1495  0.0059  0.1085
  397loPI   C1B 6349   1.860   1.961   9.320 -0.2173  0.1168 -0.0009
  397loPI   C2B 6350   1.910   1.856   8.812  0.2943  0.1691 -0.1445
  397loPI   C3B 6351   1.767   1.881   8.397 -0.1601  0.1295  0.2841
  397loPI   C4B 6352   1.661   1.796   7.947 -0.1301  0.1040 -0.2059
  398loPI    C1 6353   7.659  11.268   9.800 -0.3243  0.2474  0.1158
  398loPI    C2 6354   7.335  11.207   9.573 -0.2989 -0.2521  0.2019
  398loPI    C3 6355   7.355  11.049   9.940  0.0258 -0.1916  0.2132
  398loPI   PO4 6356   7.814  11.244   9.658  0.2291  0.4042 -0.2124
  398loPI   GL1 6357   7.655  11.172   9.203 -0.1093 -0.1280 -0.0655
  398loPI   GL2 6358   7.924  11.381   9.187  0.1195  0.2288  0.0018
  398loPI   C1A 6359   7.829  10.978   8.802  0.1421  0.3463 -0.1486
  398loPI   C2A 6360   7.792  10.999   8.378  0.3031 -0.2157 -0.0660
  398loPI   C3A 6361   7.490  11.317   8.163  0.3163  0.0929  0.0345
  398loPI   C4A 6362   7.260  11.502   7.845 -0.2489 -0.1056  0.1037
  398loPI   C5A 6363   7.283  11.880   7.551  0.2991 -0.1334  0.1192
  398loPI   C6A 6364   7.304  12.138   7.112  0.1376  0.0496  0.1272
  398loPI   C1B 6365   8.276  11.289   8.832  0.1670  0.1122 -0.0797
  398loPI   C2B 6366   8.361  11.287   8.531  0.2107 -0.1966  0.0603
  398loPI   C3B 6367   8.613  11.415   8.286 -0.0021  0.0111 -0.0453
  398loPI   C4B 6368   8.770  11.578   7.957 -0.0592 -0.2662 -0.0739
  399loPI    C1 6369   4.353   0.314  10.233 -0.2846 -0.0927 -0.0132
  399loPI    C2 6370   4.157   0.331  10.581 -0.0357 -0.2917  0.1402
  399loPI    C3 6371   4.555   0.370  10.574 -0.0514 -0.1612 -0.1376
  399loPI   PO4 6372   4.126   0.360  10.105  0.0672  0.2944 -0.2513
  399loPI   GL1 6373   4.223   0.453   9.577  0.3584 -0.1011 -0.1865
  399loPI   GL2 6374   4.014   0.650   9.467 -0.1902  0.1545  0.3661
  399loPI   C1A 6375   4.477   0.569   9.300  0.1464  0.3423  0.1665
  399loPI   C2A 6376   4.557   0.621   8.871  0.0465 -0.0479  0.1973
  399loPI   C3A 6377   4.558   0.640   8.461  0.0958 -0.1367 -0.0625
  399loPI   C4A 6378   4.652   0.596   8.075 -0.1400  0.2014 -0.0109
  399loPI   C5A 6379   4.550   0.509   7.718  0.0530  0.0018 -0.0262
  399loPI   C6A 6380   4.617   0.395   7.250 -0.0037 -0.1792  0.2663
  399loPI   C1B 6381   4.032   0.570   9.064 -0.1459 -0.1285  0.3581
  399loPI   C2B 6382   4.080   0.588   8.619  0.2121 -0.0672  0.2332
  399loPI   C3B 6383   4.123   0.620   8.211 -0.1984 -0.0174  0.1542
  399loPI   C4B 6384   4.075   0.560   7.782 -0.0120 -0.0707 -0.0738
  400loPI    C1 6385  13.907   7.095  10.189 -0.1256 -0.2756 -0.0477
  400loPI    C2 6386  13.866   7.206  10.571 -0.1104  0.0005 -0.1240
  400loPI    C3 6387  13.996   6.838  10.483  0.1204  0.0153  0.1384
  400loPI   PO4 6388  13.679   7.181  10.050 -0.1511  0.2061  0.2789
  400loPI   GL1 6389  13.472   7.170   9.610 -0.0431  0.0714 -0.1380
  400loPI   GL2 6390  13.237   7.304   9.532 -0.0801 -0.0341  0.0427
  400loPI   C1A 6391  13.593   6.917   9.307  0.1949  0.1405  0.0211
  400loPI   C2A 6392  13.585   6.822   8.891 -0.1076 -0.0899  0.0712
  400loPI   C3A 6393  13.521   6.854   8.484 -0.0379 -0.2716  0.0055
  400loPI   C4A 6394  13.455   6.992   8.093  0.1596 -0.0231 -0.0023
  400loPI   C5A 6395  13.255   7.274   7.792 -0.0381 -0.1579 -0.0425
  400loPI   C6A 6396  13.232   7.475   7.339 -0.0423 -0.0387 -0.2701
  400loPI   C1B 6397  13.103   7.126   9.062  0.0116  0.1403 -0.1542
  400loPI   C2B 6398  13.230   7.378   8.633 -0.1968 -0.3260 -0.3205
  400loPI   C3B 6399  13.143   7.422   8.283 -0.1938 -0.1283  0.1526
  400loPI   C4B 6400  12.847   7.087   8.041  0.2799 -0.1967  0.2083
  401loPI    C1 6401  17.064  13.346   9.686  0.1087 -0.2541  0.0598
  401loPI    C2 6402  16.954  13.237  10.055 -0.1141 -0.0689  0.0506
  401loPI    C3 6403  16.820  13.033   9.738 -0.3019  0.0546  0.0489
  401loPI   PO4 6404  17.349  13.381   9.685 -0.1951  0.2905  0.0122
  401loPI   GL1 6405  17.512  13.347   9.313 -0.3546  0.1096  0.0184
  401loPI   GL2 6406  17.469  13.658   9.206 -0.0148 -0.1690 -0.4823
  401loPI   C1A 6407  17.479  13.364   8.842  0.3363 -0.0165 -0.1742
  401loPI   C2A 6408  17.416  13.567   8.426 -0.2772  0.1084 -0.1011
  401loPI   C3A 6409  17.473  13.700   8.047  0.1909 -0.1123  0.3135
  401loPI   C4A 6410  17.700  13.845   7.751 -0.2129  0.1486  0.0119
  401loPI   C5A 6411  17.682  14.208   7.402 -0.2717  0.1395  0.1905
  401loPI   C6A 6412  17.550  14.448   7.059 -0.3616 -0.2366  0.0459
  401loPI   C1B 6413  17.785  13.959   8.958  0.1366 -0.3350  0.0426
  401loPI   C2B 6414  17.859  14.094   8.471  0.0734  0.0671 -0.1354
  401loPI   C3B 6415  17.983  14.156   8.025  0.0892  0.1565  0.0639
  401loPI   C4B 6416  18.134  14.441   7.721  0.2192  0.1799 -0.1114
  402loPI    C1 6417  15.676   5.888  10.006  0.0062  0.1326  0.0111
  402loPI    C2 6418  15.702   6.167  10.292 -0.2087 -0.0421  0.2047
  402loPI    C3 6419  15.777   5.784  10.379 -0.1651 -0.0813 -0.0007
  402loPI   PO4 6420  15.780   6.067   9.781  0.1470 -0.3808  0.1232
  402loPI   GL1 6421  15.900   5.986   9.369  0.3506  0.2662 -0.3026
  402loPI   GL2 6422  16.248   6.143   9.348  0.0829 -0.0801  0.1656
  402loPI   C1A 6423  15.829   6.011   8.932  0.1535  0.0148 -0.0760
  402loPI   C2A 6424  15.952   5.780   8.589  0.0521 -0.0546  0.1631
  402loPI   C3A 6425  15.981   5.610   8.172 -0.3658 -0.2233  0.0612
  402loPI   C4A 6426  15.979   5.578   7.727  0.0143 -0.2507  0.1198
  402loPI   C5A 6427  16.006   5.244   7.382 -0.1555  0.1498 -0.0726
  402loPI   C6A 6428  16.299   4.956   7.442  0.2487  0.2361  0.2090
  402loPI   C1B 6429  16.171   6.378   8.936  0.0946  0.1554  0.0919
  402loPI   C2B 6430  15.971   6.370   8.535  0.0588  0.1238  0.2244
  402loPI   C3B 6431  15.621   6.462   8.170  0.2301 -0.1272  0.1287
  402loPI   C4B 6432  15.396   6.406   7.753  0.1673  0.1627  0.0184
  403loPI    C1 6433  18.660  12.469   9.661  0.3048  0.0125 -0.0233
  403loPI    C2 6434  18.609  12.709   9.976  0.0506 -0.2728  0.1580
  403loPI    C3 6435  18.769  12.346  10.025  0.4442 -0.1433 -0.1161
  403loPI   PO4 6436  18.521  12.556   9.500 -0.2794  0.1704  0.3725
  403loPI   GL1 6437  18.119  12.527   9.333 -0.2752  0.1728  0.3287
  403loPI   GL2 6438  18.305  12.157   9.325  0.0039  0.3163  0.3178
  403loPI   C1A 6439  18.019  12.541   8.820 -0.0011  0.1075  0.0859
  403loPI   C2A 6440  18.158  12.517   8.419  0.4539 -0.1681  0.1553
  403loPI   C3A 6441  18.221  12.469   8.008 -0.1733  0.0529 -0.0991
  403loPI   C4A 6442  18.030  12.430   7.594  0.1136 -0.0085 -0.0862
  403loPI   C5A 6443  17.997  12.710   7.254 -0.0221 -0.1723  0.1126
  403loPI   C6A 6444  17.714  12.980   7.029  0.3651 -0.0201 -0.0283
  403loPI   C1B 6445  18.267  12.162   8.941  0.2059 -0.1242  0.1443
  403loPI   C2B 6446  18.572  12.283   8.584 -0.2953  0.1924  0.1080
  403loPI   C3B 6447  18.671  12.135   8.205  0.1868 -0.1631 -0.0229
  403loPI   C4B 6448  18.969  11.857   7.925  0.2735 -0.1821  0.0162
  404loPI    C1 6449   7.977  15.950   9.944  0.0306 -0.0951 -0.1451
  404loPI    C2 6450   8.297  15.835  10.156  0.0079  0.0620 -0.0245
  404loPI    C3 6451   8.048  15.561  10.004  0.1384 -0.0572 -0.0242
  404loPI   PO4 6452   8.026  16.104   9.742  0.0486  0.0489 -0.0361
  404loPI   GL1 6453   8.043  16.486   9.581  0.2596 -0.0971 -0.3369
  404loPI   GL2 6454   7.844  16.590   9.772 -0.1219  0.3532 -0.1581
  404loPI   C1A 6455   7.908  16.493   9.193 -0.0245 -0.2061  0.0742
  404loPI   C2A 6456   7.758  16.477   8.758  0.0253  0.0476  0.1655
  404loPI   C3A 6457   7.746  16.471   8.309  0.1082  0.1227  0.0823
  404loPI   C4A 6458   7.672  16.606   7.962 -0.1095  0.0942 -0.2273
  404loPI   C5A 6459   7.927  16.767   7.585 -0.1057 -0.1131 -0.2389
  404loPI   C6A 6460   8.243  16.935   7.399  0.2525 -0.2650  0.0759
  404loPI   C1B 6461   7.507  16.610   9.436  0.1644 -0.0273  0.1607
  404loPI   C2B 6462   7.515  16.740   9.037  0.1118 -0.0848  0.1131
  404loPI   C3B 6463   7.532  16.946   8.629 -0.0207  0.1307  0.1652
  404loPI   C4B 6464   7.283  17.006   8.175 -0.0634 -0.0162  0.0007
  405loPI    C1 6465   1.854   5.733  10.245  0.1659 -0.1109 -0.0173
  405loPI    C2 6466   1.711   5.418  10.446 -0.0361 -0.0035  0.0097
  405loPI    C3 6467   2.091   5.532  10.497  0.0262 -0.2169  0.0311
  405loPI   PO4 6468   1.799   5.697   9.997 -0.1552 -0.1596  0.0113
  405loPI   GL1 6469   1.574   5.621   9.623  0.2049  0.1584  0.1251
  405loPI   GL2 6470   1.323   5.814   9.432  0.3646 -0.3059 -0.1198
  405loPI   C1A 6471   1.535   5.238   9.405 -0.0670  0.2704 -0.2841
  405loPI   C2A 6472   1.573   5.174   8.925  0.0615 -0.0499 -0.0631
  405loPI   C3A 6473   1.418   5.039   8.580  0.1875  0.0124  0.1548
  405loPI   C4A 6474   1.348   5.043   8.202  0.0084  0.0696 -0.3835
  405loPI   C5A 6475   1.529   5.286   7.887  0.0059 -0.2655 -0.2402
  405loPI   C6A 6476   1.527   5.539   7.561  0.0211  0.2907  0.0800
  405loPI   C1B 6477   1.170   5.586   9.062 -0.0296 -0.1530 -0.1194
  405loPI   C2B 6478   1.202   5.499   8.552 -0.1610  0.0208 -0.2486
  405loPI   C3B 6479   1.191   5.512   8.118  0.2233 -0.2348  0.2125
  405loPI   C4B 6480   0.834   5.278   7.805 -0.0311 -0.2344 -0.1206
  406loPI    C1 6481  13.204  18.404   9.991  0.0537  0.0336 -0.1563
  406loPI    C2 6482  12.936  18.195  10.202 -0.1452  0.2212 -0.2198
  406loPI    C3 6483  13.269  18.330  10.379 -0.0064 -0.1589 -0.1818
  406loPI   PO4 6484  13.073  18.527   9.804  0.1005 -0.1254  0.0730
  406loPI   GL1 6485  12.915  18.439   9.474  0.2001 -0.1510  0.0559
  406loPI   GL2 6486  12.552  18.504   9.512  0.2462 -0.0049  0.1361
  406loPI   C1A 6487  12.871  18.286   9.070  0.0978 -0.0162  0.2624
  406loPI   C2A 6488  13.117  18.231   8.742  0.1051  0.3723  0.0415
  406loPI   C3A 6489  12.871  18.092   8.494  0.1070 -0.2212  0.2870
  406loPI   C4A 6490  12.894  17.936   8.110 -0.3372  0.2024 -0.2619
  406loPI   C5A 6491  12.947  17.737   7.664  0.0545 -0.0453 -0.1487
  406loPI   C6A 6492  12.796  17.535   7.309  0.0550 -0.1943  0.1018
  406loPI   C1B 6493  12.481  18.590   9.062 -0.3222 -0.0778 -0.1112
  406loPI   C2B 6494  12.776  18.603   8.730 -0.3012  0.0804  0.1126
  406loPI   C3B 6495  12.826  18.901   8.393  0.1479  0.1622 -0.0528
  406loPI   C4B 6496  12.982  19.031   7.979  0.2387  0.0420  0.3001
  407loPI    C1 6497  12.959   7.496  10.150 -0.1866 -0.0057  0.2876
  407loPI    C2 6498  13.321   7.541   9.985 -0.3109 -0.1036 -0.0181
  407loPI    C3 6499  13.189   7.807  10.253 -0.0409 -0.0303  0.0449
  407loPI   PO4 6500  12.877   7.385   9.845  0.0706  0.1630 -0.5811
  407loPI   GL1 6501  12.670   7.667   9.543  0.1676  0.2307 -0.0253
  407loPI   GL2 6502  12.318   7.640   9.558  0.0004 -0.0365  0.2668
  407loPI   C1A 6503  12.949   7.557   9.212  0.2797 -0.1194 -0.0715
  407loPI   C2A 6504  13.394   7.534   9.089 -0.1835  0.0023 -0.0649
  407loPI   C3A 6505  13.628   7.855   8.862  0.1668 -0.1036 -0.2580
  407loPI   C4A 6506  13.886   7.826   8.623 -0.0603  0.1842 -0.0270
  407loPI   C5A 6507  13.959   7.927   8.206 -0.2028 -0.1350 -0.1431
  407loPI   C6A 6508  13.826   8.115   7.895  0.2178 -0.0074  0.0923
  407loPI   C1B 6509  12.319   7.691   9.112  0.1055  0.0083 -0.3399
  407loPI   C2B 6510  12.196   7.863   8.758 -0.0379  0.0322 -0.1229
  407loPI   C3B 6511  12.111   7.588   8.360  0.3129 -0.0846 -0.0527
  407loPI   C4B 6512  11.951   7.192   8.324  0.3335  0.1986 -0.2103
  408loPI    C1 6513  15.149  14.172  10.239 -0.1332  0.1461  0.0809
  408loPI    C2 6514  15.341  13.821  10.244  0.0344  0.2359  0.0190
  408loPI    C3 6515  15.297  14.029  10.582  0.1308  0.2603  0.0167
  408loPI   PO4 6516  15.196  14.267  10.042 -0.4632 -0.4606 -0.0753
  408loPI   GL1 6517  15.319  14.290   9.530 -0.1310  0.1509 -0.1608
  408loPI   GL2 6518  14.962  14.231   9.538 -0.1683 -0.1187 -0.1622
  408loPI   C1A 6519  15.463  14.340   9.107 -0.0892 -0.2906 -0.1270
  408loPI   C2A 6520  15.621  14.320   8.634 -0.2507  0.0714 -0.3364
  408loPI   C3A 6521  15.839  14.482   8.280  0.1647  0.2259 -0.0240
  408loPI   C4A 6522  16.024  14.571   7.900 -0.1531 -0.2676  0.1191
  408loPI   C5A 6523  16.251  14.611   7.508  0.0215 -0.0790 -0.1351
  408loPI   C6A 6524  16.604  14.558   7.275  0.0133 -0.2162 -0.1299
  408loPI   C1B 6525  15.042  14.124   9.088 -0.0421 -0.0490  0.0841
  408loPI   C2B 6526  15.089  14.088   8.686 -0.0555  0.0661 -0.0443
  408loPI   C3B 6527  14.966  14.091   8.266  0.0916  0.1455  0.1230
  408loPI   C4B 6528  14.838  14.167   7.832  0.0377  0.0932  0.2685
  409loPI    C1 6529  11.446  15.220  10.149  0.0711  0.0496  0.0451
  409loPI    C2 6530  11.247  15.557  10.234 -0.2173 -0.0554 -0.1937
  409loPI    C3 6531  11.230  15.246  10.485 -0.1894  0.0055 -0.1160
  409loPI   PO4 6532  11.400  15.115   9.893 -0.1786 -0.0280 -0.1008
  409loPI   GL1 6533  11.251  15.287   9.464 -0.1200  0.0805  0.0789
  409loPI   GL2 6534  11.186  14.940   9.438  0.1205 -0.0955 -0.1426
  409loPI   C1A 6535  11.338  15.506   9.043 -0.1189 -0.2795  0.1976
  409loPI   C2A 6536  11.220  15.848   8.793 -0.1446 -0.2741  0.0223
  409loPI   C3A 6537  11.080  15.927   8.450  0.0094  0.1166 -0.0214
  409loPI   C4A 6538  11.008  16.018   8.057  0.1585 -0.3346  0.3766
  409loPI   C5A 6539  10.910  16.057   7.572 -0.0135 -0.1058 -0.1738
  409loPI   C6A 6540  10.813  15.920   7.118 -0.1369 -0.0391  0.0372
  409loPI   C1B 6541  11.071  15.105   9.014 -0.2180 -0.1178  0.0416
  409loPI   C2B 6542  11.114  15.308   8.674 -0.1223  0.1277  0.2389
  409loPI   C3B 6543  10.978  15.418   8.278  0.0236 -0.0607 -0.0821
  409loPI   C4B 6544  10.771  15.618   7.879  0.5933 -0.2142 -0.3583
  410loPI    C1 6545  15.065  12.278  10.261  0.2925  0.0843  0.1004
  410loPI    C2 6546  14.952  12.530  10.550  0.2767  0.2033 -0.0086
  410loPI    C3 6547  14.901  12.136  10.597 -0.0110  0.2425  0.0221
  410loPI   PO4 6548  14.991  12.370  10.006  0.0573  0.1811 -0.3102
  410loPI   GL1 6549  15.113  12.324   9.636  0.1057 -0.0212  0.3910
  410loPI   GL2 6550  15.324  12.480   9.552  0.0047 -0.0271 -0.1075
  410loPI   C1A 6551  14.833  12.319   9.369  0.3430  0.1401  0.1354
  410loPI   C2A 6552  14.399  12.270   9.062  0.0453 -0.3251 -0.1488
  410loPI   C3A 6553  14.323  12.288   8.621  0.1757 -0.1276 -0.0084
  410loPI   C4A 6554  14.199  12.306   8.151 -0.0886  0.3885 -0.3913
  410loPI   C5A 6555  14.068  12.310   7.708 -0.0881 -0.0672 -0.0471
  410loPI   C6A 6556  14.009  11.887   7.455 -0.1841 -0.1236 -0.3179
  410loPI   C1B 6557  15.187  12.442   9.053  0.2184  0.1535 -0.0636
  410loPI   C2B 6558  15.342  12.483   8.703  0.2880 -0.1182  0.2366
  410loPI   C3B 6559  15.198  12.336   8.297  0.2901 -0.0723  0.2165
  410loPI   C4B 6560  15.025  12.124   8.059  0.1437 -0.1054  0.0657
  411loPI    C1 6561  16.509   1.981   9.915  0.1344  0.0643 -0.1645
  411loPI    C2 6562  16.397   2.177  10.246 -0.0686  0.0683 -0.2344
  411loPI    C3 6563  16.575   1.820  10.275 -0.0583  0.0825 -0.1197
  411loPI   PO4 6564  16.622   2.166   9.787  0.1195  0.3186  0.1161
  411loPI   GL1 6565  16.503   2.154   9.358 -0.0194 -0.2480 -0.0401
  411loPI   GL2 6566  16.418   1.874   9.451 -0.0028  0.0694  0.1777
  411loPI   C1A 6567  16.398   2.254   8.889 -0.3283 -0.3504 -0.0129
  411loPI   C2A 6568  16.299   2.125   8.570 -0.2092 -0.2677  0.0428
  411loPI   C3A 6569  16.344   1.890   8.264 -0.0252 -0.0929  0.1743
  411loPI   C4A 6570  16.168   1.836   7.871  0.0416  0.1527 -0.4337
  411loPI   C5A 6571  16.216   1.540   7.553  0.0887 -0.0193  0.1529
  411loPI   C6A 6572  16.090   1.413   7.170  0.0184  0.1956 -0.1583
  411loPI   C1B 6573  16.253   1.793   9.027  0.1958 -0.3306 -0.1363
  411loPI   C2B 6574  16.282   1.598   8.665 -0.1905  0.0375  0.1165
  411loPI   C3B 6575  16.275   1.356   8.294 -0.1895 -0.1200  0.1080
  411loPI   C4B 6576  16.106   0.925   8.148  0.0276 -0.0647 -0.2100
  412loPI    C1 6577   3.577  18.792  10.167 -0.4470 -0.2246 -0.0384
  412loPI    C2 6578   3.421  18.765  10.534 -0.0230  0.1799  0.1825
  412loPI    C3 6579   3.782  18.610  10.459  0.0045  0.3255  0.0066
  412loPI   PO4 6580   3.273  18.768   9.962  0.2089  0.0637 -0.1108
  412loPI   GL1 6581   3.272  18.954   9.571  0.3995  0.1698 -0.1258
  412loPI   GL2 6582   3.341  18.695   9.401  0.1493  0.2109 -0.2240
  412loPI   C1A 6583   3.050  19.015   9.188  0.0816 -0.1313  0.1192
  412loPI   C2A 6584   3.150  19.100   8.844 -0.1060  0.2047  0.1105
  412loPI   C3A 6585   3.050  19.115   8.416  0.2949 -0.1451  0.0343
  412loPI   C4A 6586   2.959  19.121   7.965  0.0775  0.1278  0.0282
  412loPI   C5A 6587   2.821  19.185   7.543  0.1210  0.0859 -0.2291
  412loPI   C6A 6588   2.718  19.222   7.103 -0.0388 -0.0895  0.0533
  412loPI   C1B 6589   3.347  18.614   8.983  0.0680 -0.1784 -0.3274
  412loPI   C2B 6590   3.284  18.562   8.601 -0.0167 -0.0882 -0.0911
  412loPI   C3B 6591   3.246  18.683   8.151 -0.2402 -0.1186 -0.0296
  412loPI   C4B 6592   3.167  18.682   7.720 -0.0864 -0.0617 -0.2449
  413loPI    C1 6593  17.593  17.335  10.072 -0.0264  0.0308 -0.0713
  413loPI    C2 6594  17.452  17.078  10.344 -0.0392  0.2340  0.1171
  413loPI    C3 6595  17.670  17.393  10.461  0.1889  0.1721 -0.1329
  413loPI   PO4 6596  17.307  17.424   9.968  0.0238  0.0106  0.0756
  413loPI   GL1 6597  17.237  17.610   9.498 -0.0656  0.0997 -0.1295
  413loPI   GL2 6598  16.902  17.646   9.382 -0.1121  0.1182  0.0327
  413loPI   C1A 6599  17.313  17.401   9.093  0.0434  0.1010  0.1667
  413loPI   C2A 6600  17.145  17.519   8.622 -0.0679  0.2949 -0.2216
  413loPI   C3A 6601  17.031  17.583   8.230  0.0379  0.0109 -0.0256
  413loPI   C4A 6602  16.816  17.542   7.867  0.0972  0.1963  0.1245
  413loPI   C5A 6603  16.944  17.561   7.424  0.3201  0.0176  0.4337
  413loPI   C6A 6604  17.102  17.889   7.149 -0.1299  0.0595  0.0586
  413loPI   C1B 6605  16.843  17.611   8.986  0.2954  0.0541  0.1541
  413loPI   C2B 6606  16.597  17.668   8.570  0.0659  0.2630 -0.0973
  413loPI   C3B 6607  16.512  17.429   8.260 -0.1466  0.3104  0.1495
  413loPI   C4B 6608  16.193  17.194   8.103 -0.0316 -0.0325  0.1260
  414loPI    C1 6609   9.696   8.447   9.744  0.0502 -0.0952  0.3324
  414loPI    C2 6610   9.325   8.461   9.594  0.1988  0.0061 -0.0338
  414loPI    C3 6611   9.381   8.484   9.989 -0.1934 -0.1623  0.0364
  414loPI   PO4 6612   9.873   8.557   9.549 -0.1796  0.2708  0.0393
  414loPI   GL1 6613  10.128   8.775   9.257  0.2056 -0.3393 -0.2819
  414loPI   GL2 6614  10.422   8.894   9.191  0.0266 -0.1631  0.2020
  414loPI   C1A 6615  10.098   9.191   8.997 -0.1465 -0.2256 -0.0558
  414loPI   C2A 6616   9.894   9.108   8.581 -0.1444  0.0486 -0.1744
  414loPI   C3A 6617   9.514   8.969   8.401 -0.2266  0.0777  0.2273
  414loPI   C4A 6618   9.452   9.080   7.987  0.2397 -0.2472 -0.1444
  414loPI   C5A 6619   9.471   9.359   7.716  0.2288 -0.4124 -0.0287
  414loPI   C6A 6620   9.214   9.742   7.562  0.1959 -0.0678 -0.0084
  414loPI   C1B 6621  10.303   8.829   8.740  0.0869  0.4155 -0.0522
  414loPI   C2B 6622  10.377   8.831   8.240 -0.2892 -0.1615 -0.2020
  414loPI   C3B 6623  10.372   9.024   7.785 -0.1195 -0.0263 -0.2058
  414loPI   C4B 6624  10.232   9.083   7.295  0.2174 -0.0423 -0.2511
  415loPI    C1 6625  12.203   9.842  10.038 -0.0744  0.1553 -0.1117
  415loPI    C2 6626  12.581   9.949  10.113 -0.0800  0.2418 -0.2039
  415loPI    C3 6627  12.295  10.228  10.091 -0.1586  0.1717 -0.0839
  415loPI   PO4 6628  12.241   9.661   9.846  0.1227 -0.0157 -0.0036
  415loPI   GL1 6629  12.191   9.814   9.428 -0.1934  0.0180  0.0731
  415loPI   GL2 6630  12.205   9.509   9.260  0.0205  0.1010  0.1320
  415loPI   C1A 6631  12.409   9.866   8.953 -0.0120 -0.1212 -0.1455
  415loPI   C2A 6632  12.583   9.958   8.643 -0.1090  0.0909 -0.2074
  415loPI   C3A 6633  12.712  10.038   8.278 -0.0930  0.0970 -0.2042
  415loPI   C4A 6634  13.122   9.960   8.123  0.0119  0.3026  0.0148
  415loPI   C5A 6635  13.234  10.341   7.935 -0.2887 -0.3109  0.2516
  415loPI   C6A 6636  13.124  10.577   8.312 -0.0626 -0.0304  0.0910
  415loPI   C1B 6637  11.958   9.673   9.025  0.2005  0.0560 -0.0226
  415loPI   C2B 6638  11.802   9.787   8.557  0.1210 -0.4435 -0.0560
  415loPI   C3B 6639  11.399  10.078   8.601 -0.3230  0.2671 -0.1671
  415loPI   C4B 6640  11.145  10.415   8.807 -0.2249 -0.0032  0.2752
  416loPI    C1 6641   0.618   4.642  10.144 -0.0606  0.1496  0.0268
  416loPI    C2 6642   0.323   4.687  10.412  0.0059  0.1524  0.1000
  416loPI    C3 6643   0.681   4.853  10.479  0.0961 -0.0494  0.1246
  416loPI   PO4 6644   0.534   4.641   9.946  0.0531 -0.2228  0.0505
  416loPI   GL1 6645   0.436   4.581   9.588  0.2581  0.2501  0.3378
  416loPI   GL2 6646   0.709   4.371   9.570  0.3127  0.0859  0.4872
  416loPI   C1A 6647   0.359   4.678   9.227 -0.2957 -0.0585 -0.5248
  416loPI   C2A 6648   0.433   4.772   8.793  0.1098 -0.0160  0.0279
  416loPI   C3A 6649   0.446   4.609   8.398 -0.2854 -0.0596  0.3067
  416loPI   C4A 6650   0.519   4.430   7.976 -0.0820 -0.0261  0.1330
  416loPI   C5A 6651   0.779   4.521   7.596  0.0553  0.0080  0.1370
  416loPI   C6A 6652   1.106   4.357   7.522  0.0877  0.2054 -0.0966
  416loPI   C1B 6653   0.634   4.177   9.143 -0.1805 -0.2010 -0.1682
  416loPI   C2B 6654   0.711   4.276   8.747  0.0981  0.1416  0.1851
  416loPI   C3B 6655   0.792   4.090   8.386  0.1665  0.1804 -0.0372
  416loPI   C4B 6656   0.935   3.973   8.014  0.0345 -0.1841  0.0535
  417loPI    C1 6657  17.794  12.493   9.900  0.1418  0.0522  0.0124
  417loPI    C2 6658  17.603  12.537  10.248  0.3562 -0.1315  0.1561
  417loPI    C3 6659  17.705  12.172  10.121  0.0814 -0.0867 -0.2098
  417loPI   PO4 6660  17.678  12.596   9.623  0.0142 -0.1776  0.2053
  417loPI   GL1 6661  17.699  12.723   9.186  0.1517  0.3417 -0.0599
  417loPI   GL2 6662  17.841  12.953   9.288 -0.2375 -0.0458  0.6612
  417loPI   C1A 6663  17.331  12.923   8.951 -0.2141 -0.0672 -0.1455
  417loPI   C2A 6664  17.295  13.049   8.542 -0.1935 -0.1998 -0.1807
  417loPI   C3A 6665  17.268  12.958   8.101  0.0469 -0.0608 -0.1579
  417loPI   C4A 6666  17.089  13.124   7.764  0.0623  0.3023 -0.0338
  417loPI   C5A 6667  16.910  13.475   7.507  0.0790  0.2087 -0.2134
  417loPI   C6A 6668  16.468  13.537   7.322 -0.4674  0.0873 -0.1559
  417loPI   C1B 6669  17.864  13.042   8.830 -0.1562 -0.0798 -0.0748
  417loPI   C2B 6670  17.810  13.176   8.443 -0.1540  0.1394  0.2810
  417loPI   C3B 6671  17.769  13.302   8.026 -0.3768 -0.2958  0.0238
  417loPI   C4B 6672  17.471  13.418   7.634 -0.0899  0.0214  0.0516
  418loPI    C1 6673  18.139  13.656   9.697 -0.0738  0.1696 -0.0327
  418loPI    C2 6674  17.892  13.517   9.979 -0.0801 -0.3599 -0.2873
  418loPI    C3 6675  18.253  13.657  10.081 -0.2230 -0.2039  0.0166
  418loPI   PO4 6676  17.994  13.482   9.444  0.1357 -0.1169 -0.0363
  418loPI   GL1 6677  18.182  13.618   9.050  0.1908  0.0684 -0.0148
  418loPI   GL2 6678  18.240  13.317   8.960 -0.0593 -0.0431  0.3286
  418loPI   C1A 6679  18.013  13.633   8.647  0.3369 -0.1343 -0.2653
  418loPI   C2A 6680  17.925  13.652   8.304 -0.2205 -0.1883  0.1891
  418loPI   C3A 6681  18.160  13.616   8.023 -0.1480  0.0358  0.1360
  418loPI   C4A 6682  18.437  13.577   7.682 -0.0071 -0.1464 -0.0143
  418loPI   C5A 6683  18.724  13.883   7.516 -0.3572  0.0978 -0.0567
  418loPI   C6A 6684  19.170  14.081   7.352  0.0122 -0.1462 -0.0181
  418loPI   C1B 6685  18.404  13.329   8.591  0.2429 -0.3015 -0.0087
  418loPI   C2B 6686  18.677  13.598   8.369  0.1691  0.0605 -0.1274
  418loPI   C3B 6687  18.968  13.657   8.012  0.2258  0.1766  0.0012
  418loPI   C4B 6688  19.235  13.690   7.723  0.3225 -0.0286 -0.0738
  419loPI    C1 6689  14.648   8.738   9.788  0.0144 -0.1297 -0.1365
  419loPI    C2 6690  14.485   8.942  10.091  0.1549  0.1395 -0.2393
  419loPI    C3 6691  14.570   8.554  10.135 -0.0336  0.1218 -0.0114
  419loPI   PO4 6692  14.580   8.825   9.618  0.1355  0.0992  0.0895
  419loPI   GL1 6693  14.408   8.619   9.267 -0.2123  0.0120 -0.0286
  419loPI   GL2 6694  14.489   8.300   9.220  0.0223 -0.0005 -0.1987
  419loPI   C1A 6695  14.365   8.723   8.809  0.4601  0.0413 -0.1151
  419loPI   C2A 6696  14.415   8.794   8.364 -0.0135 -0.0038  0.0151
  419loPI   C3A 6697  14.420   8.729   7.938 -0.1473 -0.0533 -0.0315
  419loPI   C4A 6698  14.453   8.739   7.551  0.2472 -0.0941 -0.0312
  419loPI   C5A 6699  14.479   9.210   7.338 -0.1179  0.0092  0.0135
  419loPI   C6A 6700  14.427   9.562   7.199  0.1081  0.0647  0.2185
  419loPI   C1B 6701  14.669   8.375   8.825  0.0118 -0.0137 -0.2287
  419loPI   C2B 6702  14.804   8.239   8.485  0.1157 -0.2275 -0.0372
  419loPI   C3B 6703  14.770   8.233   8.033  0.0655 -0.1011  0.0074
  419loPI   C4B 6704  14.655   8.204   7.593  0.2523 -0.0332 -0.0094
  420loPI    C1 6705   9.811  18.603   9.806 -0.1366 -0.1319  0.0641
  420loPI    C2 6706   9.942  18.451  10.152 -0.0648  0.0466  0.1162
  420loPI    C3 6707   9.729  18.789  10.150  0.3488  0.3149 -0.0492
  420loPI   PO4 6708   9.752  18.335   9.722 -0.0432  0.0628 -0.2298
  420loPI   GL1 6709   9.865  18.041   9.402  0.0329 -0.0054 -0.1365
  420loPI   GL2 6710  10.015  17.660   9.249 -0.1282 -0.0053  0.0189
  420loPI   C1A 6711  10.146  18.113   9.068 -0.0703 -0.0672  0.3086
  420loPI   C2A 6712  10.014  18.327   8.596  0.1014 -0.0298 -0.1295
  420loPI   C3A 6713   9.815  18.426   8.190  0.4703 -0.2568  0.1948
  420loPI   C4A 6714   9.802  18.693   7.742  0.1383  0.5196  0.0464
  420loPI   C5A 6715   9.979  18.824   7.386 -0.3033 -0.1891  0.0965
  420loPI   C6A 6716  10.145  19.209   7.131 -0.2407  0.0654 -0.1412
  420loPI   C1B 6717  10.347  17.653   8.891 -0.2799 -0.1927 -0.0493
  420loPI   C2B 6718  10.257  17.778   8.522  0.0572 -0.0330  0.0771
  420loPI   C3B 6719  10.100  17.667   8.131  0.0118 -0.1857 -0.1932
  420loPI   C4B 6720   9.883  17.977   7.837 -0.3435  0.0010  0.0329
  421loPI    C1 6721  19.264  16.653   9.489 -0.0387  0.1778 -0.2125
  421loPI    C2 6722  19.285  16.468   9.135  0.2824 -0.4008  0.0946
  421loPI    C3 6723  19.015  16.352   9.406  0.1518 -0.0751  0.1081
  421loPI   PO4 6724  19.502  16.575   9.590 -0.1979 -0.0295 -0.0491
  421loPI   GL1 6725  19.747  16.615   9.268 -0.0400 -0.1453  0.1968
  421loPI   GL2 6726  19.775  16.865   9.200  0.0386 -0.1970 -0.1690
  421loPI   C1A 6727  19.830  16.559   8.806  0.3398  0.3341 -0.0504
  421loPI   C2A 6728  20.044  16.618   8.400  0.1936 -0.3469  0.0662
  421loPI   C3A 6729  19.948  16.595   7.958 -0.2178  0.1520 -0.2244
  421loPI   C4A 6730  19.961  16.658   7.507  0.0554 -0.0461  0.2929
  421loPI   C5A 6731  19.820  16.862   7.229  0.2688 -0.2113 -0.0601
  421loPI   C6A 6732  19.461  16.926   6.944 -0.2680  0.0826  0.1030
  421loPI   C1B 6733  19.844  17.085   8.916 -0.2323 -0.0785 -0.1503
  421loPI   C2B 6734  19.894  17.185   8.503 -0.0286 -0.1264  0.1985
  421loPI   C3B 6735  19.638  17.267   8.135  0.1776  0.0318  0.0934
  421loPI   C4B 6736  19.356  17.513   7.967  0.0986 -0.0307  0.0311
  422loPI    C1 6737  13.165   6.543  10.339 -0.0937  0.2221 -0.0338
  422loPI    C2 6738  13.487   6.758  10.438  0.0024 -0.0955  0.3737
  422loPI    C3 6739  13.126   6.866  10.572 -0.0895  0.3274 -0.1782
  422loPI   PO4 6740  13.249   6.494  10.096  0.0510  0.0266  0.0198
  422loPI   GL1 6741  13.033   6.433   9.718 -0.1727  0.1217  0.2249
  422loPI   GL2 6742  12.720   6.295   9.487  0.0064 -0.2988  0.2037
  422loPI   C1A 6743  13.262   6.452   9.435 -0.1698  0.0380  0.2168
  422loPI   C2A 6744  13.254   6.534   9.149 -0.0452 -0.0687  0.0254
  422loPI   C3A 6745  13.117   6.653   8.777 -0.0946 -0.3855 -0.1179
  422loPI   C4A 6746  13.070   6.563   8.319 -0.0399  0.2917  0.1704
  422loPI   C5A 6747  13.026   6.638   7.869  0.0988  0.2406  0.2285
  422loPI   C6A 6748  12.957   6.932   7.496 -0.0439  0.1359 -0.2423
  422loPI   C1B 6749  12.813   6.266   9.058 -0.0425  0.1092 -0.0850
  422loPI   C2B 6750  12.684   6.329   8.595 -0.1467 -0.0342  0.0347
  422loPI   C3B 6751  12.448   6.618   8.303 -0.0455  0.2194  0.0171
  422loPI   C4B 6752  12.340   6.884   7.900  0.0619 -0.1241 -0.1045
  423loPI    C1 6753   5.464   8.165   9.826  0.2220 -0.2971 -0.1442
  423loPI    C2 6754   5.360   8.339  10.171  0.0564 -0.0909 -0.2950
  423loPI    C3 6755   5.418   7.943  10.155 -0.2173 -0.1414 -0.0937
  423loPI   PO4 6756   5.232   8.236   9.648  0.0435  0.0144  0.0083
  423loPI   GL1 6757   5.126   8.387   9.325  0.1493  0.0821  0.3606
  423loPI   GL2 6758   4.887   8.343   9.205  0.0573 -0.0759  0.0144
  423loPI   C1A 6759   5.176   8.765   8.984  0.1026 -0.0692  0.1290
  423loPI   C2A 6760   5.215   8.876   8.636  0.3076  0.0412  0.1349
  423loPI   C3A 6761   5.554   8.968   8.372 -0.0297  0.3595 -0.1456
  423loPI   C4A 6762   5.860   9.051   8.078 -0.1327  0.0131  0.0030
  423loPI   C5A 6763   6.064   9.272   7.745 -0.3919 -0.0994  0.1292
  423loPI   C6A 6764   6.270   9.161   7.412  0.0249 -0.0772  0.2801
  423loPI   C1B 6765   4.770   8.591   8.756 -0.4874  0.1182  0.0566
  423loPI   C2B 6766   4.707   8.378   8.334 -0.4293  0.0594  0.1708
  423loPI   C3B 6767   4.923   8.267   8.109 -0.1509  0.1372  0.1368
  423loPI   C4B 6768   5.334   8.196   7.904 -0.0469 -0.1678 -0.1035
  424loPI    C1 6769   4.621  17.978  10.250 -0.1072 -0.0649 -0.2844
  424loPI    C2 6770   4.835  17.671  10.109  0.0019 -0.0762 -0.0963
  424loPI    C3 6771   5.010  17.951  10.335 -0.1256  0.0550 -0.1583
  424loPI   PO4 6772   4.477  18.153  10.110  0.1473  0.2346 -0.0687
  424loPI   GL1 6773   4.329  18.341   9.667  0.0533  0.0239  0.0557
  424loPI   GL2 6774   4.096  18.097   9.570 -0.0091 -0.2043  0.1212
  424loPI   C1A 6775   4.419  18.555   9.278 -0.1932  0.1262 -0.2452
  424loPI   C2A 6776   4.376  18.554   8.861  0.1898 -0.1596 -0.3324
  424loPI   C3A 6777   4.414  18.674   8.518  0.2153 -0.0093 -0.1072
  424loPI   C4A 6778   4.362  18.655   8.163 -0.0047  0.4675 -0.3753
  424loPI   C5A 6779   4.269  18.721   7.789 -0.1712 -0.1970  0.3101
  424loPI   C6A 6780   4.310  18.709   7.324 -0.1115  0.2139  0.0931
  424loPI   C1B 6781   4.110  18.149   9.130 -0.0441  0.1048 -0.1705
  424loPI   C2B 6782   4.046  18.172   8.825  0.2229  0.1674  0.4165
  424loPI   C3B 6783   4.130  18.293   8.423  0.3417  0.0221 -0.1454
  424loPI   C4B 6784   4.104  18.237   8.040 -0.1982 -0.3824  0.2403
  425loPI    C1 6785   0.750   7.957   9.508  0.0955  0.1294 -0.0574
  425loPI    C2 6786   1.114   7.878   9.363  0.1228  0.0222  0.0681
  425loPI    C3 6787   1.013   7.754   9.730  0.0327  0.2364  0.1170
  425loPI   PO4 6788   0.673   8.140   9.284  0.0768  0.2146  0.3452
  425loPI   GL1 6789   0.572   8.203   8.882  0.2511 -0.1978 -0.0432
  425loPI   GL2 6790   0.561   7.934   8.890 -0.2007  0.3202 -0.0340
  425loPI   C1A 6791   0.638   8.441   8.517 -0.0782  0.2756 -0.0317
  425loPI   C2A 6792   0.516   8.577   8.132  0.0211  0.3124  0.0315
  425loPI   C3A 6793   0.501   8.458   7.674 -0.1210 -0.2243 -0.0851
  425loPI   C4A 6794   0.277   8.537   7.279 -0.1767  0.2774  0.2014
  425loPI   C5A 6795   0.397   8.447   6.861  0.1580  0.0058 -0.0270
  425loPI   C6A 6796   0.899   8.453   6.814 -0.0698  0.0781  0.3398
  425loPI   C1B 6797   0.911   7.725   8.603  0.2817 -0.1498  0.1375
  425loPI   C2B 6798   1.084   7.393   8.529  0.1138 -0.0419  0.0213
  425loPI   C3B 6799   1.343   7.306   8.189  0.0537  0.3494  0.3584
  425loPI   C4B 6800   1.637   7.356   7.825 -0.0521 -0.0021 -0.0659
  426loPI    C1 6801   9.530  11.242   9.697  0.1806 -0.0585 -0.0522
  426loPI    C2 6802   9.518  11.539   9.965  0.1933 -0.0669 -0.0423
  426loPI    C3 6803   9.609  11.168  10.082 -0.2276 -0.1566  0.0169
  426loPI   PO4 6804   9.323  11.302   9.610 -0.0829  0.3695 -0.0636
  426loPI   GL1 6805   9.241  11.721   9.323  0.1056  0.0524  0.1234
  426loPI   GL2 6806   9.509  11.895   9.144  0.1733 -0.1914 -0.1663
  426loPI   C1A 6807   9.219  11.524   8.908  0.1056 -0.0229  0.2425
  426loPI   C2A 6808   9.068  11.752   8.446 -0.2369 -0.4092 -0.3709
  426loPI   C3A 6809   9.217  11.767   8.080  0.3201  0.0811  0.1394
  426loPI   C4A 6810   9.229  11.841   7.630  0.2198  0.0887  0.1925
  426loPI   C5A 6811   9.190  11.979   7.259 -0.0444 -0.0990 -0.1789
  426loPI   C6A 6812   9.304  12.430   7.057 -0.4890 -0.0084  0.0636
  426loPI   C1B 6813   9.361  11.987   8.763 -0.3089  0.0671 -0.0066
  426loPI   C2B 6814   9.548  12.154   8.395  0.1642  0.0314  0.2049
  426loPI   C3B 6815   9.520  12.128   7.935 -0.3699  0.1401  0.0880
  426loPI   C4B 6816   9.664  12.089   7.464 -0.2492  0.1284  0.1655
  427loPI    C1 6817   9.995  13.231  10.115  0.0406  0.2107  0.0098
  427loPI    C2 6818   9.681  13.002  10.205  0.0869  0.0880 -0.1360
  427loPI    C3 6819  10.039  12.923  10.366  0.1592 -0.1023 -0.3840
  427loPI   PO4 6820   9.978  13.228   9.867 -0.0520  0.0736 -0.0667
  427loPI   GL1 6821  10.018  13.281   9.404 -0.2898 -0.4224 -0.1868
  427loPI   GL2 6822  10.102  13.560   9.272 -0.0834 -0.1637  0.1886
  427loPI   C1A 6823   9.933  13.005   9.093 -0.0521 -0.0086  0.1155
  427loPI   C2A 6824   9.921  12.870   8.641  0.0905 -0.2558 -0.1682
  427loPI   C3A 6825   9.965  12.890   8.221  0.0860 -0.2183 -0.0865
  427loPI   C4A 6826   9.976  12.817   7.869 -0.1011  0.2282 -0.1926
  427loPI   C5A 6827   9.863  12.832   7.376  0.0216  0.0859  0.0988
  427loPI   C6A 6828   9.971  12.423   7.141  0.0853  0.1153 -0.1092
  427loPI   C1B 6829  10.051  13.527   8.856 -0.0579 -0.0062 -0.2559
  427loPI   C2B 6830   9.885  13.343   8.503 -0.1058 -0.1241 -0.0355
  427loPI   C3B 6831   9.853  13.342   8.012  0.0022  0.1264  0.1335
  427loPI   C4B 6832   9.685  13.666   7.719 -0.0240 -0.0680  0.2658
  428loPI    C1 6833   1.359  17.784  10.077 -0.0610 -0.0120  0.2876
  428loPI    C2 6834   1.378  17.526   9.772 -0.0922  0.1574  0.1409
  428loPI    C3 6835   1.393  17.392  10.148 -0.0572 -0.0534  0.0656
  428loPI   PO4 6836   1.108  17.945   9.996 -0.2108  0.1110  0.2591
  428loPI   GL1 6837   0.894  17.876   9.640 -0.0118 -0.2937 -0.0953
  428loPI   GL2 6838   0.928  18.267   9.562 -0.1274 -0.6263  0.1371
  428loPI   C1A 6839   1.078  17.831   9.280  0.3207 -0.1151 -0.0250
  428loPI   C2A 6840   1.033  17.889   8.849  0.0447 -0.0113 -0.1140
  428loPI   C3A 6841   0.966  17.862   8.345 -0.1237 -0.2169 -0.1195
  428loPI   C4A 6842   1.034  17.837   7.949 -0.2912 -0.0084  0.1039
  428loPI   C5A 6843   1.381  17.795   7.737  0.2336  0.1426  0.1891
  428loPI   C6A 6844   1.826  17.781   7.756 -0.3185 -0.1419 -0.1802
  428loPI   C1B 6845   1.182  18.366   9.244 -0.1998  0.0355 -0.3179
  428loPI   C2B 6846   1.485  18.198   9.058  0.2460  0.2793 -0.1306
  428loPI   C3B 6847   1.542  17.780   8.808  0.2920 -0.0174 -0.3479
  428loPI   C4B 6848   1.804  17.643   8.610 -0.0768  0.1414  0.1446
  429loPI    C1 6849   3.185  13.222   9.545 -0.0545  0.0601  0.2172
  429loPI    C2 6850   3.364  12.895   9.690  0.0216  0.1046  0.2241
  429loPI    C3 6851   3.549  13.249   9.708  0.0319  0.1110  0.0187
  429loPI   PO4 6852   3.110  13.196   9.301 -0.0314 -0.4415  0.1361
  429loPI   GL1 6853   3.177  13.426   8.950 -0.2116 -0.2257  0.1171
  429loPI   GL2 6854   2.865  13.527   9.038  0.0607 -0.1859  0.2417
  429loPI   C1A 6855   3.201  13.562   8.534 -0.4009 -0.1096 -0.0166
  429loPI   C2A 6856   3.063  13.846   8.367 -0.3496 -0.0680  0.2946
  429loPI   C3A 6857   2.961  14.014   8.019  0.0963  0.0781  0.0906
  429loPI   C4A 6858   2.684  14.149   7.577  0.0407 -0.1585 -0.0923
  429loPI   C5A 6859   2.527  14.550   7.434 -0.2569  0.1681 -0.0964
  429loPI   C6A 6860   2.553  14.870   7.129  0.0503 -0.1676  0.3294
  429loPI   C1B 6861   2.673  13.642   8.636  0.2649 -0.3100  0.1390
  429loPI   C2B 6862   2.599  13.722   8.227  0.0452  0.0049  0.0517
  429loPI   C3B 6863   2.623  13.639   7.722  0.2140 -0.3566 -0.0671
  429loPI   C4B 6864   2.983  13.718   7.428  0.3005 -0.0697  0.3831
  430loPI    C1 6865  12.803   1.389  10.258 -0.2955 -0.0587 -0.0964
  430loPI    C2 6866  13.010   1.293  10.586 -0.0907  0.1974 -0.1478
  430loPI    C3 6867  12.674   1.508  10.617 -0.1318  0.1263 -0.0976
  430loPI   PO4 6868  13.002   1.465  10.023  0.2649  0.0906 -0.0707
  430loPI   GL1 6869  12.820   1.518   9.580  0.1575  0.2651 -0.1026
  430loPI   GL2 6870  12.992   1.789   9.552  0.1981 -0.2325  0.0108
  430loPI   C1A 6871  12.718   1.723   9.132 -0.1545 -0.3683 -0.1715
  430loPI   C2A 6872  12.376   1.579   8.707  0.3431 -0.0826 -0.0260
  430loPI   C3A 6873  12.362   1.413   8.273 -0.2066  0.0594  0.0013
  430loPI   C4A 6874  12.567   1.293   7.856  0.2804 -0.1232 -0.3335
  430loPI   C5A 6875  12.895   1.355   7.708  0.1769  0.0884  0.0564
  430loPI   C6A 6876  13.060   1.358   7.248  0.3131 -0.2351 -0.1283
  430loPI   C1B 6877  13.304   1.710   9.270 -0.1589  0.2617  0.0746
  430loPI   C2B 6878  13.599   1.413   9.203  0.0967 -0.0596 -0.0772
  430loPI   C3B 6879  13.775   1.158   8.861  0.0817  0.2358 -0.0331
  430loPI   C4B 6880  14.031   1.046   8.546 -0.0370 -0.1126 -0.2499
  431loPI    C1 6881   6.548   7.394   9.845  0.0978  0.1071 -0.0695
  431loPI    C2 6882   6.781   7.250  10.137 -0.0182  0.0265 -0.0161
  431loPI    C3 6883   6.632   7.620  10.164 -0.0686  0.0015  0.0507
  431loPI   PO4 6884   6.621   7.454   9.538 -0.0749 -0.2147  0.1786
  431loPI   GL1 6885   6.628   7.696   9.275  0.3311  0.0704 -0.0090
  431loPI   GL2 6886   6.966   7.876   9.236  0.0779 -0.1088 -0.0616
  431loPI   C1A 6887   6.320   7.680   8.985  0.0570 -0.0443  0.2237
  431loPI   C2A 6888   6.234   7.616   8.583  0.1848 -0.2067  0.0637
  431loPI   C3A 6889   6.115   7.781   8.211  0.0511 -0.1163  0.2427
  431loPI   C4A 6890   6.217   8.018   7.877 -0.1211  0.0891 -0.0250
  431loPI   C5A 6891   6.059   7.798   7.494  0.0467 -0.0779  0.2564
  431loPI   C6A 6892   5.774   7.665   7.181 -0.0937  0.1378  0.0447
  431loPI   C1B 6893   6.937   8.057   8.891 -0.1725 -0.0002  0.2567
  431loPI   C2B 6894   6.889   8.207   8.459 -0.1228 -0.2838 -0.3988
  431loPI   C3B 6895   6.860   8.382   8.002  0.0820 -0.0196 -0.2067
  431loPI   C4B 6896   6.655   8.284   7.573 -0.2165  0.4051 -0.2205
  432loPI    C1 6897   2.682   0.226  10.040 -0.1720  0.1582  0.0612
  432loPI    C2 6898   2.398   0.473   9.905  0.0344  0.3915  0.0462
  432loPI    C3 6899   2.508   0.486  10.289 -0.1175  0.1581  0.0995
  432loPI   PO4 6900   2.648  -0.001   9.956 -0.3795  0.0493  0.0754
  432loPI   GL1 6901   2.687   0.016   9.528  0.2234  0.1365 -0.0173
  432loPI   GL2 6902   2.363  -0.058   9.501 -0.4762 -0.0822  0.1790
  432loPI   C1A 6903   2.911   0.115   9.099 -0.1250  0.0187  0.0875
  432loPI   C2A 6904   2.845   0.016   8.725 -0.1059 -0.1414 -0.1068
  432loPI   C3A 6905   2.817   0.107   8.307  0.1542 -0.1093  0.0079
  432loPI   C4A 6906   2.797   0.150   7.872  0.3822  0.0214 -0.0355
  432loPI   C5A 6907   2.763   0.326   7.443  0.0168  0.0892 -0.1587
  432loPI   C6A 6908   2.788   0.689   7.162 -0.0343 -0.0614 -0.1409
  432loPI   C1B 6909   2.257   0.102   9.188 -0.1539 -0.3026  0.1118
  432loPI   C2B 6910   2.400   0.162   8.752  0.0868  0.3682 -0.0257
  432loPI   C3B 6911   2.291   0.166   8.250  0.1024 -0.3874  0.3121
  432loPI   C4B 6912   2.235   0.238   7.836 -0.2959 -0.0299  0.2980
  433loPI    C1 6913   9.252  10.718   9.877 -0.1959  0.2970  0.1761
  433loPI    C2 6914   9.470  10.600  10.191 -0.0418  0.1220  0.0063
  433loPI    C3 6915   9.076  10.531  10.183 -0.0241  0.0059  0.1014
  433loPI   PO4 6916   9.321  10.669   9.604 -0.2721 -0.0006  0.1766
  433loPI   GL1 6917   9.574  10.808   9.293 -0.2765  0.0042  0.2292
  433loPI   GL2 6918   9.354  11.004   9.159  0.2540 -0.0922  0.2363
  433loPI   C1A 6919   9.558  10.528   8.943 -0.1963  0.0415 -0.0689
  433loPI   C2A 6920   9.710  10.397   8.584 -0.2555 -0.0019  0.0168
  433loPI   C3A 6921   9.687  10.521   8.229  0.0060  0.0763 -0.0153
  433loPI   C4A 6922   9.555  10.436   7.773  0.3218  0.1047  0.0927
  433loPI   C5A 6923   9.416  10.189   7.467 -0.1733  0.0766 -0.2889
  433loPI   C6A 6924   9.545  10.285   7.038 -0.0065 -0.2021  0.2013
  433loPI   C1B 6925   9.512  11.026   8.767 -0.1225  0.0802  0.0921
  433loPI   C2B 6926   9.607  11.136   8.305  0.0434  0.2329  0.4680
  433loPI   C3B 6927   9.598  11.009   7.890  0.0062 -0.1255  0.0910
  433loPI   C4B 6928   9.762  10.843   7.421 -0.0842  0.0668 -0.4109
  434loPI    C1 6929  11.099  19.411  10.463  0.1283 -0.0407  0.0851
  434loPI    C2 6930  11.409  19.177  10.368  0.3007  0.2227 -0.0137
  434loPI    C3 6931  11.361  19.303  10.745  0.0505 -0.1930  0.1002
  434loPI   PO4 6932  11.063  19.586  10.231 -0.1115  0.1828  0.2534
  434loPI   GL1 6933  10.792  19.697   9.769 -0.0497  0.0488  0.1107
  434loPI   GL2 6934  10.892  19.909   9.582 -0.0370  0.2184 -0.2901
  434loPI   C1A 6935  11.058  19.512   9.369 -0.1697 -0.1325 -0.1126
  434loPI   C2A 6936  11.175  19.718   8.946 -0.0314 -0.1553  0.0075
  434loPI   C3A 6937  11.145  19.786   8.499 -0.1283 -0.0349 -0.2614
  434loPI   C4A 6938  11.009  19.704   8.190 -0.1666 -0.2204  0.0571
  434loPI   C5A 6939  10.687  19.785   7.856 -0.1428 -0.0654  0.0543
  434loPI   C6A 6940  10.409  19.538   7.577 -0.1075 -0.1999 -0.1291
  434loPI   C1B 6941  10.741  19.943   9.179 -0.4035 -0.2078 -0.1787
  434loPI   C2B 6942  10.730  19.780   8.821  0.0200 -0.0052  0.1765
  434loPI   C3B 6943  10.735  20.110   8.451  0.1720  0.1119 -0.0837
  434loPI   C4B 6944  10.523  20.273   8.088 -0.0348 -0.1195  0.0301
  435loPI    C1 6945   4.622  13.915   9.862  0.1228 -0.0236 -0.0201
  435loPI    C2 6946   4.439  13.958  10.215  0.0503 -0.1245 -0.0447
  435loPI    C3 6947   4.546  14.281  10.004 -0.2449 -0.0630 -0.1045
  435loPI   PO4 6948   4.508  13.841   9.625  0.0288  0.4198 -0.2183
  435loPI   GL1 6949   4.528  13.869   9.173  0.0663  0.0202  0.2062
  435loPI   GL2 6950   4.472  13.527   9.233  0.0327  0.2801  0.0306
  435loPI   C1A 6951   4.377  13.939   8.716 -0.2080 -0.3540 -0.3557
  435loPI   C2A 6952   4.385  13.932   8.230  0.1201 -0.1290 -0.3214
  435loPI   C3A 6953   4.246  13.802   7.825 -0.4528 -0.0621 -0.1595
  435loPI   C4A 6954   3.927  13.831   7.638  0.2299 -0.3332  0.0980
  435loPI   C5A 6955   3.847  14.063   7.318  0.1161  0.2407  0.0911
  435loPI   C6A 6956   3.453  14.055   7.034 -0.0073  0.1423  0.2010
  435loPI   C1B 6957   4.474  13.428   8.851 -0.3060 -0.1994 -0.0712
  435loPI   C2B 6958   4.615  13.575   8.430 -0.0351 -0.1155 -0.2732
  435loPI   C3B 6959   5.016  13.551   8.071 -0.0048 -0.2411  0.0998
  435loPI   C4B 6960   5.058  13.763   7.613 -0.4048 -0.0091  0.0134
  436loPI    C1 6961  17.791  16.718  10.080  0.0109 -0.0691  0.1378
  436loPI    C2 6962  18.007  17.048  10.150  0.1204 -0.0975 -0.0586
  436loPI    C3 6963  18.122  16.697  10.304  0.1287 -0.0843 -0.0350
  436loPI   PO4 6964  17.703  16.646   9.832 -0.0558 -0.0374  0.0149
  436loPI   GL1 6965  17.858  16.633   9.418 -0.0525 -0.0537 -0.0998
  436loPI   GL2 6966  18.007  16.374   9.353 -0.1070 -0.1078 -0.0775
  436loPI   C1A 6967  17.620  16.918   9.109 -0.1016  0.0583  0.0466
  436loPI   C2A 6968  17.311  17.020   8.745  0.0976  0.1246  0.0222
  436loPI   C3A 6969  17.103  17.031   8.320 -0.0725  0.2803  0.1874
  436loPI   C4A 6970  17.104  16.873   7.928  0.2441  0.1090  0.0899
  436loPI   C5A 6971  16.932  16.964   7.517  0.2472 -0.2469  0.3119
  436loPI   C6A 6972  16.926  16.739   7.113 -0.2684 -0.2717  0.0003
  436loPI   C1B 6973  17.996  16.309   8.870  0.0118 -0.1134  0.0150
  436loPI   C2B 6974  18.195  16.133   8.476  0.0710  0.2981 -0.0595
  436loPI   C3B 6975  18.353  16.049   8.171  0.0717 -0.0877  0.0334
  436loPI   C4B 6976  18.331  15.908   7.765  0.0664  0.2731  0.2145
  437loPI    C1 6977   5.866  12.816   9.583  0.0073 -0.0749  0.1653
  437loPI    C2 6978   6.176  13.033   9.453  0.1019 -0.3414 -0.0607
  437loPI    C3 6979   6.100  13.009   9.845 -0.0834  0.3306 -0.0444
  437loPI   PO4 6980   5.649  12.871   9.433 -0.0353  0.0618 -0.0652
  437loPI   GL1 6981   5.339  12.848   9.032 -0.4341  0.1032 -0.0994
  437loPI   GL2 6982   5.319  13.213   9.158  0.0558  0.3559 -0.0199
  437loPI   C1A 6983   5.380  12.909   8.561 -0.1077 -0.0653  0.2317
  437loPI   C2A 6984   5.307  12.935   8.207  0.3558 -0.1582 -0.0242
  437loPI   C3A 6985   5.201  13.087   7.772  0.5164  0.1905  0.2597
  437loPI   C4A 6986   5.204  13.282   7.357 -0.0451 -0.1907 -0.1376
  437loPI   C5A 6987   5.306  13.634   7.131  0.1204 -0.0661 -0.1829
  437loPI   C6A 6988   5.485  13.706   6.706  0.1323  0.0267 -0.1796
  437loPI   C1B 6989   4.981  13.374   8.900 -0.0588  0.3684  0.1470
  437loPI   C2B 6990   4.943  13.203   8.520 -0.0198 -0.3846 -0.1681
  437loPI   C3B 6991   4.843  13.058   8.120 -0.0731  0.0550  0.0476
  437loPI   C4B 6992   4.738  13.011   7.629 -0.4239 -0.1006 -0.0807
  438loPI    C1 6993   4.926   3.919   9.819 -0.4011 -0.2898  0.0467
  438loPI    C2 6994   4.992   3.534   9.905  0.0510 -0.1524  0.3496
  438loPI    C3 6995   4.916   3.795  10.199  0.0639  0.0474  0.1784
  438loPI   PO4 6996   5.199   3.893   9.635  0.0719  0.2169  0.0219
  438loPI   GL1 6997   5.290   3.741   9.288  0.2201  0.1574 -0.5218
  438loPI   GL2 6998   5.508   4.024   9.218  0.0910  0.0182 -0.2237
  438loPI   C1A 6999   5.492   3.556   9.001  0.0303 -0.1183 -0.2312
  438loPI   C2A 7000   5.690   3.391   8.558 -0.0770  0.0492  0.3618
  438loPI   C3A 7001   5.526   3.228   8.002  0.2311 -0.0081  0.0062
  438loPI   C4A 7002   5.792   3.342   7.668 -0.0944 -0.1385 -0.0716
  438loPI   C5A 7003   5.748   3.564   7.280 -0.1466  0.3515 -0.3282
  438loPI   C6A 7004   5.435   3.813   7.172  0.2810 -0.2439  0.1789
  438loPI   C1B 7005   5.619   4.076   8.800 -0.1488  0.0698  0.0507
  438loPI   C2B 7006   5.451   3.811   8.512 -0.3953  0.1532 -0.1013
  438loPI   C3B 7007   5.299   3.753   8.141 -0.1967  0.2935 -0.1668
  438loPI   C4B 7008   5.298   3.628   7.749 -0.1814 -0.0451 -0.0185
  439loPI    C1 7009   1.680   1.525  10.388  0.3636  0.0517  0.2825
  439loPI    C2 7010   1.404   1.279  10.539  0.0109  0.2592 -0.0084
  439loPI    C3 7011   1.626   1.503  10.784 -0.1795  0.1977  0.2251
  439loPI   PO4 7012   1.785   1.386  10.164 -0.0294  0.0615 -0.2328
  439loPI   GL1 7013   1.844   1.133   9.816 -0.1465  0.1924  0.1830
  439loPI   GL2 7014   1.836   0.922   9.711 -0.0620  0.4292 -0.0662
  439loPI   C1A 7015   2.003   1.329   9.448 -0.0606  0.0110 -0.1985
  439loPI   C2A 7016   2.092   1.504   9.054 -0.1686  0.0873  0.1496
  439loPI   C3A 7017   2.036   1.427   8.530  0.2753  0.3234 -0.1298
  439loPI   C4A 7018   1.736   1.336   8.197  0.0424 -0.2778  0.3506
  439loPI   C5A 7019   1.416   1.369   7.930  0.2065  0.3959 -0.1727
  439loPI   C6A 7020   1.483   1.500   7.506  0.1848 -0.1720 -0.3287
  439loPI   C1B 7021   1.786   0.910   9.280  0.1438 -0.0708  0.0150
  439loPI   C2B 7022   1.797   0.977   8.786  0.2826  0.1496 -0.2131
  439loPI   C3B 7023   1.667   0.889   8.394 -0.1724  0.0077  0.1417
  439loPI   C4B 7024   1.533   0.790   7.969  0.0683  0.0419 -0.3924
  440loPI    C1 7025  13.753   2.112   9.900 -0.1839 -0.1528  0.1717
  440loPI    C2 7026  13.948   2.149  10.247  0.0438 -0.1379  0.0443
  440loPI    C3 7027  13.958   2.447   9.980 -0.0310 -0.1973 -0.0248
  440loPI   PO4 7028  13.864   1.917   9.818 -0.1605  0.2164  0.0462
  440loPI   GL1 7029  14.027   1.627   9.449  0.0824 -0.0820 -0.3127
  440loPI   GL2 7030  13.865   1.876   9.295 -0.0360 -0.0696 -0.0419
  440loPI   C1A 7031  14.149   1.551   9.060 -0.0039 -0.1208 -0.1941
  440loPI   C2A 7032  14.068   1.571   8.617  0.3854 -0.4070  0.3917
  440loPI   C3A 7033  13.969   1.430   8.193 -0.1343  0.0019 -0.1248
  440loPI   C4A 7034  13.953   1.186   7.760  0.2262  0.1517  0.1009
  440loPI   C5A 7035  14.275   0.862   7.574  0.3261 -0.2893 -0.2390
  440loPI   C6A 7036  14.674   0.714   7.719 -0.1259 -0.1400  0.0725
  440loPI   C1B 7037  13.609   1.877   8.855  0.0158 -0.1336  0.0063
  440loPI   C2B 7038  13.740   1.896   8.342  0.3542 -0.3581 -0.1459
  440loPI   C3B 7039  13.788   1.909   7.855 -0.0109  0.0840  0.2156
  440loPI   C4B 7040  13.939   1.644   7.566  0.4176  0.1662  0.0980
  441loPI    C1 7041   3.965   6.863  10.243  0.0474 -0.0639 -0.0076
  441loPI    C2 7042   3.976   7.038  10.603  0.1829  0.2182 -0.1454
  441loPI    C3 7043   4.205   6.718  10.529  0.0494  0.0726  0.0605
  441loPI   PO4 7044   3.686   6.843  10.224  0.0231  0.0422  0.0126
  441loPI   GL1 7045   3.548   6.635   9.798  0.1486 -0.2056  0.2467
  441loPI   GL2 7046   3.642   6.401   9.583 -0.1113  0.0182  0.3149
  441loPI   C1A 7047   3.704   6.799   9.316 -0.1624 -0.1866  0.0173
  441loPI   C2A 7048   3.592   6.721   8.941 -0.2199  0.2343  0.3882
  441loPI   C3A 7049   3.656   6.679   8.564 -0.1909  0.0621 -0.0088
  441loPI   C4A 7050   3.695   6.616   8.172  0.1983  0.1897 -0.0447
  441loPI   C5A 7051   3.926   6.857   7.779 -0.0182  0.1623 -0.0357
  441loPI   C6A 7052   3.936   6.737   7.385  0.2007  0.1547  0.1317
  441loPI   C1B 7053   3.730   6.235   9.235 -0.2655  0.1552  0.0651
  441loPI   C2B 7054   3.907   6.259   8.783  0.1575 -0.2999  0.3339
  441loPI   C3B 7055   3.928   6.191   8.354 -0.1696  0.2107 -0.1199
  441loPI   C4B 7056   3.869   6.081   7.969  0.1122  0.0912 -0.2623
  442loPI    C1 7057  13.326   5.506  10.466 -0.3434  0.1413 -0.0180
  442loPI    C2 7058  13.005   5.525  10.704 -0.1926  0.1562  0.1879
  442loPI    C3 7059  13.344   5.362  10.839 -0.0578  0.3052  0.0348
  442loPI   PO4 7060  13.223   5.386  10.249 -0.2028  0.2272 -0.0377
  442loPI   GL1 7061  13.070   5.459   9.810  0.1817 -0.1569 -0.1992
  442loPI   GL2 7062  13.381   5.531   9.731 -0.0658 -0.1798 -0.3627
  442loPI   C1A 7063  13.083   5.450   9.288  0.1032 -0.3133 -0.1475
  442loPI   C2A 7064  13.138   5.168   8.975  0.0175 -0.0978  0.1009
  442loPI   C3A 7065  13.134   5.221   8.439 -0.0240  0.1017  0.1625
  442loPI   C4A 7066  13.456   5.210   8.182  0.0048  0.2462  0.1231
  442loPI   C5A 7067  13.697   5.072   7.898  0.1819 -0.0919 -0.0709
  442loPI   C6A 7068  13.870   4.874   7.420 -0.3413  0.0396  0.1276
  442loPI   C1B 7069  13.574   5.137   9.420 -0.2327 -0.1949  0.1513
  442loPI   C2B 7070  13.519   4.896   9.041 -0.1968 -0.0796 -0.0438
  442loPI   C3B 7071  13.445   4.818   8.675  0.0372  0.0657  0.1606
  442loPI   C4B 7072  13.465   4.658   8.254  0.1586 -0.1035  0.1665
  443loPI    C1 7073   5.804  17.944  10.305  0.1157  0.0298 -0.0473
  443loPI    C2 7074   5.839  18.216  10.014  0.0193 -0.0647 -0.1485
  443loPI    C3 7075   5.486  18.159  10.193  0.1022  0.0668  0.0607
  443loPI   PO4 7076   5.818  17.722  10.127  0.2145 -0.3317 -0.1199
  443loPI   GL1 7077   5.615  17.798   9.795  0.0035  0.3062  0.0753
  443loPI   GL2 7078   5.291  17.843   9.779  0.1257 -0.2611  0.0881
  443loPI   C1A 7079   5.702  17.956   9.422  0.3291 -0.0999  0.2382
  443loPI   C2A 7080   5.665  18.172   9.040 -0.0506 -0.1431 -0.4463
  443loPI   C3A 7081   5.708  18.192   8.602 -0.2239  0.4493 -0.2122
  443loPI   C4A 7082   5.706  18.313   8.199 -0.2233 -0.1593  0.2492
  443loPI   C5A 7083   5.314  18.421   7.817 -0.4473  0.2039  0.0128
  443loPI   C6A 7084   5.346  18.475   7.355  0.1221  0.0893  0.0414
  443loPI   C1B 7085   5.166  18.100   9.419  0.0952 -0.1238 -0.1451
  443loPI   C2B 7086   5.147  18.193   9.001 -0.0899  0.2617 -0.0409
  443loPI   C3B 7087   5.194  18.209   8.619 -0.0511  0.0382 -0.3286
  443loPI   C4B 7088   5.176  18.227   8.251 -0.3333  0.0091 -0.0865
  444loPI    C1 7089   8.190   1.126  10.359 -0.0422 -0.0900  0.0836
  444loPI    C2 7090   7.848   1.326  10.415 -0.0864 -0.1866  0.1605
  444loPI    C3 7091   8.184   1.451  10.592  0.0339  0.2165 -0.3317
  444loPI   PO4 7092   8.268   1.044  10.068  0.2600 -0.1699  0.0713
  444loPI   GL1 7093   8.222   1.092   9.595  0.1512 -0.1301 -0.2348
  444loPI   GL2 7094   8.584   0.924   9.624  0.0410 -0.0834 -0.0041
  444loPI   C1A 7095   8.394   1.336   9.243  0.3341  0.0752  0.5111
  444loPI   C2A 7096   8.493   1.172   8.919  0.1986  0.0064 -0.4157
  444loPI   C3A 7097   8.420   1.273   8.478 -0.2933 -0.3385 -0.2699
  444loPI   C4A 7098   8.378   1.266   8.028 -0.1925  0.1844  0.0041
  444loPI   C5A 7099   8.581   0.960   7.727  0.1148 -0.0377  0.1442
  444loPI   C6A 7100   8.601   0.949   7.130  0.2718 -0.0902 -0.0376
  444loPI   C1B 7101   8.330   0.798   9.279 -0.1109  0.2394  0.1204
  444loPI   C2B 7102   8.162   0.726   8.966 -0.1536 -0.1996  0.2972
  444loPI   C3B 7103   8.217   0.790   8.564 -0.0802  0.0098  0.0519
  444loPI   C4B 7104   8.280   0.680   8.047 -0.0300  0.4557 -0.1423
  445loPI    C1 7105  13.004   3.034  10.006 -0.2116  0.0586  0.1938
  445loPI    C2 7106  12.943   2.648  10.093  0.0117 -0.0254 -0.0104
  445loPI    C3 7107  13.185   2.869  10.322  0.0821 -0.0738 -0.0376
  445loPI   PO4 7108  12.741   3.206   9.957 -0.2457 -0.0867 -0.0364
  445loPI   GL1 7109  12.575   3.480   9.619  0.0747 -0.3253 -0.2574
  445loPI   GL2 7110  12.834   3.567   9.447  0.3729 -0.3200  0.0185
  445loPI   C1A 7111  12.484   3.157   9.253 -0.0665 -0.2281  0.2059
  445loPI   C2A 7112  12.146   2.959   8.997 -0.1199  0.0104  0.0772
  445loPI   C3A 7113  12.207   2.802   8.622  0.4369 -0.0965 -0.0018
  445loPI   C4A 7114  12.221   2.856   8.153  0.0819  0.0955  0.1262
  445loPI   C5A 7115  12.099   2.769   7.701 -0.1279 -0.2528 -0.1079
  445loPI   C6A 7116  12.195   2.837   7.256 -0.2991 -0.0361 -0.3341
  445loPI   C1B 7117  12.731   3.572   9.116 -0.0134  0.0450  0.0194
  445loPI   C2B 7118  12.567   3.817   8.862 -0.2706 -0.1819 -0.1110
  445loPI   C3B 7119  12.336   4.014   8.537 -0.1067  0.3437  0.1110
  445loPI   C4B 7120  12.368   4.104   8.072 -0.0294  0.0477  0.0330
  446loPI    C1 7121   3.506   6.046   9.885 -0.0570 -0.0429 -0.0750
  446loPI    C2 7122   3.403   6.252  10.212 -0.2155 -0.0231 -0.1362
  446loPI    C3 7123   3.614   5.914  10.247 -0.3715 -0.1083 -0.0012
  446loPI   PO4 7124   3.287   6.113   9.748 -0.2346  0.0320 -0.1179
  446loPI   GL1 7125   3.120   6.162   9.387  0.2325 -0.0003 -0.0944
  446loPI   GL2 7126   2.711   6.032   9.272 -0.0478  0.2600  0.1490
  446loPI   C1A 7127   3.239   6.339   8.955  0.1634  0.0208  0.4455
  446loPI   C2A 7128   3.273   6.437   8.512  0.0882 -0.0800 -0.0064
  446loPI   C3A 7129   3.392   6.220   8.170  0.2011 -0.4394 -0.0874
  446loPI   C4A 7130   3.213   6.144   7.664 -0.1671 -0.2201 -0.0005
  446loPI   C5A 7131   3.020   6.313   7.345 -0.1255 -0.3502  0.1189
  446loPI   C6A 7132   2.815   6.578   6.980  0.0834  0.2039 -0.1485
  446loPI   C1B 7133   2.859   5.948   8.823 -0.1038 -0.0746  0.0311
  446loPI   C2B 7134   3.075   5.932   8.527  0.2224 -0.1370 -0.1190
  446loPI   C3B 7135   3.075   5.788   8.094 -0.0679 -0.0505  0.0346
  446loPI   C4B 7136   3.017   5.591   7.751 -0.2345  0.3599  0.0068
  447loPI    C1 7137   6.464   0.589  10.568  0.2372 -0.1127 -0.1515
  447loPI    C2 7138   6.284   0.744  10.889 -0.0275 -0.2075 -0.2519
  447loPI    C3 7139   6.415   0.366  10.896  0.2543 -0.1099 -0.1470
  447loPI   PO4 7140   6.233   0.625  10.265  0.1065  0.2224  0.0163
  447loPI   GL1 7141   6.420   0.853   9.963 -0.0678 -0.1027  0.3104
  447loPI   GL2 7142   6.300   0.605   9.752 -0.1013 -0.1199  0.1000
  447loPI   C1A 7143   6.296   0.991   9.446 -0.0406  0.2480 -0.1175
  447loPI   C2A 7144   6.418   1.044   9.029  0.0935  0.1769  0.2160
  447loPI   C3A 7145   6.379   1.104   8.579 -0.1869  0.0964  0.1728
  447loPI   C4A 7146   6.395   1.079   8.152  0.0479 -0.0671 -0.0206
  447loPI   C5A 7147   6.440   1.121   7.746 -0.1453  0.2663  0.0630
  447loPI   C6A 7148   6.151   1.347   7.441  0.1081 -0.2285 -0.2556
  447loPI   C1B 7149   6.088   0.535   9.385  0.1163 -0.0807 -0.1657
  447loPI   C2B 7150   6.167   0.563   8.908  0.3495  0.1058 -0.0177
  447loPI   C3B 7151   6.196   0.637   8.386  0.1861  0.2185  0.0098
  447loPI   C4B 7152   6.176   0.597   7.942  0.2628 -0.1206 -0.0172
  448loPI    C1 7153   2.927  14.163   9.339  0.2028 -0.1397  0.0529
  448loPI    C2 7154   2.731  14.222   9.683  0.0451  0.1981 -0.0907
  448loPI    C3 7155   3.011  14.482   9.565  0.2531 -0.0332 -0.1144
  448loPI   PO4 7156   2.666  14.066   9.225  0.2831 -0.0935 -0.0924
  448loPI   GL1 7157   2.454  14.102   8.804 -0.0605 -0.2118 -0.4577
  448loPI   GL2 7158   2.357  14.464   8.883  0.3045 -0.0925  0.2784
  448loPI   C1A 7159   2.410  14.155   8.385  0.4315  0.2923  0.1920
  448loPI   C2A 7160   2.298  14.351   7.952 -0.0882  0.0948 -0.0125
  448loPI   C3A 7161   2.065  14.379   7.604 -0.0755  0.0047 -0.1480
  448loPI   C4A 7162   1.663  14.221   7.301 -0.1319  0.2971  0.0737
  448loPI   C5A 7163   1.415  13.967   7.199 -0.0002 -0.4310 -0.1611
  448loPI   C6A 7164   1.153  13.655   6.949 -0.0261 -0.1776  0.0110
  448loPI   C1B 7165   2.339  14.581   8.487  0.2197 -0.1986 -0.2054
  448loPI   C2B 7166   2.284  14.907   8.122 -0.1782 -0.0178  0.1039
  448loPI   C3B 7167   2.382  15.367   7.964 -0.1110  0.1794 -0.2888
  448loPI   C4B 7168   2.659  15.727   8.057 -0.2266  0.1111  0.0985
  449loPI    C1 7169  13.751  12.049  10.151  0.0869  0.2849 -0.2184
  449loPI    C2 7170  13.459  12.148  10.406  0.1261  0.1399 -0.1163
  449loPI    C3 7171  13.664  11.808  10.458  0.3987  0.3022 -0.1129
  449loPI   PO4 7172  13.689  12.058   9.887  0.0277 -0.0282 -0.0091
  449loPI   GL1 7173  13.847  11.835   9.519 -0.0339 -0.0031 -0.4940
  449loPI   GL2 7174  14.040  11.725   9.390  0.4995 -0.1027 -0.1316
  449loPI   C1A 7175  13.643  11.964   9.216 -0.2098 -0.2073 -0.2294
  449loPI   C2A 7176  13.422  12.138   8.860  0.1123 -0.2640  0.0258
  449loPI   C3A 7177  13.419  11.957   8.417  0.0410  0.1848  0.3171
  449loPI   C4A 7178  13.277  11.871   8.015  0.0408 -0.1217  0.0454
  449loPI   C5A 7179  13.258  11.900   7.497  0.1727 -0.1285  0.0632
  449loPI   C6A 7180  13.168  11.786   7.102  0.1013 -0.1066  0.0180
  449loPI   C1B 7181  13.988  11.885   8.879 -0.2883 -0.0610 -0.1837
  449loPI   C2B 7182  14.013  11.868   8.480  0.2944 -0.0058 -0.0460
  449loPI   C3B 7183  14.033  11.763   8.103  0.2427  0.1869 -0.4723
  449loPI   C4B 7184  14.168  11.430   7.847  0.0371  0.4019 -0.1711
  450loPI    C1 7185   2.513   4.216  10.301 -0.0139 -0.1232 -0.0928
  450loPI    C2 7186   2.431   4.491  10.022 -0.1003 -0.2058 -0.1495
  450loPI    C3 7187   2.767   4.518  10.237 -0.0128 -0.1647 -0.2902
  450loPI   PO4 7188   2.588   4.009  10.212 -0.1307  0.2050 -0.0185
  450loPI   GL1 7189   2.557   3.756   9.841 -0.0948  0.0611  0.1425
  450loPI   GL2 7190   2.338   4.083   9.770 -0.0738  0.0651  0.2179
  450loPI   C1A 7191   2.422   3.745   9.415 -0.0716 -0.0561  0.0441
  450loPI   C2A 7192   2.363   3.778   9.012  0.2994 -0.0867 -0.0038
  450loPI   C3A 7193   2.349   3.633   8.636  0.1163 -0.2279 -0.0728
  450loPI   C4A 7194   2.225   3.800   8.255  0.0558  0.2541 -0.1768
  450loPI   C5A 7195   2.186   3.724   7.885  0.1385  0.2006  0.1759
  450loPI   C6A 7196   2.346   3.634   7.545 -0.1222  0.1295 -0.0169
  450loPI   C1B 7197   2.181   4.288   9.330 -0.0008 -0.0294  0.0675
  450loPI   C2B 7198   2.119   4.400   8.967  0.4470  0.3119  0.1274
  450loPI   C3B 7199   2.168   4.483   8.611  0.2800 -0.0415  0.0313
  450loPI   C4B 7200   2.580   4.489   8.321 -0.1963 -0.0519 -0.0340
  451loPI    C1 7201   0.073  11.425   9.392  0.0538  0.1950 -0.1640
  451loPI    C2 7202  -0.161  11.600   9.665 -0.1202 -0.1342 -0.0971
  451loPI    C3 7203   0.186  11.434   9.776 -0.1127 -0.1233 -0.1043
  451loPI   PO4 7204   0.056  11.695   9.219 -0.1700  0.3091 -0.0069
  451loPI   GL1 7205  -0.351  11.779   8.976 -0.0854 -0.2572  0.0172
  451loPI   GL2 7206  -0.180  11.494   8.776 -0.0985 -0.0742  0.3280
  451loPI   C1A 7207  -0.333  12.126   8.734 -0.1330  0.0073 -0.1166
  451loPI   C2A 7208  -0.365  12.474   8.534  0.0835 -0.2636  0.0600
  451loPI   C3A 7209  -0.706  12.690   8.258 -0.1845  0.1798 -0.3817
  451loPI   C4A 7210  -0.793  12.627   7.822 -0.2681 -0.2542  0.0017
  451loPI   C5A 7211  -0.989  12.543   7.439  0.0311  0.0190 -0.0027
  451loPI   C6A 7212  -0.953  12.672   7.027 -0.1215 -0.0396 -0.5789
  451loPI   C1B 7213  -0.110  11.397   8.405  0.1027  0.2064 -0.2939
  451loPI   C2B 7214  -0.291  11.205   7.962 -0.2318  0.0516  0.0614
  451loPI   C3B 7215  -0.409  11.019   7.482 -0.0947  0.2527  0.1145
  451loPI   C4B 7216  -0.781  11.113   7.290  0.1345  0.3659  0.1405
  452loPI    C1 7217   5.192  12.903   9.583 -0.2081  0.1630 -0.0024
  452loPI    C2 7218   5.356  13.265   9.631  0.0788  0.0681 -0.2379
  452loPI    C3 7219   5.461  12.964   9.872 -0.1707  0.1416 -0.0327
  452loPI   PO4 7220   4.988  12.903   9.544  0.2176  0.0596 -0.1190
  452loPI   GL1 7221   4.772  13.045   9.287  0.0361  0.2835  0.0124
  452loPI   GL2 7222   4.504  12.892   9.165  0.1612 -0.0286 -0.0958
  452loPI   C1A 7223   4.880  12.787   8.864 -0.0981  0.0537  0.2362
  452loPI   C2A 7224   4.778  12.721   8.434  0.0973 -0.1822 -0.4047
  452loPI   C3A 7225   4.903  12.589   7.951  0.2756  0.2225 -0.0768
  452loPI   C4A 7226   5.115  12.593   7.602 -0.1275 -0.0846 -0.0875
  452loPI   C5A 7227   5.077  12.788   7.291 -0.2467 -0.0830  0.4304
  452loPI   C6A 7228   5.082  12.808   6.900 -0.0455 -0.0861 -0.2120
  452loPI   C1B 7229   4.383  12.904   8.758 -0.0615  0.2040  0.3235
  452loPI   C2B 7230   4.397  13.165   8.434 -0.1417 -0.3000 -0.1601
  452loPI   C3B 7231   4.467  13.398   8.038 -0.0393  0.0589  0.0942
  452loPI   C4B 7232   4.668  13.521   7.641 -0.1890  0.0464 -0.0084
  453loPI    C1 7233   8.944   7.847  10.036 -0.0964  0.0704 -0.0530
  453loPI    C2 7234   9.044   8.158  10.267  0.0508 -0.1041  0.1218
  453loPI    C3 7235   8.740   7.919  10.373  0.0530 -0.1250  0.0816
  453loPI   PO4 7236   9.173   8.001   9.804  0.2197 -0.2391  0.2166
  453loPI   GL1 7237   9.247   7.968   9.325 -0.3995 -0.0147 -0.2292
  453loPI   GL2 7238   9.016   8.161   9.305  0.2091  0.1835 -0.0821
  453loPI   C1A 7239   9.536   7.931   8.837  0.0190  0.2668  0.1660
  453loPI   C2A 7240   9.813   7.696   8.598  0.0912 -0.0580  0.0467
  453loPI   C3A 7241   9.824   7.683   8.137  0.1049 -0.0481 -0.1836
  453loPI   C4A 7242   9.690   7.654   7.683  0.3942 -0.1977  0.0529
  453loPI   C5A 7243   9.438   7.937   7.440 -0.0765 -0.1032 -0.3763
  453loPI   C6A 7244   9.106   8.193   7.155  0.2646 -0.1117  0.0467
  453loPI   C1B 7245   9.056   8.013   8.728  0.0069  0.0024 -0.0816
  453loPI   C2B 7246   8.868   8.021   8.235 -0.3732  0.1301 -0.0244
  453loPI   C3B 7247   8.476   7.972   7.954  0.1106  0.1761 -0.0773
  453loPI   C4B 7248   8.409   8.073   7.481 -0.1139 -0.1850  0.0164
  454loPI    C1 7249   5.588   5.642   9.838 -0.1389  0.1917  0.1851
  454loPI    C2 7250   5.363   5.685   9.509  0.0981 -0.1687 -0.0318
  454loPI    C3 7251   5.706   5.888   9.546 -0.1036  0.1465  0.1611
  454loPI   PO4 7252   5.628   5.322   9.837 -0.1328  0.2293  0.1014
  454loPI   GL1 7253   5.623   5.099   9.478 -0.0043  0.0222  0.0497
  454loPI   GL2 7254   5.803   4.892   9.427  0.3799 -0.1185 -0.0185
  454loPI   C1A 7255   5.623   5.428   9.177  0.1356  0.1668 -0.0636
  454loPI   C2A 7256   5.601   5.412   8.695  0.1628  0.0418 -0.0448
  454loPI   C3A 7257   5.754   5.410   8.328 -0.1180  0.0371 -0.3870
  454loPI   C4A 7258   5.933   5.459   7.961  0.0508  0.1208  0.1969
  454loPI   C5A 7259   5.964   5.740   7.560  0.1815 -0.1331 -0.1374
  454loPI   C6A 7260   5.975   5.759   7.064  0.0934 -0.2131  0.4511
  454loPI   C1B 7261   5.873   4.962   9.031 -0.1906 -0.2290  0.0657
  454loPI   C2B 7262   5.769   4.953   8.544  0.0854  0.0090 -0.1690
  454loPI   C3B 7263   5.826   4.970   8.103  0.0567  0.1089 -0.2623
  454loPI   C4B 7264   5.874   5.011   7.694  0.2819 -0.0584 -0.3075
  455loPI    C1 7265   3.712  12.068   9.770  0.1155  0.2368 -0.0094
  455loPI    C2 7266   3.915  12.237  10.071  0.2881 -0.0359  0.0307
  455loPI    C3 7267   3.683  11.918  10.139  0.1581  0.0319 -0.0879
  455loPI   PO4 7268   3.980  12.040   9.575 -0.0654  0.0100 -0.1406
  455loPI   GL1 7269   3.970  11.839   9.068  0.2041 -0.2491 -0.2810
  455loPI   GL2 7270   3.765  11.607   9.032 -0.4096  0.1660  0.0880
  455loPI   C1A 7271   4.277  12.041   8.908 -0.0207 -0.0385  0.2610
  455loPI   C2A 7272   4.263  12.262   8.550 -0.0276  0.0565  0.2633
  455loPI   C3A 7273   4.295  12.658   8.354 -0.0776  0.0498 -0.0050
  455loPI   C4A 7274   4.410  12.870   7.984  0.0563  0.1451 -0.0028
  455loPI   C5A 7275   4.211  12.919   7.576 -0.0044 -0.1734 -0.0820
  455loPI   C6A 7276   4.123  13.071   7.132  0.1381 -0.2666  0.0162
  455loPI   C1B 7277   3.956  11.274   8.800 -0.2039  0.1085 -0.2514
  455loPI   C2B 7278   4.285  11.284   8.391  0.1129  0.1943 -0.0966
  455loPI   C3B 7279   4.559  11.368   7.993 -0.0623 -0.0871  0.0872
  455loPI   C4B 7280   4.528  11.357   7.543 -0.3212 -0.1407  0.0355
  456loPI    C1 7281   1.200   7.300   9.740 -0.3916 -0.1480 -0.1127
  456loPI    C2 7282   0.977   7.007   9.896 -0.2033 -0.2291  0.0084
  456loPI    C3 7283   1.323   7.109  10.069 -0.3284  0.1544  0.0431
  456loPI   PO4 7284   1.192   7.323   9.521  0.1931 -0.0695 -0.1369
  456loPI   GL1 7285   0.936   7.273   9.162 -0.2631 -0.0852 -0.4292
  456loPI   GL2 7286   0.861   7.539   9.093  0.1077  0.2782 -0.0147
  456loPI   C1A 7287   0.890   7.012   8.813  0.3310 -0.2851  0.3125
  456loPI   C2A 7288   0.979   6.854   8.295  0.0319  0.3013 -0.1712
  456loPI   C3A 7289   0.842   7.173   7.988 -0.0709 -0.0338 -0.2748
  456loPI   C4A 7290   0.647   7.554   7.673 -0.0962  0.0279  0.0613
  456loPI   C5A 7291   0.650   7.727   7.250  0.2590  0.4068  0.1773
  456loPI   C6A 7292   0.316   7.462   7.017  0.1712  0.1742  0.0092
  456loPI   C1B 7293   1.243   7.742   8.914  0.0004 -0.0624 -0.1223
  456loPI   C2B 7294   1.444   7.722   8.542  0.0396 -0.0619  0.2874
  456loPI   C3B 7295   1.675   7.781   8.184  0.0956 -0.1013  0.0995
  456loPI   C4B 7296   1.992   7.702   7.871 -0.1976  0.2773  0.0245
  457loPI    C1 7297  18.122  15.863  10.170  0.2014 -0.2980  0.3016
  457loPI    C2 7298  18.440  15.930   9.937 -0.0263  0.2957  0.1447
  457loPI    C3 7299  18.328  16.204  10.207 -0.3967  0.0882  0.2080
  457loPI   PO4 7300  17.897  15.764   9.972 -0.0743  0.0790 -0.0384
  457loPI   GL1 7301  17.959  15.739   9.595 -0.1383 -0.1877 -0.1019
  457loPI   GL2 7302  18.280  15.920   9.443  0.1534  0.1821  0.0985
  457loPI   C1A 7303  17.839  15.886   9.090 -0.1997  0.1317 -0.1389
  457loPI   C2A 7304  17.667  15.985   8.640 -0.2213  0.0250 -0.3741
  457loPI   C3A 7305  17.771  16.091   8.155 -0.1342 -0.0643  0.3146
  457loPI   C4A 7306  17.654  15.961   7.687  0.1223  0.1117  0.1543
  457loPI   C5A 7307  17.643  16.054   7.182  0.1669 -0.2171  0.1953
  457loPI   C6A 7308  17.700  15.970   6.795  0.2529  0.0724 -0.0760
  457loPI   C1B 7309  18.406  16.002   9.006 -0.0161 -0.0859  0.0978
  457loPI   C2B 7310  18.678  16.180   8.799  0.0116  0.1668  0.1030
  457loPI   C3B 7311  18.679  16.313   8.383 -0.2265  0.1350 -0.0791
  457loPI   C4B 7312  18.812  16.524   8.138  0.0418 -0.0379  0.1771
  458loPI    C1 7313   8.019  13.741   9.861  0.0948 -0.2314 -0.2026
  458loPI    C2 7314   8.043  13.475  10.159 -0.3593  0.0351  0.0835
  458loPI    C3 7315   7.689  13.632  10.058 -0.1452  0.2891 -0.2992
  458loPI   PO4 7316   8.141  13.617   9.651  0.4408  0.0106 -0.0161
  458loPI   GL1 7317   7.930  13.794   9.271 -0.2601  0.0749 -0.2018
  458loPI   GL2 7318   8.081  13.457   9.073  0.0669 -0.2559 -0.1816
  458loPI   C1A 7319   7.904  13.859   8.827 -0.0414 -0.2159 -0.1569
  458loPI   C2A 7320   7.897  14.051   8.389 -0.1088 -0.0007  0.0968
  458loPI   C3A 7321   7.750  14.072   7.935 -0.0798 -0.0354 -0.0824
  458loPI   C4A 7322   7.768  14.017   7.422  0.0955 -0.1882  0.2450
  458loPI   C5A 7323   7.738  13.784   7.061 -0.2024 -0.1199 -0.0300
  458loPI   C6A 7324   7.639  13.590   6.800 -0.0146  0.0046 -0.0193
  458loPI   C1B 7325   8.173  13.464   8.654 -0.0455 -0.1799 -0.1413
  458loPI   C2B 7326   8.218  13.697   8.323  0.1966  0.2697 -0.1974
  458loPI   C3B 7327   8.480  13.576   8.034  0.2883 -0.0680 -0.0346
  458loPI   C4B 7328   8.669  13.571   7.686 -0.0510 -0.1611 -0.2173
  459loPI    C1 7329   6.904   9.173  10.096  0.1387 -0.0981  0.0337
  459loPI    C2 7330   7.052   9.543  10.068  0.0939 -0.0845 -0.0260
  459loPI    C3 7331   6.992   9.379  10.428  0.0176  0.0052  0.0027
  459loPI   PO4 7332   6.758   9.200   9.779  0.0077  0.0040  0.1037
  459loPI   GL1 7333   6.569   9.389   9.254  0.0401  0.2387  0.0631
  459loPI   GL2 7334   6.813   9.172   9.277  0.0557 -0.0174 -0.0582
  459loPI   C1A 7335   6.511   9.295   8.720 -0.0221  0.1426 -0.0152
  459loPI   C2A 7336   6.702   8.984   8.486  0.0448  0.0505  0.0985
  459loPI   C3A 7337   6.895   8.849   8.177  0.2678 -0.1800  0.2268
  459loPI   C4A 7338   7.186   8.760   7.870  0.0219  0.3255 -0.2093
  459loPI   C5A 7339   7.471   8.894   7.491  0.1325  0.1997  0.2011
  459loPI   C6A 7340   7.761   9.115   7.151  0.0289  0.1043  0.3335
  459loPI   C1B 7341   7.116   9.046   8.908  0.1476 -0.3457  0.1088
  459loPI   C2B 7342   7.270   9.104   8.442  0.1218  0.2722  0.0044
  459loPI   C3B 7343   7.587   9.023   8.105 -0.2018  0.2780  0.0118
  459loPI   C4B 7344   8.036   8.908   7.755 -0.2986 -0.1767 -0.0147
  460loPI    C1 7345   5.517   2.959   9.936 -0.0172  0.0300  0.1055
  460loPI    C2 7346   5.747   3.088   9.635 -0.0046 -0.0095  0.0980
  460loPI    C3 7347   5.905   3.031   9.998  0.0036 -0.0631  0.0861
  460loPI   PO4 7348   5.405   2.752   9.797  0.3262 -0.2259 -0.0986
  460loPI   GL1 7349   5.413   2.812   9.380 -0.1451  0.2604 -0.2375
  460loPI   GL2 7350   5.759   2.726   9.236  0.0309 -0.0238 -0.0028
  460loPI   C1A 7351   5.295   2.799   8.852  0.0984 -0.0744 -0.1175
  460loPI   C2A 7352   5.342   2.860   8.349 -0.2944 -0.3819 -0.0862
  460loPI   C3A 7353   5.328   2.778   7.948  0.1904  0.3189  0.0922
  460loPI   C4A 7354   5.202   3.074   7.618 -0.0005 -0.2689 -0.2156
  460loPI   C5A 7355   5.287   3.304   7.252  0.4414  0.2501 -0.0251
  460loPI   C6A 7356   5.360   3.352   6.834 -0.4726  0.0614 -0.0112
  460loPI   C1B 7357   5.783   3.098   9.151 -0.1645  0.1330 -0.1521
  460loPI   C2B 7358   6.120   3.370   9.068 -0.4499 -0.0623 -0.0357
  460loPI   C3B 7359   6.203   3.564   8.631  0.1053  0.0985  0.0367
  460loPI   C4B 7360   6.365   3.599   8.193 -0.0555  0.0258 -0.2548
  461loPI    C1 7361   6.464   2.157   9.969 -0.1318  0.1096  0.0293
  461loPI    C2 7362   6.658   2.507   9.981 -0.0189  0.0463  0.0675
  461loPI    C3 7363   6.860   2.165  10.024 -0.1249 -0.0254  0.0009
  461loPI   PO4 7364   6.166   2.233   9.831 -0.1135  0.2815 -0.0368
  461loPI   GL1 7365   6.154   2.168   9.475 -0.3403 -0.0909  0.1883
  461loPI   GL2 7366   6.245   1.820   9.557  0.0084 -0.3636  0.2027
  461loPI   C1A 7367   6.096   2.419   8.993  0.1596  0.1787  0.2110
  461loPI   C2A 7368   6.134   2.461   8.538 -0.2775 -0.1779  0.0160
  461loPI   C3A 7369   6.316   2.609   8.194  0.2170  0.0508  0.0123
  461loPI   C4A 7370   6.603   2.820   7.933 -0.1089  0.2629 -0.2140
  461loPI   C5A 7371   6.390   2.999   7.581  0.0349 -0.2564 -0.0197
  461loPI   C6A 7372   6.086   3.138   7.284  0.0814 -0.0034  0.1231
  461loPI   C1B 7373   6.327   1.895   9.082 -0.2290  0.2641  0.4774
  461loPI   C2B 7374   6.381   1.877   8.595 -0.0364 -0.0864 -0.0198
  461loPI   C3B 7375   6.664   2.064   8.298  0.1182  0.1439 -0.2131
  461loPI   C4B 7376   6.778   2.442   8.246  0.0919 -0.0353  0.1907
  462loPI    C1 7377  12.351  11.257   9.975  0.1030 -0.1239 -0.2188
  462loPI    C2 7378  11.976  11.243   9.838  0.0136  0.0936 -0.0029
  462loPI    C3 7379  12.050  11.389  10.203  0.2978 -0.0460 -0.0026
  462loPI   PO4 7380  12.493  11.307   9.658 -0.0640 -0.2259 -0.1259
  462loPI   GL1 7381  12.631  11.017   9.365  0.2112  0.1262 -0.0819
  462loPI   GL2 7382  12.788  10.894   9.568  0.0382  0.1666  0.2577
  462loPI   C1A 7383  12.484  10.912   8.956 -0.1173 -0.2460 -0.1154
  462loPI   C2A 7384  12.213  10.778   8.646  0.1040  0.1327  0.3304
  462loPI   C3A 7385  12.140  10.709   8.221 -0.0304  0.2985 -0.1659
  462loPI   C4A 7386  12.133  10.570   7.828  0.0698  0.0428 -0.1165
  462loPI   C5A 7387  12.422  10.554   7.513  0.0064 -0.1258 -0.1477
  462loPI   C6A 7388  12.429  10.394   7.154  0.0730  0.0124 -0.0600
  462loPI   C1B 7389  12.926  10.506   9.344 -0.1563  0.1370  0.2194
  462loPI   C2B 7390  13.289  10.269   9.168  0.1028  0.0054  0.0365
  462loPI   C3B 7391  13.693  10.063   8.959 -0.1104  0.2907  0.1995
  462loPI   C4B 7392  13.823   9.651   8.782 -0.0569  0.1031  0.2949
  463loPI    C1 7393   3.803   5.187  10.223  0.0542 -0.2575 -0.2421
  463loPI    C2 7394   3.944   5.097  10.586 -0.0806  0.2029 -0.0694
  463loPI    C3 7395   3.650   4.878  10.426 -0.0243  0.0007  0.0997
  463loPI   PO4 7396   4.029   5.202  10.099 -0.1809 -0.1664  0.0094
  463loPI   GL1 7397   4.193   5.460   9.714  0.0387 -0.0716  0.3190
  463loPI   GL2 7398   4.347   5.768   9.549  0.2106  0.1177 -0.0035
  463loPI   C1A 7399   4.089   5.315   9.311  0.1616  0.1854 -0.1485
  463loPI   C2A 7400   4.154   5.232   8.841 -0.0632 -0.3118  0.0494
  463loPI   C3A 7401   4.299   5.201   8.370 -0.0997  0.2336 -0.0006
  463loPI   C4A 7402   4.261   5.192   7.888  0.1045 -0.2347 -0.2385
  463loPI   C5A 7403   4.204   4.868   7.578  0.3146  0.2183 -0.2340
  463loPI   C6A 7404   4.372   4.566   7.394 -0.2662  0.2591  0.2556
  463loPI   C1B 7405   4.435   5.593   9.142  0.0277  0.1693  0.1341
  463loPI   C2B 7406   4.593   5.562   8.723  0.1098  0.3691 -0.4866
  463loPI   C3B 7407   4.686   5.577   8.391 -0.4496  0.2056 -0.1663
  463loPI   C4B 7408   4.501   5.596   8.013  0.0746  0.0120  0.4518
  464loPI    C1 7409   1.114  16.473   9.792 -0.0974  0.0700 -0.2382
  464loPI    C2 7410   0.887  16.185   9.951 -0.0072  0.0667 -0.1139
  464loPI    C3 7411   0.939  16.530  10.147 -0.2072  0.2135 -0.3144
  464loPI   PO4 7412   1.122  16.394   9.507  0.0255  0.2244 -0.1112
  464loPI   GL1 7413   0.994  16.155   9.105  0.0322  0.1655 -0.0572
  464loPI   GL2 7414   1.284  15.991   9.146  0.1333 -0.1238 -0.0360
  464loPI   C1A 7415   0.615  16.121   8.732  0.1467  0.1091 -0.1023
  464loPI   C2A 7416   0.477  16.099   8.269 -0.0491 -0.0052  0.2172
  464loPI   C3A 7417   0.458  16.120   7.930 -0.1980 -0.0672  0.1253
  464loPI   C4A 7418   0.357  16.173   7.516 -0.0782  0.2598 -0.0244
  464loPI   C5A 7419   0.353  16.206   7.061 -0.0381  0.0920  0.0408
  464loPI   C6A 7420   0.293  16.343   6.594 -0.3296 -0.3566  0.0577
  464loPI   C1B 7421   1.448  16.204   8.845 -0.1081  0.0832  0.0149
  464loPI   C2B 7422   1.479  16.366   8.361 -0.2826 -0.3541  0.1838
  464loPI   C3B 7423   1.901  16.462   8.219  0.2243 -0.0486  0.0453
  464loPI   C4B 7424   1.887  16.895   8.046  0.0173 -0.3629 -0.2324
  465loPI    C1 7425   7.952   7.342   9.995  0.5748 -0.2625 -0.2454
  465loPI    C2 7426   7.847   7.022  10.212  0.0494  0.0797  0.0252
  465loPI    C3 7427   8.044   7.325  10.384 -0.0595  0.1994 -0.0588
  465loPI   PO4 7428   7.791   7.321   9.844  0.1384  0.0006 -0.0083
  465loPI   GL1 7429   7.527   7.272   9.490  0.0054  0.1972  0.2266
  465loPI   GL2 7430   7.805   7.299   9.353 -0.1289 -0.1661 -0.0327
  465loPI   C1A 7431   7.387   7.363   9.103 -0.0171 -0.0523  0.0006
  465loPI   C2A 7432   7.312   7.223   8.755 -0.0529  0.1970 -0.3064
  465loPI   C3A 7433   7.063   7.320   8.351 -0.1502 -0.2402 -0.0034
  465loPI   C4A 7434   6.968   7.405   7.935 -0.2118  0.3266  0.1179
  465loPI   C5A 7435   7.028   7.372   7.507 -0.1329  0.0608  0.1138
  465loPI   C6A 7436   7.211   7.396   7.156  0.0804 -0.0205 -0.0021
  465loPI   C1B 7437   7.889   7.039   8.938 -0.0165  0.1338 -0.2437
  465loPI   C2B 7438   7.773   6.895   8.494 -0.2458  0.1634  0.4347
  465loPI   C3B 7439   7.917   7.015   8.054 -0.1648  0.1886 -0.0331
  465loPI   C4B 7440   7.765   7.363   7.749 -0.2008 -0.0184 -0.0933
  466loPI    C1 7441  13.605  14.904   9.970 -0.0645  0.1313  0.2104
  466loPI    C2 7442  13.575  14.520  10.079  0.1984 -0.0098 -0.1943
  466loPI    C3 7443  13.729  14.788  10.332 -0.3196 -0.0955  0.2293
  466loPI   PO4 7444  13.696  14.905   9.761 -0.2462 -0.0713  0.0688
  466loPI   GL1 7445  13.654  15.208   9.449 -0.1209 -0.1788  0.0726
  466loPI   GL2 7446  13.964  15.221   9.420  0.1072  0.0311 -0.2140
  466loPI   C1A 7447  13.510  15.220   8.985  0.1174 -0.1362  0.2041
  466loPI   C2A 7448  13.537  15.102   8.486 -0.1343  0.1398  0.0316
  466loPI   C3A 7449  13.667  14.935   8.018  0.1168 -0.3894 -0.2616
  466loPI   C4A 7450  13.763  14.883   7.569 -0.0667  0.2275  0.0665
  466loPI   C5A 7451  14.172  14.853   7.375  0.0798 -0.0454 -0.0896
  466loPI   C6A 7452  14.525  15.058   7.272  0.4357 -0.2291  0.5480
  466loPI   C1B 7453  13.992  15.199   9.039  0.1384 -0.1449  0.0702
  466loPI   C2B 7454  14.032  15.299   8.628  0.3116  0.1436 -0.1184
  466loPI   C3B 7455  13.971  15.350   8.190  0.1647  0.1365 -0.1665
  466loPI   C4B 7456  14.071  15.513   7.798  0.2173 -0.1049  0.2137
  467loPI    C1 7457   8.640  11.286   9.706 -0.1333  0.0670  0.1692
  467loPI    C2 7458   8.786  11.580   9.477 -0.1713 -0.0174  0.0355
  467loPI    C3 7459   8.828  11.596   9.874  0.1011  0.0161  0.0068
  467loPI   PO4 7460   8.480  11.191   9.486  0.1294  0.0388  0.1848
  467loPI   GL1 7461   8.617  10.988   9.095  0.0246 -0.2101  0.1757
  467loPI   GL2 7462   8.843  11.175   9.115 -0.0555 -0.4564  0.2432
  467loPI   C1A 7463   8.655  10.927   8.640  0.0253  0.2377  0.1987
  467loPI   C2A 7464   8.747  10.936   8.208 -0.1156 -0.2965 -0.1350
  467loPI   C3A 7465   8.681  11.050   7.799 -0.1544  0.1110  0.3507
  467loPI   C4A 7466   8.851  10.870   7.385  0.2642  0.1961 -0.1394
  467loPI   C5A 7467   9.033  10.873   7.042 -0.2407  0.1417 -0.1573
  467loPI   C6A 7468   9.472  10.766   7.042  0.1198  0.2042 -0.2453
  467loPI   C1B 7469   9.060  10.765   8.901  0.0979  0.0012  0.0895
  467loPI   C2B 7470   9.285  10.698   8.435  0.0087 -0.0989  0.2399
  467loPI   C3B 7471   9.182  10.752   7.994  0.1595  0.0746 -0.2739
  467loPI   C4B 7472   9.267  10.782   7.591 -0.1209  0.2244  0.0767
  468loPI    C1 7473   7.805   0.744  10.408  0.0893  0.1382  0.0460
  468loPI    C2 7474   8.077   0.627  10.677  0.0436  0.0402  0.0500
  468loPI    C3 7475   7.692   0.661  10.783  0.0342  0.0550  0.0113
  468loPI   PO4 7476   7.937   0.642  10.182  0.0872 -0.3719 -0.2221
  468loPI   GL1 7477   8.028   0.545   9.816 -0.2222 -0.1142  0.0135
  468loPI   GL2 7478   8.365   0.479   9.754 -0.0561 -0.2628  0.0999
  468loPI   C1A 7479   7.865   0.752   9.462  0.0395  0.2482  0.2167
  468loPI   C2A 7480   7.686   0.590   9.150 -0.1006 -0.1553 -0.1531
  468loPI   C3A 7481   7.729   0.760   8.665  0.0153 -0.1112 -0.1931
  468loPI   C4A 7482   7.731   0.731   8.164 -0.0545 -0.1931 -0.0280
  468loPI   C5A 7483   7.929   0.957   7.787  0.0798  0.1162 -0.1166
  468loPI   C6A 7484   8.214   1.152   7.500 -0.0715  0.0596  0.1923
  468loPI   C1B 7485   8.533   0.288   9.351  0.1033  0.1384 -0.0933
  468loPI   C2B 7486   8.570   0.323   8.802  0.0334  0.1244 -0.3436
  468loPI   C3B 7487   8.451   0.299   8.344  0.0843 -0.2931 -0.2083
  468loPI   C4B 7488   8.324   0.214   7.894 -0.0555 -0.1156  0.0046
  469loPI    C1 7489   5.766  17.221  10.329  0.0116  0.1249 -0.0475
  469loPI    C2 7490   5.395  17.177  10.471  0.0347 -0.2027 -0.0824
  469loPI    C3 7491   5.657  17.407  10.666 -0.2333  0.1671 -0.1476
  469loPI   PO4 7492   5.828  16.907  10.238 -0.1003 -0.0957 -0.0395
  469loPI   GL1 7493   5.927  16.911   9.866  0.1956  0.0733  0.2747
  469loPI   GL2 7494   6.251  16.986   9.903 -0.2927  0.1290  0.1287
  469loPI   C1A 7495   5.874  16.967   9.521  0.3002  0.0660 -0.0207
  469loPI   C2A 7496   5.714  17.153   9.127  0.4308  0.0203 -0.4275
  469loPI   C3A 7497   5.643  17.313   8.682 -0.1123  0.1931  0.0276
  469loPI   C4A 7498   5.705  17.377   8.337  0.0636 -0.2288 -0.0719
  469loPI   C5A 7499   5.706  17.511   7.852 -0.3415 -0.0552 -0.2343
  469loPI   C6A 7500   5.791  17.596   7.365  0.2559  0.0580  0.1820
  469loPI   C1B 7501   6.348  17.133   9.488 -0.3435  0.1151 -0.0886
  469loPI   C2B 7502   6.222  17.236   9.031  0.0403 -0.2332  0.0524
  469loPI   C3B 7503   6.218  17.334   8.542  0.1804  0.4277 -0.1221
  469loPI   C4B 7504   6.342  17.399   8.076  0.1070 -0.0805 -0.1335
  470loPI    C1 7505   2.167   5.162  10.191 -0.0398  0.1820  0.0446
  470loPI    C2 7506   2.303   4.836  10.380 -0.0991  0.2237  0.1605
  470loPI    C3 7507   1.976   5.023  10.514 -0.1538  0.2420  0.0034
  470loPI   PO4 7508   2.288   5.103   9.911  0.1421 -0.2232 -0.4106
  470loPI   GL1 7509   2.100   4.949   9.548  0.0908  0.2017 -0.0785
  470loPI   GL2 7510   2.315   4.721   9.551  0.1324 -0.0798  0.2344
  470loPI   C1A 7511   2.127   5.228   9.123  0.2191 -0.0087 -0.1073
  470loPI   C2A 7512   2.062   5.402   8.796 -0.2889  0.0053 -0.0169
  470loPI   C3A 7513   2.190   5.424   8.355  0.1709 -0.1573  0.1947
  470loPI   C4A 7514   2.185   5.149   7.950  0.0121 -0.5044 -0.1643
  470loPI   C5A 7515   1.872   4.977   7.736  0.0044 -0.1246 -0.2742
  470loPI   C6A 7516   1.502   4.744   7.784 -0.0415 -0.1583  0.1864
  470loPI   C1B 7517   2.771   4.705   9.394  0.2146  0.0897 -0.1635
  470loPI   C2B 7518   3.129   4.671   9.019 -0.3648  0.1778  0.0862
  470loPI   C3B 7519   3.341   4.814   8.704 -0.0712 -0.0558 -0.0858
  470loPI   C4B 7520   3.591   4.647   8.318 -0.1056  0.1226  0.1770
  471loPI    C1 7521   8.151  17.492  10.161 -0.1219  0.3053 -0.2100
  471loPI    C2 7522   8.265  17.835  10.332  0.1195 -0.0202  0.3068
  471loPI    C3 7523   8.515  17.523  10.324 -0.0933 -0.1873 -0.1669
  471loPI   PO4 7524   8.057  17.584   9.962 -0.0190  0.0414 -0.1626
  471loPI   GL1 7525   8.169  17.716   9.537  0.1581 -0.0558 -0.1060
  471loPI   GL2 7526   8.255  17.412   9.472  0.0007 -0.1413 -0.3863
  471loPI   C1A 7527   8.067  17.744   9.177  0.0098 -0.0856  0.1224
  471loPI   C2A 7528   8.050  17.755   8.719 -0.2881 -0.1321 -0.1963
  471loPI   C3A 7529   7.770  17.788   8.379 -0.0143  0.0603 -0.2976
  471loPI   C4A 7530   7.561  17.722   8.012  0.1260  0.0929 -0.0542
  471loPI   C5A 7531   7.441  17.527   7.730 -0.2036  0.0682  0.0565
  471loPI   C6A 7532   7.054  17.307   7.592  0.1670 -0.0461  0.1051
  471loPI   C1B 7533   8.316  17.381   9.088 -0.3173  0.0071 -0.0141
  471loPI   C2B 7534   8.433  17.167   8.700 -0.0742 -0.1386  0.0383
  471loPI   C3B 7535   8.522  16.928   8.277 -0.2188  0.2510  0.1174
  471loPI   C4B 7536   8.291  17.008   7.878 -0.0417  0.2020  0.1054
  472loPI    C1 7537   8.381  16.723  10.200  0.0429 -0.0772  0.1259
  472loPI    C2 7538   8.145  16.550  10.473  0.0187 -0.2096  0.0220
  472loPI    C3 7539   8.282  16.338  10.163  0.1074 -0.0796 -0.0289
  472loPI   PO4 7540   8.269  16.996  10.149 -0.0751 -0.3134  0.0769
  472loPI   GL1 7541   8.119  17.037   9.789  0.1848  0.0172 -0.0995
  472loPI   GL2 7542   8.301  16.921   9.645 -0.0312 -0.2087  0.2681
  472loPI   C1A 7543   7.897  17.011   9.305  0.1730 -0.0967  0.1932
  472loPI   C2A 7544   7.996  16.895   8.878  0.0627  0.1807  0.0409
  472loPI   C3A 7545   7.963  16.874   8.405 -0.3978 -0.0003  0.1126
  472loPI   C4A 7546   7.740  17.124   7.906  0.1761 -0.0205 -0.1420
  472loPI   C5A 7547   7.454  16.932   7.572  0.0167 -0.1741 -0.1389
  472loPI   C6A 7548   7.307  17.179   7.204 -0.0735 -0.0818  0.0836
  472loPI   C1B 7549   8.356  16.729   9.238  0.1779 -0.1783  0.2278
  472loPI   C2B 7550   8.673  16.546   8.877  0.1280  0.2814  0.0162
  472loPI   C3B 7551   8.846  16.363   8.548  0.1584 -0.0675  0.4433
  472loPI   C4B 7552   9.074  16.096   8.209  0.0541 -0.1159 -0.2298
  473loPI    C1 7553  15.862  10.240   9.523 -0.1130  0.2134  0.0396
  473loPI    C2 7554  15.982  10.121   9.886 -0.0562  0.1550  0.0019
  473loPI    C3 7555  15.795  10.472   9.842 -0.1655  0.1102  0.1042
  473loPI   PO4 7556  15.954  10.043   9.376  0.0541  0.1881 -0.3745
  473loPI   GL1 7557  16.151   9.774   9.045  0.1215  0.2892  0.3894
  473loPI   GL2 7558  15.868   9.786   8.819 -0.1655  0.0720  0.1038
  473loPI   C1A 7559  16.458   9.762   8.654 -0.0635 -0.0588  0.2109
  473loPI   C2A 7560  16.478   9.775   8.193  0.0390 -0.3142 -0.1934
  473loPI   C3A 7561  16.503   9.904   7.768  0.3332  0.2310 -0.2901
  473loPI   C4A 7562  16.490   9.600   7.370 -0.2239 -0.0523  0.0110
  473loPI   C5A 7563  16.470   9.415   7.018  0.1193  0.0294  0.1996
  473loPI   C6A 7564  16.295   9.303   6.632 -0.0344  0.1379  0.0739
  473loPI   C1B 7565  15.967   9.830   8.373  0.0749  0.0635 -0.1530
  473loPI   C2B 7566  16.080  10.077   8.016 -0.0848 -0.0332 -0.2190
  473loPI   C3B 7567  15.916   9.966   7.650 -0.2968  0.1212  0.0228
  473loPI   C4B 7568  15.796  10.105   7.165 -0.1777 -0.1241 -0.2304
  474loPI    C1 7569   0.714  10.004   9.550  0.1524 -0.0062  0.1533
  474loPI    C2 7570   0.432  10.281   9.602  0.1548  0.0356 -0.0485
  474loPI    C3 7571   0.816  10.375   9.659  0.1818  0.1604 -0.4105
  474loPI   PO4 7572   0.630   9.887   9.292  0.1677 -0.1420 -0.0831
  474loPI   GL1 7573   0.502   9.841   8.931  0.2846  0.3606  0.1576
  474loPI   GL2 7574   0.332   9.984   8.765 -0.0771 -0.3131  0.2414
  474loPI   C1A 7575   0.713   9.742   8.613  0.1059  0.2332 -0.0736
  474loPI   C2A 7576   0.801   9.724   8.127  0.4768  0.0779  0.0713
  474loPI   C3A 7577   0.527   9.487   7.875  0.0343  0.2000 -0.0312
  474loPI   C4A 7578   0.599   9.433   7.537  0.0563  0.1928  0.0033
  474loPI   C5A 7579   0.857   9.062   7.225  0.0226  0.0056  0.4119
  474loPI   C6A 7580   0.746   8.683   7.223  0.1869 -0.1767 -0.1995
  474loPI   C1B 7581   0.368  10.055   8.325 -0.0283 -0.1484  0.2425
  474loPI   C2B 7582   0.399  10.035   7.936 -0.2057  0.0107  0.1558
  474loPI   C3B 7583   0.619  10.040   7.558 -0.1320  0.1089  0.0892
  474loPI   C4B 7584   0.796  10.228   7.191  0.1016  0.2540  0.1136
  475loPI    C1 7585  17.127  10.070   9.708 -0.0814  0.4205 -0.0355
  475loPI    C2 7586  16.999   9.750   9.910 -0.0215  0.1773 -0.3728
  475loPI    C3 7587  16.765  10.073   9.878  0.0768  0.3336  0.3114
  475loPI   PO4 7588  17.210  10.037   9.465  0.4192  0.0004 -0.2361
  475loPI   GL1 7589  17.234  10.131   9.046  0.2003 -0.0895  0.0187
  475loPI   GL2 7590  17.141   9.809   9.023  0.1553  0.2155 -0.2772
  475loPI   C1A 7591  17.311  10.215   8.545  0.1173  0.2434  0.4034
  475loPI   C2A 7592  17.361  10.280   8.172 -0.1480 -0.1397 -0.1666
  475loPI   C3A 7593  17.420  10.342   7.815  0.1338  0.1413 -0.2052
  475loPI   C4A 7594  17.322  10.443   7.403 -0.2022  0.1699  0.2292
  475loPI   C5A 7595  17.226  10.723   7.128  0.1752  0.1152 -0.0649
  475loPI   C6A 7596  17.066  10.615   6.676  0.4766 -0.3851  0.0180
  475loPI   C1B 7597  16.996   9.759   8.657 -0.0844 -0.0331 -0.0120
  475loPI   C2B 7598  16.871   9.573   8.430 -0.0125  0.0410 -0.0524
  475loPI   C3B 7599  16.913   9.614   8.036  0.1475  0.0514  0.2316
  475loPI   C4B 7600  16.937   9.556   7.663  0.3628  0.0058  0.1018
  476loPI    C1 7601  14.632   7.873   9.591 -0.1644  0.2168 -0.1879
  476loPI    C2 7602  14.983   7.827   9.776 -0.2043  0.1440 -0.1297
  476loPI    C3 7603  14.648   7.869   9.990 -0.2646 -0.0452 -0.1844
  476loPI   PO4 7604  14.556   7.695   9.458 -0.0881 -0.2161 -0.0737
  476loPI   GL1 7605  14.632   7.356   9.239 -0.1757 -0.0368 -0.0162
  476loPI   GL2 7606  14.368   7.205   9.332  0.1498 -0.3381 -0.2057
  476loPI   C1A 7607  14.487   7.050   8.865 -0.1307 -0.1570 -0.2271
  476loPI   C2A 7608  14.504   6.830   8.538  0.0016 -0.0180  0.1121
  476loPI   C3A 7609  14.268   6.551   8.340  0.1127  0.1221  0.3534
  476loPI   C4A 7610  13.880   6.587   8.090 -0.1308 -0.2296  0.3841
  476loPI   C5A 7611  13.643   6.631   7.707 -0.1415 -0.3092  0.1826
  476loPI   C6A 7612  13.437   6.934   7.443  0.3259 -0.1434 -0.0250
  476loPI   C1B 7613  13.989   7.150   9.136 -0.1616  0.0526  0.1205
  476loPI   C2B 7614  13.762   7.281   8.886  0.1241  0.0383  0.1225
  476loPI   C3B 7615  13.699   7.335   8.388 -0.3898 -0.3365  0.0755
  476loPI   C4B 7616  13.607   7.619   8.114  0.5674  0.3513 -0.1201
  477loPI    C1 7617   8.284   7.780   9.681 -0.0507  0.1346 -0.1800
  477loPI    C2 7618   8.431   7.726  10.050 -0.1457 -0.1403 -0.1800
  477loPI    C3 7619   8.537   8.048   9.837 -0.2257  0.1114  0.1531
  477loPI   PO4 7620   8.240   7.505   9.594  0.3168 -0.0370 -0.3191
  477loPI   GL1 7621   8.371   7.315   9.370  0.1681  0.0514  0.3605
  477loPI   GL2 7622   8.340   6.974   9.219 -0.2096  0.0261  0.3209
  477loPI   C1A 7623   8.734   7.361   9.055 -0.1017  0.1114  0.1527
  477loPI   C2A 7624   8.841   7.376   8.588 -0.2392 -0.1387 -0.0165
  477loPI   C3A 7625   8.601   7.487   8.255  0.2455 -0.3441  0.2284
  477loPI   C4A 7626   8.780   7.529   7.894  0.0203  0.1345  0.1257
  477loPI   C5A 7627   8.993   7.841   7.660  0.2157  0.0272  0.1051
  477loPI   C6A 7628   9.163   8.215   7.826 -0.0548  0.0258 -0.0216
  477loPI   C1B 7629   8.458   6.851   8.854 -0.0775  0.2031  0.1211
  477loPI   C2B 7630   8.825   6.823   8.644 -0.1082 -0.1369 -0.3186
  477loPI   C3B 7631   9.014   6.574   8.318  0.1671 -0.1838 -0.0067
  477loPI   C4B 7632   9.211   6.350   7.922  0.1514 -0.2195  0.0092
  478loPI    C1 7633   1.609   3.390  10.336 -0.0261 -0.0364 -0.0944
  478loPI    C2 7634   1.789   3.648  10.583 -0.1368 -0.1554  0.1133
  478loPI    C3 7635   1.392   3.660  10.537 -0.1049 -0.0568 -0.1518
  478loPI   PO4 7636   1.800   3.328  10.158 -0.1748  0.0015  0.1108
  478loPI   GL1 7637   1.791   3.434   9.757  0.2651  0.0441  0.2795
  478loPI   GL2 7638   1.595   3.323   9.541 -0.0686  0.1764  0.0818
  478loPI   C1A 7639   2.080   3.279   9.428 -0.1159  0.0004 -0.1124
  478loPI   C2A 7640   2.086   3.277   8.956 -0.0392  0.0102  0.1249
  478loPI   C3A 7641   2.004   3.236   8.468 -0.2920  0.1509 -0.1501
  478loPI   C4A 7642   1.986   3.183   8.005  0.0548 -0.2281  0.0117
  478loPI   C5A 7643   1.964   3.341   7.558 -0.3184 -0.3748  0.4024
  478loPI   C6A 7644   1.945   3.483   7.150 -0.1188  0.0100 -0.0312
  478loPI   C1B 7645   1.508   3.328   9.113  0.0279 -0.0283 -0.0310
  478loPI   C2B 7646   1.504   3.207   8.688 -0.0493  0.0754 -0.0957
  478loPI   C3B 7647   1.515   3.198   8.196  0.3593 -0.1796 -0.2652
  478loPI   C4B 7648   1.364   3.054   7.854  0.2189 -0.2144 -0.3966
  479loPI    C1 7649   6.144  10.909   9.682  0.0647  0.2056 -0.1391
  479loPI    C2 7650   6.157  10.928  10.081 -0.0363 -0.0928 -0.1193
  479loPI    C3 7651   6.027  11.242   9.871 -0.0320  0.0477  0.0842
  479loPI   PO4 7652   6.262  10.823   9.548 -0.0299  0.0929  0.2723
  479loPI   GL1 7653   6.481  11.031   9.259  0.2412  0.2811 -0.0025
  479loPI   GL2 7654   6.854  11.092   9.329 -0.1371 -0.2435 -0.2385
  479loPI   C1A 7655   6.255  11.202   8.807 -0.1444  0.0428 -0.0736
  479loPI   C2A 7656   5.894  11.180   8.435  0.1665  0.0386 -0.0698
  479loPI   C3A 7657   5.779  11.299   8.059 -0.2070 -0.1200 -0.2461
  479loPI   C4A 7658   5.526  11.304   7.698 -0.0199 -0.1397 -0.1699
  479loPI   C5A 7659   5.500  11.416   7.305  0.4110 -0.2824 -0.2531
  479loPI   C6A 7660   5.571  11.588   6.929  0.2197  0.0508 -0.0476
  479loPI   C1B 7661   6.798  10.926   8.925 -0.0273 -0.1366  0.0702
  479loPI   C2B 7662   6.525  10.809   8.548  0.2556 -0.1284  0.1203
  479loPI   C3B 7663   6.263  10.734   8.245  0.3196  0.0200 -0.2996
  479loPI   C4B 7664   5.886  10.834   8.094 -0.1064  0.0197  0.0185
  480loPI    C1 7665  10.604  17.072   9.840 -0.0070  0.0406 -0.0382
  480loPI    C2 7666  10.333  17.049  10.135  0.0700  0.1800  0.0444
  480loPI    C3 7667  10.716  16.958  10.207  0.0501  0.0035 -0.0672
  480loPI   PO4 7668  10.479  16.942   9.649  0.1304  0.2184 -0.2462
  480loPI   GL1 7669  10.263  16.827   9.312  0.1729  0.1610 -0.0561
  480loPI   GL2 7670  10.387  17.065   9.185 -0.1579 -0.0412 -0.0942
  480loPI   C1A 7671  10.322  16.546   8.959  0.2373 -0.1547 -0.2345
  480loPI   C2A 7672  10.302  16.406   8.602 -0.1156  0.0199 -0.1341
  480loPI   C3A 7673  10.506  16.127   8.289 -0.2239 -0.0629 -0.1375
  480loPI   C4A 7674  10.465  16.035   7.867 -0.0349 -0.0572 -0.0448
  480loPI   C5A 7675  10.551  15.722   7.474  0.0914 -0.0285 -0.1513
  480loPI   C6A 7676  10.859  15.443   7.423  0.0216 -0.2331 -0.2037
  480loPI   C1B 7677  10.184  16.947   8.684  0.0818  0.0889 -0.1430
  480loPI   C2B 7678  10.180  16.955   8.289  0.0716 -0.1463  0.3601
  480loPI   C3B 7679  10.215  17.070   7.854  0.0789  0.2645 -0.1172
  480loPI   C4B 7680  10.131  16.777   7.556  0.3674  0.0652 -0.1742
  481loPI    C1 7681  -0.051  17.395   9.935 -0.1696  0.1024  0.1202
  481loPI    C2 7682   0.149  17.646  10.173 -0.0446 -0.0228  0.1480
  481loPI    C3 7683  -0.066  17.348  10.332  0.0108 -0.0850  0.1064
  481loPI   PO4 7684  -0.042  17.500   9.745  0.0642 -0.1244 -0.0371
  481loPI   GL1 7685   0.003  17.443   9.291  0.3187 -0.2514  0.1366
  481loPI   GL2 7686   0.222  17.473   9.211 -0.3107  0.0490 -0.0504
  481loPI   C1A 7687  -0.116  17.808   9.027  0.2095  0.0721  0.2245
  481loPI   C2A 7688  -0.210  17.783   8.576 -0.0680  0.0907 -0.0509
  481loPI   C3A 7689   0.153  17.702   8.415 -0.1866 -0.0661  0.2867
  481loPI   C4A 7690   0.308  17.971   7.981 -0.0453  0.1495  0.0015
  481loPI   C5A 7691   0.246  18.440   7.873 -0.0935 -0.2511  0.2508
  481loPI   C6A 7692   0.474  18.555   7.440 -0.1618  0.0923  0.3028
  481loPI   C1B 7693   0.089  17.392   8.787  0.0246 -0.1242 -0.3454
  481loPI   C2B 7694  -0.204  17.286   8.477  0.0599  0.3460  0.0171
  481loPI   C3B 7695  -0.278  17.033   8.061 -0.0012  0.1516 -0.1203
  481loPI   C4B 7696  -0.658  17.136   7.731  0.3155 -0.0797  0.0704
  482loPI    C1 7697   4.008   2.580  10.302 -0.0658 -0.0967 -0.1249
  482loPI    C2 7698   3.617   2.511  10.357 -0.0373 -0.1423  0.0248
  482loPI    C3 7699   3.829   2.699  10.639  0.0754 -0.2274 -0.0022
  482loPI   PO4 7700   4.010   2.633  10.072 -0.1111 -0.0621 -0.2889
  482loPI   GL1 7701   3.736   2.552   9.712 -0.2009  0.1056 -0.0153
  482loPI   GL2 7702   3.476   2.711   9.878 -0.5392  0.1058 -0.2441
  482loPI   C1A 7703   3.583   2.435   9.351  0.3453  0.0112  0.0817
  482loPI   C2A 7704   3.626   2.418   8.950  0.0301  0.0399 -0.1360
  482loPI   C3A 7705   3.615   2.388   8.537  0.3014  0.1195  0.3186
  482loPI   C4A 7706   3.518   2.302   8.150  0.3114  0.0722  0.1617
  482loPI   C5A 7707   3.523   2.377   7.671  0.0014  0.3079 -0.0362
  482loPI   C6A 7708   3.360   2.689   7.596  0.2352  0.1234  0.1134
  482loPI   C1B 7709   3.331   2.866   9.556  0.1525  0.2130  0.3524
  482loPI   C2B 7710   3.343   2.942   9.213 -0.0529  0.1474 -0.1770
  482loPI   C3B 7711   3.382   2.857   8.749 -0.4875 -0.5178 -0.0584
  482loPI   C4B 7712   3.282   2.828   8.299 -0.1745  0.5642  0.0486
  483loPI    C1 7713   3.449  18.309  10.260 -0.2174  0.1006  0.0057
  483loPI    C2 7714   3.517  18.204  10.640  0.0615 -0.1159 -0.0996
  483loPI    C3 7715   3.579  17.940  10.346 -0.0851  0.0719 -0.3028
  483loPI   PO4 7716   3.153  18.345  10.258  0.1786 -0.1202  0.1919
  483loPI   GL1 7717   3.057  18.333   9.863  0.2768  0.0583 -0.2221
  483loPI   GL2 7718   2.936  18.467   9.696 -0.0643  0.2319  0.0259
  483loPI   C1A 7719   3.102  18.102   9.354 -0.2773  0.1784  0.1053
  483loPI   C2A 7720   2.986  18.157   8.902  0.1821  0.0630  0.1435
  483loPI   C3A 7721   2.813  18.167   8.565 -0.1877  0.0427 -0.2108
  483loPI   C4A 7722   2.966  18.207   8.091  0.0819 -0.2044  0.1013
  483loPI   C5A 7723   2.789  18.189   7.652 -0.1195  0.1348 -0.2974
  483loPI   C6A 7724   2.560  17.898   7.500 -0.0565 -0.3368 -0.3333
  483loPI   C1B 7725   2.862  18.525   9.309 -0.1717 -0.0722  0.0904
  483loPI   C2B 7726   2.868  18.679   8.872  0.0679  0.1219  0.2331
  483loPI   C3B 7727   2.812  18.653   8.369  0.2232  0.1239  0.0474
  483loPI   C4B 7728   2.745  18.652   7.944  0.2450  0.0912  0.2922
  484loPI    C1 7729   8.825   3.010  10.339 -0.0823 -0.2519 -0.0874
  484loPI    C2 7730   8.899   2.697  10.577 -0.0190 -0.1078  0.0840
  484loPI    C3 7731   8.945   3.070  10.716  0.2503 -0.0211 -0.2248
  484loPI   PO4 7732   8.950   2.998  10.160  0.1365  0.0793  0.2105
  484loPI   GL1 7733   9.034   2.912   9.740 -0.2680  0.1383  0.0562
  484loPI   GL2 7734   9.269   3.207   9.775 -0.0009  0.0094  0.1666
  484loPI   C1A 7735   9.317   2.776   9.377 -0.0963 -0.3064 -0.0252
  484loPI   C2A 7736   9.193   2.514   9.072  0.1555  0.2029  0.0099
  484loPI   C3A 7737   9.378   2.480   8.608 -0.0090  0.0267  0.1360
  484loPI   C4A 7738   9.542   2.353   8.153  0.2224  0.2704 -0.1951
  484loPI   C5A 7739   9.459   2.371   7.800 -0.0782 -0.3811 -0.0002
  484loPI   C6A 7740   9.205   2.636   7.605 -0.0155  0.2322  0.0794
  484loPI   C1B 7741   9.236   3.262   9.369 -0.0235 -0.0423 -0.0525
  484loPI   C2B 7742   9.414   3.064   8.986  0.0094 -0.1005  0.1550
  484loPI   C3B 7743   9.342   2.963   8.512  0.1040  0.2579 -0.1327
  484loPI   C4B 7744   9.543   2.869   8.055  0.1334  0.2169  0.1235
  485loPI    C1 7745  16.731   7.711   9.933 -0.0386  0.0991 -0.0642
  485loPI    C2 7746  16.952   7.789  10.257  0.0143 -0.2090 -0.0232
  485loPI    C3 7747  16.591   7.958  10.216  0.1137  0.0313  0.0717
  485loPI   PO4 7748  16.885   7.802   9.740  0.1045  0.0897  0.0701
  485loPI   GL1 7749  16.853   8.012   9.378  0.0280  0.2059 -0.1082
  485loPI   GL2 7750  17.158   8.148   9.169 -0.1073 -0.0111 -0.2456
  485loPI   C1A 7751  16.631   7.842   9.029  0.1349 -0.2073  0.0483
  485loPI   C2A 7752  16.658   8.001   8.557 -0.5212 -0.0040 -0.1396
  485loPI   C3A 7753  16.804   8.068   8.075 -0.0817 -0.0099  0.0111
  485loPI   C4A 7754  16.964   8.521   7.927 -0.1037  0.3672  0.1735
  485loPI   C5A 7755  16.907   8.955   7.663 -0.3813  0.1810  0.1108
  485loPI   C6A 7756  16.844   9.205   7.283  0.0351  0.1621  0.0456
  485loPI   C1B 7757  17.312   8.102   8.726  0.0762  0.1385  0.0533
  485loPI   C2B 7758  17.264   7.930   8.376  0.1595  0.3883 -0.1397
  485loPI   C3B 7759  17.246   7.835   7.961 -0.0336  0.2074  0.0026
  485loPI   C4B 7760  17.241   7.725   7.441  0.1877 -0.1476 -0.3581
  486loPI    C1 7761  11.350   4.614  10.519 -0.3009 -0.4468 -0.0326
  486loPI    C2 7762  11.672   4.392  10.605  0.0982  0.0365 -0.2273
  486loPI    C3 7763  11.498   4.612  10.891  0.1361  0.0215 -0.1927
  486loPI   PO4 7764  11.282   4.588  10.251 -0.0319  0.2418 -0.2335
  486loPI   GL1 7765  11.417   4.735   9.909  0.0891  0.1860  0.0000
  486loPI   GL2 7766  11.320   4.997   9.774 -0.1465  0.2701 -0.0394
  486loPI   C1A 7767  11.254   4.714   9.421  0.0211 -0.4265  0.0562
  486loPI   C2A 7768  11.470   4.873   9.058 -0.1240  0.3400 -0.1725
  486loPI   C3A 7769  11.525   4.784   8.647  0.1489 -0.0277  0.1584
  486loPI   C4A 7770  11.673   4.848   8.266 -0.1020 -0.0861  0.2177
  486loPI   C5A 7771  11.745   4.945   7.904 -0.2003 -0.0785  0.2031
  486loPI   C6A 7772  11.746   4.993   7.555  0.2599 -0.0711  0.2122
  486loPI   C1B 7773  11.305   5.222   9.430 -0.1741 -0.3648  0.1254
  486loPI   C2B 7774  11.297   5.398   9.004 -0.2019 -0.2229  0.0095
  486loPI   C3B 7775  11.297   5.230   8.666 -0.1381 -0.3671  0.1641
  486loPI   C4B 7776  11.267   5.195   8.263  0.1452  0.0194 -0.0313
  487loPI    C1 7777  17.275   6.206   9.678  0.0567  0.0917 -0.0943
  487loPI    C2 7778  17.095   6.136  10.029  0.1366 -0.0470 -0.0803
  487loPI    C3 7779  17.267   6.490   9.959  0.0364  0.0144 -0.0161
  487loPI   PO4 7780  17.311   6.070   9.555  0.1381  0.2452 -0.0068
  487loPI   GL1 7781  17.235   5.889   9.236  0.0912  0.2292  0.1004
  487loPI   GL2 7782  17.260   5.497   9.206 -0.1088  0.0342 -0.0169
  487loPI   C1A 7783  17.593   5.819   8.871  0.0058 -0.0874 -0.4535
  487loPI   C2A 7784  17.576   5.868   8.452 -0.0026 -0.1526  0.0050
  487loPI   C3A 7785  17.447   5.775   8.123  0.2912 -0.2131  0.1623
  487loPI   C4A 7786  17.519   5.780   7.647 -0.1762 -0.1167  0.0082
  487loPI   C5A 7787  17.883   5.701   7.373  0.2110  0.1518 -0.0305
  487loPI   C6A 7788  17.924   5.304   7.260  0.1643  0.1341 -0.0223
  487loPI   C1B 7789  17.308   5.350   8.691  0.1143 -0.1512 -0.2384
  487loPI   C2B 7790  17.358   5.343   8.267  0.0439 -0.2342  0.0716
  487loPI   C3B 7791  17.406   5.261   7.829  0.4016  0.0791  0.0235
  487loPI   C4B 7792  17.435   5.344   7.415  0.1558 -0.0663 -0.3743
  488loPI    C1 7793   2.671  18.419  10.182 -0.0183  0.0091  0.0042
  488loPI    C2 7794   2.483  18.530  10.517  0.2524 -0.0509  0.1786
  488loPI    C3 7795   2.632  18.160  10.484  0.3187 -0.0120  0.0338
  488loPI   PO4 7796   2.568  18.537  10.010 -0.0660  0.1870  0.3146
  488loPI   GL1 7797   2.430  18.929   9.733 -0.1380 -0.0025  0.1425
  488loPI   GL2 7798   2.682  18.952   9.461 -0.0159 -0.0628 -0.0979
  488loPI   C1A 7799   2.157  19.012   9.283 -0.1151 -0.0953 -0.0700
  488loPI   C2A 7800   2.149  19.137   8.870  0.0330  0.0715 -0.0578
  488loPI   C3A 7801   2.125  18.974   8.499  0.0037  0.1268  0.0481
  488loPI   C4A 7802   2.155  18.729   8.184  0.3753  0.0441 -0.1478
  488loPI   C5A 7803   2.266  18.722   7.796 -0.0786 -0.0426  0.1417
  488loPI   C6A 7804   2.487  18.848   7.477  0.0548 -0.1411 -0.0318
  488loPI   C1B 7805   2.624  19.169   9.098 -0.1644  0.2385 -0.4417
  488loPI   C2B 7806   2.613  19.044   8.724 -0.2650  0.1439 -0.0976
  488loPI   C3B 7807   2.559  19.026   8.261  0.2372 -0.4510  0.1064
  488loPI   C4B 7808   2.478  19.191   7.900 -0.1937 -0.1740  0.1200
  489loPI    C1 7809   9.486   5.271  10.220 -0.1152 -0.2244  0.1188
  489loPI    C2 7810   9.531   5.413  10.591  0.3654  0.2100 -0.0937
  489loPI    C3 7811   9.272   5.587  10.341  0.0558 -0.0707  0.0237
  489loPI   PO4 7812   9.682   5.277  10.086 -0.2441  0.1535  0.3467
  489loPI   GL1 7813   9.707   5.350   9.675  0.0387 -0.1596 -0.1658
  489loPI   GL2 7814   9.908   5.234   9.599  0.1890  0.0210 -0.0668
  489loPI   C1A 7815   9.666   5.626   9.279  0.2447  0.0946  0.1558
  489loPI   C2A 7816   9.620   5.783   8.749 -0.3512 -0.1085  0.0247
  489loPI   C3A 7817   9.440   5.925   8.356  0.0050  0.1299 -0.3642
  489loPI   C4A 7818   9.204   5.762   7.984 -0.0597 -0.0557 -0.0684
  489loPI   C5A 7819   9.209   5.949   7.539 -0.2757  0.0529 -0.2284
  489loPI   C6A 7820   9.458   6.221   7.240 -0.0750 -0.0076  0.2858
  489loPI   C1B 7821   9.892   5.119   9.214 -0.0427  0.0828  0.1482
  489loPI   C2B 7822  10.037   5.239   8.879  0.0000 -0.0817  0.0038
  489loPI   C3B 7823  10.287   5.335   8.593  0.1832 -0.0802  0.1635
  489loPI   C4B 7824  10.335   5.412   8.174 -0.0539 -0.0395 -0.2716
  490loPI    C1 7825   5.965   1.256  10.348 -0.2383 -0.0065 -0.0833
  490loPI    C2 7826   6.110   1.204  10.717 -0.1469  0.2530 -0.0803
  490loPI    C3 7827   5.717   1.255  10.662 -0.2040 -0.1348 -0.0563
  490loPI   PO4 7828   6.142   1.254  10.171  0.1061 -0.2620 -0.1547
  490loPI   GL1 7829   6.361   1.329   9.803  0.3153 -0.0591 -0.0308
  490loPI   GL2 7830   6.041   1.391   9.712 -0.1335 -0.0381 -0.2421
  490loPI   C1A 7831   6.522   1.436   9.334  0.0105  0.2967 -0.1055
  490loPI   C2A 7832   6.659   1.505   8.911  0.1925  0.1454  0.0204
  490loPI   C3A 7833   6.589   1.521   8.384  0.0645  0.2837 -0.1524
  490loPI   C4A 7834   6.673   1.585   8.017  0.1048 -0.0045  0.0607
  490loPI   C5A 7835   6.536   1.972   7.817 -0.1362  0.3037 -0.2692
  490loPI   C6A 7836   6.538   2.104   7.337 -0.0651  0.3098 -0.1653
  490loPI   C1B 7837   6.052   1.384   9.381  0.1372 -0.1591 -0.1798
  490loPI   C2B 7838   6.075   1.521   8.886  0.0310 -0.1094 -0.2515
  490loPI   C3B 7839   6.100   1.509   8.449  0.0153 -0.2995  0.0862
  490loPI   C4B 7840   6.185   1.503   8.078 -0.0809  0.1771 -0.1733
  491loPI    C1 7841  14.366  14.870  10.210  0.0890 -0.0838 -0.1074
  491loPI    C2 7842  14.113  14.618  10.030 -0.2188  0.0680  0.1028
  491loPI    C3 7843  14.269  14.524  10.386 -0.0072 -0.0068 -0.0078
  491loPI   PO4 7844  14.541  14.917   9.993 -0.1933  0.0512  0.1780
  491loPI   GL1 7845  14.654  14.881   9.590  0.0894  0.1022  0.1478
  491loPI   GL2 7846  14.278  14.789   9.574  0.2172 -0.0820  0.1050
  491loPI   C1A 7847  14.772  14.709   9.256  0.0025  0.1342 -0.3499
  491loPI   C2A 7848  14.694  14.510   8.834 -0.2815 -0.2222  0.1092
  491loPI   C3A 7849  14.557  14.513   8.429  0.0035  0.0029  0.0327
  491loPI   C4A 7850  14.643  14.644   7.992 -0.2416 -0.1983 -0.3245
  491loPI   C5A 7851  14.530  14.513   7.549 -0.3700  0.1856 -0.1508
  491loPI   C6A 7852  14.471  14.515   7.136  0.1955  0.0421  0.0728
  491loPI   C1B 7853  14.401  14.982   9.153 -0.0459 -0.1647  0.2403
  491loPI   C2B 7854  14.450  14.968   8.692  0.1478  0.0241  0.1238
  491loPI   C3B 7855  14.446  15.149   8.254  0.1432  0.0052 -0.1635
  491loPI   C4B 7856  14.394  15.109   7.792 -0.2973  0.2225  0.1236
  492loPI    C1 7857   9.173   1.945  10.258  0.1865 -0.0977 -0.0101
  492loPI    C2 7858   9.003   1.608  10.124 -0.0718  0.0231  0.0083
  492loPI    C3 7859   8.951   1.720  10.505 -0.3005  0.2741 -0.0927
  492loPI   PO4 7860   9.334   2.026  10.032 -0.0083 -0.1266  0.0140
  492loPI   GL1 7861   9.501   2.125   9.548 -0.0561 -0.1343  0.3101
  492loPI   GL2 7862   9.592   2.342   9.293  0.0953  0.0829  0.3203
  492loPI   C1A 7863   9.846   1.886   9.268 -0.1684  0.0707 -0.2671
  492loPI   C2A 7864   9.752   1.667   8.887  0.2540  0.2330 -0.0023
  492loPI   C3A 7865  10.107   1.831   8.644 -0.1611  0.1412 -0.0075
  492loPI   C4A 7866  10.236   1.835   8.254  0.0143 -0.0855 -0.1664
  492loPI   C5A 7867  10.676   1.773   8.149  0.1244  0.1081 -0.1653
  492loPI   C6A 7868  11.084   1.735   7.882 -0.2285 -0.1488  0.1001
  492loPI   C1B 7869   9.566   2.120   8.968 -0.1017  0.2133  0.3042
  492loPI   C2B 7870   9.687   2.097   8.551  0.1006 -0.0768 -0.0178
  492loPI   C3B 7871   9.622   1.889   8.168  0.0843  0.2723  0.1082
  492loPI   C4B 7872   9.867   1.952   7.823  0.0877 -0.1680 -0.0781
  493loPI    C1 7873   9.925  15.453  10.194  0.2055  0.1173 -0.0837
  493loPI    C2 7874  10.218  15.678  10.348  0.1032  0.3457 -0.2176
  493loPI    C3 7875   9.845  15.821  10.327  0.0398  0.1693 -0.3210
  493loPI   PO4 7876   9.970  15.373   9.876 -0.0159 -0.1287  0.1620
  493loPI   GL1 7877   9.761  15.236   9.509  0.0992  0.1897 -0.0628
  493loPI   GL2 7878   9.791  15.596   9.440 -0.0209  0.0586 -0.0688
  493loPI   C1A 7879   9.492  15.308   9.137 -0.2291  0.3070  0.0668
  493loPI   C2A 7880   9.348  15.170   8.693 -0.1316 -0.0754  0.1732
  493loPI   C3A 7881   9.127  15.270   8.281  0.3003  0.0961 -0.2698
  493loPI   C4A 7882   9.164  15.626   7.957 -0.0458 -0.2219 -0.3060
  493loPI   C5A 7883   9.033  16.074   7.666  0.0966  0.0353 -0.2133
  493loPI   C6A 7884   8.830  16.424   7.893 -0.1046 -0.1979  0.1275
  493loPI   C1B 7885   9.733  15.684   8.976 -0.1440  0.2786 -0.3245
  493loPI   C2B 7886   9.704  15.526   8.540  0.0247  0.2408  0.0975
  493loPI   C3B 7887   9.758  15.524   8.016  0.2235  0.0191 -0.1527
  493loPI   C4B 7888   9.689  15.525   7.572 -0.3874 -0.1179  0.0344
  494loPI    C1 7889   3.260   4.600  10.252 -0.0086 -0.0888  0.0262
  494loPI    C2 7890   3.399   4.444  10.593  0.0519  0.0769  0.0787
  494loPI    C3 7891   3.145   4.753  10.604  0.0324  0.0650 -0.0262
  494loPI   PO4 7892   3.248   4.468  10.087 -0.0906  0.0555 -0.0935
  494loPI   GL1 7893   3.107   4.412   9.705 -0.1144 -0.0134 -0.0354
  494loPI   GL2 7894   2.833   4.176   9.817  0.0438 -0.1265 -0.3942
  494loPI   C1A 7895   3.181   4.228   9.267 -0.1160 -0.1580  0.2194
  494loPI   C2A 7896   3.095   4.084   8.840 -0.1077  0.0134 -0.1658
  494loPI   C3A 7897   3.020   4.308   8.447 -0.1908  0.1028  0.1968
  494loPI   C4A 7898   3.134   4.337   8.006 -0.1624  0.0446 -0.1826
  494loPI   C5A 7899   3.387   4.612   7.804  0.2923  0.0699  0.1951
  494loPI   C6A 7900   3.602   4.782   7.477 -0.3026  0.0991  0.1000
  494loPI   C1B 7901   2.683   4.153   9.361 -0.1613 -0.3209  0.1880
  494loPI   C2B 7902   2.725   4.392   9.011 -0.1432  0.2745 -0.2569
  494loPI   C3B 7903   2.509   4.723   8.911 -0.0503  0.1270 -0.0740
  494loPI   C4B 7904   2.345   4.974   8.569 -0.0245 -0.0295  0.2440
  495loPI    C1 7905   1.007   5.713  10.161  0.1242 -0.0175  0.0356
  495loPI    C2 7906   1.348   5.806  10.349  0.1755 -0.0595 -0.0363
  495loPI    C3 7907   0.996   5.874  10.527  0.2254 -0.1554  0.1001
  495loPI   PO4 7908   1.098   5.839   9.881  0.1247  0.0067 -0.0132
  495loPI   GL1 7909   0.790   5.827   9.506 -0.1507  0.3038  0.3544
  495loPI   GL2 7910   0.574   5.625   9.355  0.1041  0.3298  0.1915
  495loPI   C1A 7911   0.900   6.049   9.091 -0.0750  0.1577  0.0097
  495loPI   C2A 7912   0.893   5.992   8.731  0.0017 -0.2142 -0.0932
  495loPI   C3A 7913   0.944   5.951   8.232 -0.1474  0.1258  0.1074
  495loPI   C4A 7914   0.809   5.868   7.832 -0.1846 -0.0788  0.0862
  495loPI   C5A 7915   0.505   6.154   7.785  0.0770 -0.0279  0.3879
  495loPI   C6A 7916   0.550   6.669   7.617  0.0004  0.0128  0.0186
  495loPI   C1B 7917   0.663   5.513   8.932  0.2654  0.1720  0.0716
  495loPI   C2B 7918   0.752   5.583   8.513 -0.1160 -0.1663 -0.0649
  495loPI   C3B 7919   0.584   5.546   8.155 -0.0145  0.1090  0.0317
  495loPI   C4B 7920   0.386   5.589   7.752 -0.2339  0.0197 -0.0891
  496loPI    C1 7921   1.829   9.737   9.418  0.0720  0.2201 -0.1187
  496loPI    C2 7922   1.580   9.780   9.728  0.1808  0.0290 -0.0022
  496loPI    C3 7923   1.923   9.985   9.717  0.1486  0.0820 -0.0267
  496loPI   PO4 7924   1.566   9.788   9.211  0.1519  0.0583  0.1401
  496loPI   GL1 7925   1.587  10.057   8.878 -0.2015 -0.0248  0.0079
  496loPI   GL2 7926   1.467  10.382   8.876 -0.1181  0.2281 -0.1079
  496loPI   C1A 7927   1.684   9.924   8.540 -0.0596 -0.3227 -0.1214
  496loPI   C2A 7928   1.728   9.894   8.078  0.2893  0.1630  0.0949
  496loPI   C3A 7929   1.839  10.103   7.627  0.3130 -0.4480  0.0160
  496loPI   C4A 7930   1.675  10.144   7.122  0.5143 -0.2130 -0.4725
  496loPI   C5A 7931   1.278  10.119   6.898 -0.3106  0.1705  0.0132
  496loPI   C6A 7932   0.965  10.400   6.734  0.2478  0.0966  0.0996
  496loPI   C1B 7933   1.655  10.518   8.430 -0.1919  0.2964  0.0682
  496loPI   C2B 7934   1.822  10.392   8.070 -0.2868  0.1068  0.2429
  496loPI   C3B 7935   2.222  10.288   7.973 -0.1564  0.2638  0.0487
  496loPI   C4B 7936   2.482  10.569   7.627 -0.2545 -0.0894 -0.3185
  497loPI    C1 7937   7.985   8.196   9.805  0.0469  0.1136  0.0531
  497loPI    C2 7938   7.610   8.102   9.906  0.0163  0.3044  0.1201
  497loPI    C3 7939   7.911   7.859  10.008 -0.1037  0.0710 -0.0709
  497loPI   PO4 7940   7.969   8.249   9.626  0.1614 -0.1147 -0.1090
  497loPI   GL1 7941   7.988   8.079   9.186 -0.1485 -0.0534 -0.0689
  497loPI   GL2 7942   8.202   7.851   9.212 -0.0059 -0.1548 -0.1195
  497loPI   C1A 7943   8.137   7.979   8.735  0.0714  0.1399 -0.2562
  497loPI   C2A 7944   8.195   7.793   8.342  0.0262  0.0583  0.1477
  497loPI   C3A 7945   8.099   7.446   8.145  0.2782 -0.0609 -0.0727
  497loPI   C4A 7946   8.335   7.219   7.847  0.0120 -0.1081  0.1593
  497loPI   C5A 7947   8.618   7.012   7.619 -0.2547  0.1872 -0.0989
  497loPI   C6A 7948   9.081   6.894   7.747  0.2476  0.0749  0.2741
  497loPI   C1B 7949   8.243   7.537   8.955  0.0133 -0.0607  0.0297
  497loPI   C2B 7950   8.318   7.396   8.667  0.0344  0.2677  0.2467
  497loPI   C3B 7951   8.364   7.079   8.365 -0.0402 -0.2387  0.5345
  497loPI   C4B 7952   8.694   7.012   8.169 -0.1147  0.0300  0.0409
  498loPI    C1 7953  10.637   9.833  10.040 -0.1422 -0.1131  0.0233
  498loPI    C2 7954  10.587  10.018  10.391 -0.2370  0.0103 -0.0548
  498loPI    C3 7955  10.401   9.672  10.319 -0.0704 -0.1102  0.0861
  498loPI   PO4 7956  10.644  10.025   9.860  0.0735  0.0379  0.2533
  498loPI   GL1 7957  10.597   9.949   9.482 -0.0082 -0.2721 -0.2031
  498loPI   GL2 7958  10.876  10.035   9.348  0.2082 -0.2206 -0.0232
  498loPI   C1A 7959  10.395   9.936   9.092  0.0230  0.2349  0.3373
  498loPI   C2A 7960  10.390   9.885   8.701 -0.3197  0.1383 -0.3089
  498loPI   C3A 7961  10.542   9.838   8.258 -0.0626  0.3094 -0.1292
  498loPI   C4A 7962  10.457   9.980   7.918  0.0140 -0.0991  0.0972
  498loPI   C5A 7963  10.204   9.974   7.488 -0.0053 -0.5319  0.1474
  498loPI   C6A 7964  10.109   9.819   7.036  0.0386  0.1898 -0.3775
  498loPI   C1B 7965  10.813  10.059   8.870  0.0715  0.0845 -0.1487
  498loPI   C2B 7966  10.834  10.140   8.482 -0.2979 -0.3827 -0.1420
  498loPI   C3B 7967  10.935  10.101   8.094  0.0032 -0.0388 -0.0615
  498loPI   C4B 7968  11.155  10.396   7.697 -0.0081  0.0363  0.0458
  499loPI    C1 7969  16.410  18.158  10.096  0.0632 -0.2237 -0.0228
  499loPI    C2 7970  16.302  18.310  10.450 -0.0666 -0.2225 -0.0622
  499loPI    C3 7971  16.354  17.916  10.409 -0.1478 -0.2330 -0.0661
  499loPI   PO4 7972  16.217  18.215   9.925 -0.3591  0.1011  0.2210
  499loPI   GL1 7973  16.038  17.985   9.501 -0.2844  0.1265 -0.0624
  499loPI   GL2 7974  15.811  18.262   9.380 -0.3199 -0.0937 -0.0994
  499loPI   C1A 7975  16.178  17.833   9.054  0.2099 -0.0001 -0.4222
  499loPI   C2A 7976  16.258  18.078   8.744 -0.0804 -0.0115  0.0887
  499loPI   C3A 7977  16.060  18.280   8.432  0.1952  0.0275 -0.0882
  499loPI   C4A 7978  16.204  18.558   8.103  0.0226 -0.2052 -0.0655
  499loPI   C5A 7979  16.296  18.615   7.720 -0.1772  0.2242 -0.0292
  499loPI   C6A 7980  16.762  18.552   7.556 -0.0066 -0.2561  0.0517
  499loPI   C1B 7981  15.846  18.195   8.947 -0.1680 -0.2548 -0.1415
  499loPI   C2B 7982  15.801  17.920   8.603 -0.1812 -0.0183 -0.1463
  499loPI   C3B 7983  15.617  17.997   8.182  0.0453  0.2795  0.0668
  499loPI   C4B 7984  15.916  18.062   7.862 -0.0851  0.0856 -0.0871
  500loPI    C1 7985   1.032   5.195  10.084  0.1441  0.0069  0.1128
  500loPI    C2 7986   1.164   5.359   9.744 -0.0271  0.0719  0.0767
  500loPI    C3 7987   1.383   5.387  10.077  0.1981 -0.0951 -0.0536
  500loPI   PO4 7988   0.889   5.016   9.994 -0.2704 -0.0078  0.0333
  500loPI   GL1 7989   0.783   4.982   9.590  0.0023 -0.3017 -0.0393
  500loPI   GL2 7990   1.097   4.774   9.571  0.0784 -0.3603 -0.2393
  500loPI   C1A 7991   1.026   5.220   9.300  0.0203 -0.0580 -0.2408
  500loPI   C2A 7992   1.043   5.164   8.885 -0.1411  0.0282 -0.1041
  500loPI   C3A 7993   0.811   5.070   8.551 -0.2122 -0.2957 -0.2089
  500loPI   C4A 7994   0.787   4.894   8.170  0.1124  0.0384 -0.0531
  500loPI   C5A 7995   1.051   4.862   7.815 -0.1427  0.2642  0.0525
  500loPI   C6A 7996   1.228   4.961   7.368 -0.1837 -0.0867  0.2316
  500loPI   C1B 7997   1.336   4.809   9.176 -0.0244  0.2189 -0.0620
  500loPI   C2B 7998   1.505   4.580   8.861 -0.0094 -0.0081 -0.0079
  500loPI   C3B 7999   1.686   4.621   8.458  0.0323  0.1703 -0.0402
  500loPI   C4B 8000   1.985   4.704   8.142  0.1187  0.0980  0.1589
  501loPI    C1 8001  11.237   0.608   9.918  0.3930  0.0355 -0.2852
  501loPI    C2 8002  11.137   0.957  10.086  0.0970 -0.2038  0.0505
  501loPI    C3 8003  11.247   0.648  10.316  0.1677 -0.3914 -0.2300
  501loPI   PO4 8004  11.360   0.596   9.713 -0.0638 -0.0493  0.2875
  501loPI   GL1 8005  11.389   0.446   9.324 -0.2006  0.0123 -0.1186
  501loPI   GL2 8006  11.271   0.740   9.247  0.0732  0.4553  0.1292
  501loPI   C1A 8007  11.567   0.607   8.883  0.3057 -0.5093  0.0303
  501loPI   C2A 8008  11.361   0.783   8.569  0.1798 -0.0795  0.2531
  501loPI   C3A 8009  11.254   0.705   8.165  0.1980 -0.2046  0.2616
  501loPI   C4A 8010  10.972   0.917   7.878 -0.0939 -0.0453 -0.2592
  501loPI   C5A 8011  10.906   0.721   7.416  0.3171 -0.6055 -0.0947
  501loPI   C6A 8012  10.885   0.312   7.332 -0.0534 -0.2273  0.0893
  501loPI   C1B 8013  10.988   0.830   8.862  0.0702  0.1784  0.2733
  501loPI   C2B 8014  10.832   1.166   8.530  0.1036  0.0712 -0.0479
  501loPI   C3B 8015  10.865   1.362   8.062 -0.1117  0.2596  0.1871
  501loPI   C4B 8016  10.722   1.275   7.651  0.3148 -0.2174 -0.3614
  502loPI    C1 8017   6.213   6.692  10.340 -0.1456 -0.0964 -0.0208
  502loPI    C2 8018   5.894   6.479  10.454 -0.1569  0.0692  0.2674
  502loPI    C3 8019   6.243   6.433  10.644 -0.0759  0.0778  0.1222
  502loPI   PO4 8020   6.390   6.655  10.040  0.0801  0.0284 -0.0286
  502loPI   GL1 8021   6.436   6.475   9.641  0.0539 -0.0226 -0.0101
  502loPI   GL2 8022   6.704   6.444   9.435 -0.2178  0.1569  0.0074
  502loPI   C1A 8023   6.202   6.398   9.307 -0.0735  0.0209  0.1110
  502loPI   C2A 8024   6.108   6.429   8.891 -0.0755 -0.3569 -0.2133
  502loPI   C3A 8025   6.123   6.433   8.455  0.1062 -0.0267  0.0940
  502loPI   C4A 8026   5.779   6.624   8.257  0.0468 -0.1059 -0.0008
  502loPI   C5A 8027   5.629   6.685   7.900  0.0809  0.0127 -0.0847
  502loPI   C6A 8028   5.822   6.742   7.530  0.0286 -0.5549  0.2275
  502loPI   C1B 8029   6.632   6.343   9.076 -0.0042  0.2086  0.1333
  502loPI   C2B 8030   6.460   6.062   8.635  0.2037  0.0559  0.1858
  502loPI   C3B 8031   6.617   6.065   8.268  0.0976 -0.0190  0.0473
  502loPI   C4B 8032   6.854   6.030   7.932  0.2823  0.0916 -0.0406
  503loPI    C1 8033  13.461   8.212  10.072 -0.0923 -0.0981  0.0566
  503loPI    C2 8034  13.828   8.257   9.919 -0.1976  0.0405 -0.1592
  503loPI    C3 8035  13.684   7.891   9.989 -0.0068 -0.0136 -0.0442
  503loPI   PO4 8036  13.238   8.311   9.898 -0.2199 -0.0117  0.0584
  503loPI   GL1 8037  13.129   8.385   9.528  0.1560  0.0872 -0.0203
  503loPI   GL2 8038  12.905   8.305   9.347  0.1182  0.3719 -0.0853
  503loPI   C1A 8039  13.223   7.979   9.206 -0.1046  0.1503  0.0949
  503loPI   C2A 8040  13.142   7.820   8.732  0.0690  0.1961 -0.1326
  503loPI   C3A 8041  13.268   7.861   8.348 -0.0300 -0.1620  0.2307
  503loPI   C4A 8042  13.245   8.060   7.962 -0.2673 -0.2158 -0.1390
  503loPI   C5A 8043  12.869   8.041   7.689  0.0493  0.0053  0.0545
  503loPI   C6A 8044  12.424   8.280   7.449 -0.3043 -0.0599 -0.1726
  503loPI   C1B 8045  13.128   8.380   8.846 -0.2626  0.0086 -0.0207
  503loPI   C2B 8046  13.114   8.508   8.386  0.1272 -0.0797  0.0583
  503loPI   C3B 8047  13.503   8.498   8.093 -0.2487 -0.0382  0.0675
  503loPI   C4B 8048  13.469   8.298   7.613  0.0367 -0.0031  0.0132
  504loPI    C1 8049   6.037   6.781   9.724  0.1868  0.2429 -0.2415
  504loPI    C2 8050   5.895   7.019  10.012  0.1830  0.2003 -0.2080
  504loPI    C3 8051   5.781   6.636   9.995  0.3620  0.1426 -0.1274
  504loPI   PO4 8052   6.275   6.991   9.671 -0.0569 -0.5092 -0.0213
  504loPI   GL1 8053   6.365   7.160   9.226  0.1279  0.1407 -0.1481
  504loPI   GL2 8054   6.077   7.226   9.020 -0.1513  0.0033 -0.1246
  504loPI   C1A 8055   6.396   6.751   9.091  0.4810 -0.0232  0.0022
  504loPI   C2A 8056   6.408   6.731   8.674  0.2222 -0.0760 -0.0898
  504loPI   C3A 8057   6.378   6.815   8.317 -0.0449 -0.1557 -0.0877
  504loPI   C4A 8058   6.396   7.001   7.864 -0.2931  0.2372  0.3597
  504loPI   C5A 8059   6.370   6.661   7.502  0.0962  0.1576  0.0369
  504loPI   C6A 8060   6.139   6.563   7.156 -0.0618 -0.1511 -0.1621
  504loPI   C1B 8061   6.485   7.220   8.726  0.1210  0.3649 -0.1263
  504loPI   C2B 8062   6.593   7.283   8.326  0.1346  0.0656  0.0125
  504loPI   C3B 8063   6.393   7.439   8.047  0.1763  0.0541  0.1853
  504loPI   C4B 8064   6.487   7.592   7.582  0.1211 -0.3431 -0.0782
  505loPI    C1 8065  17.511  18.034   9.852  0.0629  0.1861 -0.0565
  505loPI    C2 8066  17.333  18.185  10.177 -0.3456 -0.2001 -0.0915
  505loPI    C3 8067  17.573  17.867  10.210  0.3706  0.3194 -0.0439
  505loPI   PO4 8068  17.577  18.207   9.764 -0.1074  0.0967  0.4695
  505loPI   GL1 8069  17.642  18.172   9.319  0.2988 -0.1010  0.1519
  505loPI   GL2 8070  17.710  17.835   9.231 -0.0017 -0.0027  0.2400
  505loPI   C1A 8071  17.462  18.430   8.902  0.2390 -0.0755  0.0341
  505loPI   C2A 8072  17.399  18.555   8.480 -0.2287  0.2334 -0.1055
  505loPI   C3A 8073  17.660  18.465   8.073  0.2408  0.3251 -0.1614
  505loPI   C4A 8074  17.692  18.637   7.644 -0.0699  0.0722  0.5048
  505loPI   C5A 8075  17.915  18.998   7.434  0.1332  0.1438  0.0314
  505loPI   C6A 8076  18.020  18.998   7.001  0.2519 -0.1652  0.1215
  505loPI   C1B 8077  17.650  17.733   8.831 -0.2495  0.0044 -0.0961
  505loPI   C2B 8078  17.544  17.794   8.413 -0.1887  0.0509 -0.1172
  505loPI   C3B 8079  17.449  17.777   7.964 -0.2997 -0.1345  0.2771
  505loPI   C4B 8080  17.444  17.717   7.505 -0.1511 -0.0130  0.0230
  506loPI    C1 8081  17.801  12.012   9.608  0.2774  0.1366 -0.3031
  506loPI    C2 8082  18.102  11.760   9.529  0.0213 -0.2843  0.0215
  506loPI    C3 8083  17.972  11.805   9.905  0.0302  0.3071 -0.0375
  506loPI   PO4 8084  17.781  12.122   9.400 -0.0405 -0.1358  0.0235
  506loPI   GL1 8085  17.769  11.992   9.071 -0.0024  0.1219 -0.0456
  506loPI   GL2 8086  17.570  11.666   8.965 -0.1529  0.0264  0.3616
  506loPI   C1A 8087  17.524  12.367   8.873  0.4463 -0.0020 -0.1518
  506loPI   C2A 8088  17.566  12.626   8.517  0.0467  0.2242 -0.1242
  506loPI   C3A 8089  17.753  12.828   7.984 -0.0219  0.3800 -0.1106
  506loPI   C4A 8090  17.582  12.899   7.559  0.1364 -0.5319  0.1619
  506loPI   C5A 8091  17.464  12.591   7.221 -0.1421  0.0188 -0.3372
  506loPI   C6A 8092  17.284  12.576   6.803  0.2131 -0.0496 -0.2982
  506loPI   C1B 8093  17.509  11.631   8.535  0.2889 -0.0146 -0.0550
  506loPI   C2B 8094  17.413  11.816   8.183 -0.1662  0.1701 -0.1240
  506loPI   C3B 8095  17.274  12.051   7.888 -0.0500  0.3275  0.0218
  506loPI   C4B 8096  17.112  12.190   7.529 -0.0326  0.0599 -0.2921
  507loPI    C1 8097   1.698   8.143   9.497  0.0767 -0.1222 -0.0391
  507loPI    C2 8098   1.546   7.818   9.672  0.1926 -0.2538 -0.1795
  507loPI    C3 8099   1.790   8.059   9.878 -0.0554 -0.1418 -0.0113
  507loPI   PO4 8100   1.473   8.309   9.315 -0.1919 -0.3161 -0.2063
  507loPI   GL1 8101   1.325   8.498   8.915  0.2023  0.0770  0.2849
  507loPI   GL2 8102   1.092   8.303   8.891 -0.0842 -0.1922  0.0144
  507loPI   C1A 8103   1.567   8.568   8.477  0.2095  0.1306  0.1565
  507loPI   C2A 8104   1.868   8.331   8.226 -0.0433  0.3748  0.0304
  507loPI   C3A 8105   1.939   8.240   7.801  0.0865  0.2575  0.1659
  507loPI   C4A 8106   1.735   8.059   7.450 -0.2677 -0.3667 -0.0567
  507loPI   C5A 8107   1.891   8.200   7.023  0.0027 -0.0308  0.0264
  507loPI   C6A 8108   1.908   8.310   6.553 -0.3075  0.1119 -0.1706
  507loPI   C1B 8109   1.136   8.222   8.540  0.3552  0.1393  0.1736
  507loPI   C2B 8110   1.016   8.414   8.113  0.2755 -0.0963  0.2883
  507loPI   C3B 8111   0.915   8.202   7.670 -0.0201 -0.0730  0.0544
  507loPI   C4B 8112   0.657   8.215   7.210  0.1459 -0.0845  0.3631
  508loPI    C1 8113   3.362  13.709   9.506  0.1349  0.0747  0.0219
  508loPI    C2 8114   3.248  13.993   9.764  0.0960  0.1331 -0.0593
  508loPI    C3 8115   3.224  13.608   9.868 -0.2419  0.1405 -0.0991
  508loPI   PO4 8116   3.223  13.759   9.289  0.1944 -0.1102 -0.2000
  508loPI   GL1 8117   3.296  13.904   8.903  0.2238 -0.0242 -0.1597
  508loPI   GL2 8118   3.004  14.081   8.838 -0.1333  0.0404  0.1093
  508loPI   C1A 8119   3.501  14.001   8.488 -0.0728  0.2543  0.1457
  508loPI   C2A 8120   3.545  14.219   8.180 -0.1783  0.3516 -0.1475
  508loPI   C3A 8121   3.214  14.472   7.995 -0.0611 -0.2561 -0.1480
  508loPI   C4A 8122   3.151  14.816   7.701 -0.4009  0.0964 -0.4226
  508loPI   C5A 8123   3.052  15.003   7.324 -0.1168  0.3120 -0.0080
  508loPI   C6A 8124   2.840  15.274   6.987  0.2456 -0.2273  0.0622
  508loPI   C1B 8125   2.903  14.316   8.472  0.3520  0.6168  0.0006
  508loPI   C2B 8126   2.717  14.508   8.171  0.2246 -0.1378 -0.3267
  508loPI   C3B 8127   2.710  14.827   7.845  0.2332  0.1443  0.4240
  508loPI   C4B 8128   2.879  15.298   7.921 -0.0253  0.0157 -0.1284
  509loPI    C1 8129  13.381   0.367  10.425  0.2024  0.1452  0.0140
  509loPI    C2 8130  13.718   0.151  10.413  0.1551  0.0621  0.1659
  509loPI    C3 8131  13.653   0.405  10.715  0.0747  0.0669  0.1451
  509loPI   PO4 8132  13.325   0.519  10.223  0.0321  0.0781 -0.0145
  509loPI   GL1 8133  13.304   0.378   9.809 -0.1264  0.0030  0.1174
  509loPI   GL2 8134  13.328   0.071   9.615  0.1104  0.0470  0.1565
  509loPI   C1A 8135  13.001   0.516   9.416  0.3570 -0.1563 -0.0210
  509loPI   C2A 8136  12.893   0.676   9.097  0.0859  0.1261  0.0258
  509loPI   C3A 8137  12.670   0.558   8.633 -0.0428 -0.1367 -0.3148
  509loPI   C4A 8138  12.583   0.514   8.267 -0.0797 -0.0467 -0.2075
  509loPI   C5A 8139  12.519   0.291   7.869 -0.2834  0.2699 -0.1122
  509loPI   C6A 8140  12.377  -0.073   7.723  0.1288 -0.0973 -0.2774
  509loPI   C1B 8141  13.265   0.212   9.170 -0.0830 -0.0318  0.1468
  509loPI   C2B 8142  13.499   0.434   8.949  0.0759 -0.2205  0.0588
  509loPI   C3B 8143  13.841   0.612   8.695  0.1415  0.1238  0.1674
  509loPI   C4B 8144  13.952   0.500   8.186  0.0990  0.1067  0.1350
  510loPI    C1 8145   3.363   1.036  10.301  0.0330  0.0979  0.0386
  510loPI    C2 8146   3.532   1.299  10.551  0.1336 -0.0383  0.1150
  510loPI    C3 8147   3.398   0.949  10.690 -0.0424 -0.0087  0.0218
  510loPI   PO4 8148   3.562   1.072  10.102 -0.1674 -0.1841  0.1936
  510loPI   GL1 8149   3.553   1.237   9.816  0.1168 -0.1712 -0.1409
  510loPI   GL2 8150   3.821   1.104   9.626 -0.0311 -0.0899 -0.1931
  510loPI   C1A 8151   3.517   1.467   9.439 -0.0081 -0.0464  0.0262
  510loPI   C2A 8152   3.647   1.476   9.027  0.5314 -0.0954 -0.0449
  510loPI   C3A 8153   3.576   1.487   8.645 -0.1031  0.1236 -0.0276
  510loPI   C4A 8154   3.526   1.485   8.172  0.0221  0.4069  0.0570
  510loPI   C5A 8155   3.587   1.408   7.719 -0.2163  0.0075 -0.0401
  510loPI   C6A 8156   3.379   1.291   7.295  0.0354 -0.2464  0.2869
  510loPI   C1B 8157   3.774   1.018   9.249 -0.3877  0.1919  0.4267
  510loPI   C2B 8158   3.888   1.054   8.867 -0.0220  0.0973  0.2975
  510loPI   C3B 8159   3.863   1.033   8.372  0.0020 -0.0974 -0.0088
  510loPI   C4B 8160   3.823   1.034   7.926  0.0444  0.0403 -0.2057
  511loPI    C1 8161  10.796   8.445  10.172 -0.2801  0.0187 -0.1192
  511loPI    C2 8162  11.038   8.707  10.354 -0.1990  0.0241 -0.2337
  511loPI    C3 8163  11.050   8.320  10.455 -0.0040 -0.0081 -0.3734
  511loPI   PO4 8164  10.816   8.428   9.877 -0.0875  0.0738 -0.1990
  511loPI   GL1 8165  10.681   8.581   9.483 -0.1907  0.2399  0.0128
  511loPI   GL2 8166  10.953   8.618   9.347  0.1224 -0.2066 -0.0092
  511loPI   C1A 8167  10.389   8.397   9.036  0.1725 -0.0628 -0.0446
  511loPI   C2A 8168  10.398   8.432   8.552  0.0503 -0.2831  0.0754
  511loPI   C3A 8169  10.588   8.397   8.114 -0.1011  0.1244  0.2001
  511loPI   C4A 8170  10.641   8.248   7.772  0.1239  0.1465  0.0281
  511loPI   C5A 8171  10.694   8.138   7.336 -0.3993  0.0781  0.0557
  511loPI   C6A 8172  10.398   7.809   7.200  0.1601 -0.1699 -0.2689
  511loPI   C1B 8173  10.894   8.711   8.931 -0.0319 -0.0901  0.2052
  511loPI   C2B 8174  10.814   8.733   8.504  0.1903  0.3004 -0.0755
  511loPI   C3B 8175  10.813   8.820   8.057 -0.1637  0.2540  0.0444
  511loPI   C4B 8176  10.840   8.731   7.595  0.2580 -0.0431  0.3373
  512loPI    C1 8177   4.210   9.700   9.490  0.0521 -0.0037 -0.0194
  512loPI    C2 8178   4.487   9.719   9.778  0.1102 -0.0223 -0.0740
  512loPI    C3 8179   4.117   9.854   9.848  0.1156 -0.0550  0.0194
  512loPI   PO4 8180   4.170   9.485   9.438  0.2011 -0.1994 -0.1125
  512loPI   GL1 8181   4.044   9.248   9.084  0.0435 -0.0634  0.0780
  512loPI   GL2 8182   4.267   9.517   8.967 -0.1259  0.3626  0.1544
  512loPI   C1A 8183   3.991   9.087   8.663  0.0088 -0.2283 -0.2229
  512loPI   C2A 8184   3.665   9.040   8.401  0.1907 -0.1561  0.0477
  512loPI   C3A 8185   3.746   9.264   7.899  0.2790  0.1274  0.1000
  512loPI   C4A 8186   3.681   9.038   7.505 -0.1003 -0.2422  0.0444
  512loPI   C5A 8187   3.512   8.858   7.131 -0.1825 -0.0356 -0.2893
  512loPI   C6A 8188   3.182   8.973   6.928 -0.3116  0.0807  0.1583
  512loPI   C1B 8189   4.382   9.291   8.523 -0.1260 -0.2486 -0.0734
  512loPI   C2B 8190   4.608   9.365   8.209 -0.3086 -0.0299  0.1685
  512loPI   C3B 8191   4.686   9.522   7.820  0.0864  0.1320  0.0298
  512loPI   C4B 8192   4.649   9.941   7.675 -0.2467 -0.3798 -0.0435
  513loPI    C1 8193   7.985   5.866  10.033 -0.1057 -0.0069 -0.1235
  513loPI    C2 8194   7.722   5.846  10.333 -0.0506 -0.0783 -0.0793
  513loPI    C3 8195   7.694   5.591  10.026 -0.0984 -0.0146 -0.1282
  513loPI   PO4 8196   8.013   6.055   9.762 -0.2009  0.0813 -0.2923
  513loPI   GL1 8197   7.777   6.146   9.494  0.1916  0.1202  0.2100
  513loPI   GL2 8198   7.528   6.332   9.531 -0.0195  0.0067 -0.0522
  513loPI   C1A 8199   8.022   5.960   9.068  0.3044  0.2393  0.2406
  513loPI   C2A 8200   7.874   5.808   8.623 -0.2706  0.4351 -0.2981
  513loPI   C3A 8201   7.676   5.795   8.308 -0.2227  0.1481 -0.0106
  513loPI   C4A 8202   7.577   5.575   7.882 -0.0893 -0.0266  0.0699
  513loPI   C5A 8203   7.474   5.564   7.447 -0.0049 -0.1198 -0.2782
  513loPI   C6A 8204   7.463   5.348   7.017 -0.1537 -0.1579  0.0975
  513loPI   C1B 8205   7.554   6.220   9.056  0.0060 -0.0847 -0.1354
  513loPI   C2B 8206   7.730   6.251   8.592  0.2640  0.2498  0.0034
  513loPI   C3B 8207   7.676   6.308   8.126 -0.4341 -0.0494  0.1798
  513loPI   C4B 8208   7.806   6.224   7.683 -0.1178  0.1490 -0.0639
  514loPI    C1 8209   8.663   4.851   9.978 -0.0018 -0.0409 -0.0907
  514loPI    C2 8210   8.470   4.681  10.285  0.0342  0.2648  0.1052
  514loPI    C3 8211   8.865   4.743  10.305  0.1078 -0.0784 -0.1701
  514loPI   PO4 8212   8.518   5.039   9.884 -0.5024  0.1807  0.0680
  514loPI   GL1 8213   8.480   4.986   9.482  0.4910  0.0197 -0.0330
  514loPI   GL2 8214   8.344   5.195   9.402 -0.2351  0.0091 -0.3290
  514loPI   C1A 8215   8.699   4.886   9.085 -0.1093  0.2897  0.0424
  514loPI   C2A 8216   8.636   4.628   8.754 -0.1154  0.0825 -0.2325
  514loPI   C3A 8217   8.646   4.209   8.534  0.3019  0.1104  0.2329
  514loPI   C4A 8218   8.614   3.953   8.163  0.0076 -0.5804  0.1791
  514loPI   C5A 8219   8.756   3.882   7.796 -0.0447 -0.0630  0.1081
  514loPI   C6A 8220   9.084   3.869   7.520  0.0821 -0.0882  0.1782
  514loPI   C1B 8221   8.187   4.904   8.984  0.1494 -0.3002 -0.1726
  514loPI   C2B 8222   7.986   4.736   8.567  0.0255 -0.0089  0.1274
  514loPI   C3B 8223   8.080   4.697   8.131 -0.1717 -0.1990  0.1071
  514loPI   C4B 8224   7.731   4.721   7.887  0.0604  0.1243  0.4010
  515loPI    C1 8225  12.078   1.334  10.002 -0.1133  0.0841  0.1061
  515loPI    C2 8226  12.127   1.007  10.227  0.2164  0.1294  0.1044
  515loPI    C3 8227  12.302   1.350  10.333  0.1647  0.2156 -0.0853
  515loPI   PO4 8228  12.081   1.104   9.758 -0.3208  0.0651 -0.0845
  515loPI   GL1 8229  11.878   1.156   9.266 -0.2665 -0.0599  0.0287
  515loPI   GL2 8230  11.667   1.479   9.277 -0.1097  0.0589 -0.1448
  515loPI   C1A 8231  11.939   0.953   8.888  0.0378 -0.2565 -0.1340
  515loPI   C2A 8232  11.868   0.764   8.519 -0.4133 -0.0335 -0.1834
  515loPI   C3A 8233  11.754   0.697   8.101 -0.1892 -0.4410 -0.0412
  515loPI   C4A 8234  11.929   0.918   7.678 -0.0621  0.0006  0.0201
  515loPI   C5A 8235  12.169   1.279   7.576 -0.0274  0.1713  0.0902
  515loPI   C6A 8236  12.043   1.666   7.725  0.1659  0.2511 -0.0692
  515loPI   C1B 8237  11.936   1.500   8.922 -0.1184  0.0986 -0.1818
  515loPI   C2B 8238  11.906   1.303   8.471 -0.0412  0.3728  0.1700
  515loPI   C3B 8239  12.021   1.121   8.121  0.1480 -0.2612 -0.1187
  515loPI   C4B 8240  12.285   0.908   7.999 -0.0561  0.2748 -0.1364
  516loPI    C1 8241   8.040   3.065   9.977 -0.0800  0.1771 -0.1988
  516loPI    C2 8242   8.302   3.171  10.260 -0.0512 -0.3510 -0.0162
  516loPI    C3 8243   7.910   3.228  10.318 -0.0001  0.2789 -0.2168
  516loPI   PO4 8244   8.090   3.174   9.737  0.0684 -0.1078  0.0440
  516loPI   GL1 8245   8.238   3.413   9.473 -0.0055  0.1774 -0.1730
  516loPI   GL2 8246   8.642   3.402   9.405 -0.1841 -0.0790 -0.1658
  516loPI   C1A 8247   8.121   3.533   9.013  0.0842  0.0384 -0.2030
  516loPI   C2A 8248   7.922   3.373   8.590  0.5161  0.0309  0.0452
  516loPI   C3A 8249   7.862   3.344   8.126 -0.0269 -0.0309  0.2289
  516loPI   C4A 8250   7.673   3.332   7.651 -0.1359 -0.1777  0.2793
  516loPI   C5A 8251   7.664   3.374   7.162 -0.0612 -0.0855  0.2155
  516loPI   C6A 8252   7.520   3.034   6.852  0.2428  0.2953  0.0626
  516loPI   C1B 8253   8.686   3.493   8.896 -0.2177  0.2660 -0.1588
  516loPI   C2B 8254   8.751   3.490   8.428  0.3809  0.4802 -0.1640
  516loPI   C3B 8255   8.975   3.545   8.097  0.0303  0.1420 -0.0447
  516loPI   C4B 8256   9.245   3.268   8.097 -0.1080  0.2448  0.2294
  517loPI    C1 8257   2.805  10.553   9.643  0.1424 -0.3490 -0.1384
  517loPI    C2 8258   3.103  10.816   9.687 -0.0444 -0.1989  0.2826
  517loPI    C3 8259   3.011  10.567   9.986 -0.3981 -0.1822  0.1922
  517loPI   PO4 8260   2.880  10.408   9.426  0.0088  0.1061 -0.1819
  517loPI   GL1 8261   3.049  10.318   8.992  0.2068  0.0677  0.1952
  517loPI   GL2 8262   3.355  10.369   8.922 -0.0716 -0.1559  0.1110
  517loPI   C1A 8263   3.022  10.440   8.513  0.0087 -0.1707  0.2931
  517loPI   C2A 8264   2.961  10.518   8.030 -0.1484 -0.0427 -0.0589
  517loPI   C3A 8265   2.994  10.276   7.622  0.0289  0.3136 -0.1588
  517loPI   C4A 8266   3.175  10.508   7.258  0.1205  0.0211  0.0196
  517loPI   C5A 8267   3.158  10.571   6.848  0.0415 -0.1551  0.2198
  517loPI   C6A 8268   2.920  10.547   6.502  0.0346  0.0027 -0.1788
  517loPI   C1B 8269   3.466  10.135   8.557  0.0645  0.0188  0.0632
  517loPI   C2B 8270   3.693  10.002   8.307  0.1559 -0.3197  0.0532
  517loPI   C3B 8271   3.647   9.827   7.930  0.1645  0.1790  0.2355
  517loPI   C4B 8272   3.757   9.598   7.505 -0.1693 -0.2628 -0.0229
  518loPI    C1 8273   8.758  17.918  10.133 -0.0760 -0.0817 -0.5140
  518loPI    C2 8274   8.999  18.164   9.929  0.1564 -0.1077 -0.2748
  518loPI    C3 8275   8.903  18.246  10.309 -0.0464 -0.2062 -0.3034
  518loPI   PO4 8276   8.561  17.893   9.929  0.2286 -0.2776 -0.1788
  518loPI   GL1 8277   8.516  18.130   9.604 -0.1315  0.2076 -0.1720
  518loPI   GL2 8278   8.773  18.430   9.509 -0.1027 -0.0391 -0.1202
  518loPI   C1A 8279   8.084  18.249   9.352 -0.2290  0.2824 -0.0654
  518loPI   C2A 8280   7.784  18.344   9.058 -0.0190  0.0619 -0.0319
  518loPI   C3A 8281   7.686  18.067   8.861 -0.1112 -0.0393  0.1919
  518loPI   C4A 8282   7.357  17.694   8.734  0.1065  0.1735 -0.0585
  518loPI   C5A 8283   7.276  17.446   8.330 -0.3637  0.0216  0.0096
  518loPI   C6A 8284   7.008  17.469   8.021  0.3721 -0.1417  0.3593
  518loPI   C1B 8285   8.578  18.474   9.123 -0.1566 -0.1215  0.0893
  518loPI   C2B 8286   8.214  18.193   8.856  0.0556 -0.1858 -0.1628
  518loPI   C3B 8287   8.058  18.279   8.383  0.1901  0.0943  0.0173
  518loPI   C4B 8288   8.121  17.942   8.047 -0.2021  0.2087 -0.0818
  519loPI    C1 8289   4.557   2.824  10.313 -0.1394  0.0662 -0.0448
  519loPI    C2 8290   4.819   2.678  10.578  0.1151  0.1638 -0.2396
  519loPI    C3 8291   4.701   3.060  10.602 -0.2134  0.0508  0.0049
  519loPI   PO4 8292   4.572   2.580  10.156  0.1346 -0.2264  0.0080
  519loPI   GL1 8293   4.469   2.501   9.778 -0.0722  0.1745  0.1501
  519loPI   GL2 8294   4.241   2.408   9.667  0.1981 -0.0363 -0.0795
  519loPI   C1A 8295   4.656   2.397   9.420 -0.2747  0.0099 -0.2086
  519loPI   C2A 8296   4.616   2.395   8.878  0.3801 -0.0936  0.0296
  519loPI   C3A 8297   4.601   2.345   8.433  0.0632  0.0567 -0.1062
  519loPI   C4A 8298   4.526   2.336   8.000  0.3120  0.2321  0.3855
  519loPI   C5A 8299   4.383   2.473   7.564 -0.2764 -0.1743  0.1400
  519loPI   C6A 8300   4.359   2.689   7.266 -0.0955 -0.3062 -0.1614
  519loPI   C1B 8301   4.085   2.432   9.206  0.0376  0.3908 -0.1040
  519loPI   C2B 8302   4.177   2.414   8.730 -0.0073 -0.0995  0.2017
  519loPI   C3B 8303   4.059   2.460   8.317  0.1715  0.2243  0.2825
  519loPI   C4B 8304   4.051   2.312   7.951  0.2442  0.0441 -0.0424
  520loPI    C1 8305   5.856  13.577   9.852  0.2134  0.1619  0.0364
  520loPI    C2 8306   5.538  13.465  10.067  0.2917 -0.0223  0.0583
  520loPI    C3 8307   5.855  13.630  10.248  0.2892 -0.0214  0.0619
  520loPI   PO4 8308   5.899  13.429   9.676  0.1255  0.0490  0.0992
  520loPI   GL1 8309   6.027  13.391   9.209 -0.1054  0.2021 -0.1292
  520loPI   GL2 8310   5.756  13.218   9.055 -0.1576 -0.0857 -0.1755
  520loPI   C1A 8311   6.049  13.447   8.766  0.0290 -0.1618 -0.3188
  520loPI   C2A 8312   6.057  13.518   8.341  0.1929  0.1786 -0.4370
  520loPI   C3A 8313   6.107  13.532   7.928  0.0392  0.1345 -0.1285
  520loPI   C4A 8314   5.998  13.456   7.506  0.0774  0.2985  0.2575
  520loPI   C5A 8315   5.847  13.401   7.100  0.0411 -0.0199 -0.1241
  520loPI   C6A 8316   5.464  13.183   6.988 -0.0373  0.0504 -0.2060
  520loPI   C1B 8317   5.563  13.352   8.712  0.1059  0.3036 -0.1204
  520loPI   C2B 8318   5.495  13.445   8.271 -0.1573  0.1302  0.2414
  520loPI   C3B 8319   5.508  13.528   7.855  0.3743 -0.2482 -0.1725
  520loPI   C4B 8320   5.633  13.798   7.544  0.0297  0.1207 -0.0861
  521loPI    C1 8321  18.761   1.328   9.987 -0.0789 -0.2954 -0.1675
  521loPI    C2 8322  19.112   1.322   9.796  0.0737  0.2534  0.0768
  521loPI    C3 8323  19.100   1.270  10.192 -0.1201  0.2501  0.0712
  521loPI   PO4 8324  18.601   1.220   9.868  0.0108 -0.2731 -0.0488
  521loPI   GL1 8325  18.424   1.115   9.481  0.1058  0.0042 -0.3660
  521loPI   GL2 8326  18.258   1.486   9.396  0.1739  0.2820 -0.0267
  521loPI   C1A 8327  18.190   1.065   9.081  0.0303  0.0978 -0.0012
  521loPI   C2A 8328  18.267   0.880   8.656 -0.3848  0.1815 -0.1102
  521loPI   C3A 8329  18.297   0.596   8.434 -0.0737 -0.1070  0.1287
  521loPI   C4A 8330  18.582   0.299   8.074 -0.0362 -0.1929 -0.2517
  521loPI   C5A 8331  18.781   0.111   7.790  0.2427  0.1830  0.1450
  521loPI   C6A 8332  18.948  -0.138   7.403  0.0574  0.1501 -0.0496
  521loPI   C1B 8333  18.311   1.761   9.106  0.2832  0.2805 -0.0860
  521loPI   C2B 8334  18.052   2.064   8.864  0.0502  0.3269  0.0582
  521loPI   C3B 8335  17.761   2.352   8.590 -0.1107 -0.5549 -0.1917
  521loPI   C4B 8336  17.464   2.629   8.267  0.0477  0.2897  0.0541
  522loPI    C1 8337  17.821   3.581  10.028  0.1934 -0.3595  0.0583
  522loPI    C2 8338  17.440   3.539  10.142  0.1485 -0.1783 -0.0202
  522loPI    C3 8339  17.729   3.567  10.417  0.0836 -0.1226  0.0425
  522loPI   PO4 8340  17.921   3.378   9.889  0.2561  0.0959  0.1003
  522loPI   GL1 8341  18.152   3.133   9.514  0.2263 -0.2070 -0.1454
  522loPI   GL2 8342  17.830   3.111   9.268 -0.3791  0.0261 -0.2582
  522loPI   C1A 8343  18.225   2.756   9.254 -0.2156  0.3639 -0.2876
  522loPI   C2A 8344  18.140   2.619   8.795 -0.2992 -0.1557 -0.1507
  522loPI   C3A 8345  18.385   2.360   8.464 -0.1505  0.3727  0.0950
  522loPI   C4A 8346  18.252   2.123   8.121  0.1600  0.1014 -0.0601
  522loPI   C5A 8347  18.101   1.998   7.743 -0.0698 -0.0291 -0.0214
  522loPI   C6A 8348  18.038   1.973   7.218  0.0420 -0.1549 -0.0113
  522loPI   C1B 8349  17.781   3.040   8.844 -0.1697  0.1336 -0.1886
  522loPI   C2B 8350  17.882   2.872   8.378 -0.1392 -0.1632 -0.1439
  522loPI   C3B 8351  17.990   2.576   8.235  0.2772  0.1154  0.5004
  522loPI   C4B 8352  17.769   2.205   8.019 -0.0970 -0.1251  0.0417
  523loPI    C1 8353  12.587   4.183  10.609 -0.0018 -0.0906 -0.0546
  523loPI    C2 8354  12.946   4.359  10.581  0.0828 -0.2331  0.1173
  523loPI    C3 8355  12.630   4.568  10.710  0.1348 -0.1469  0.1057
  523loPI   PO4 8356  12.550   4.070  10.341 -0.1126 -0.1240 -0.1855
  523loPI   GL1 8357  12.389   4.268   9.846 -0.1500 -0.2720  0.3527
  523loPI   GL2 8358  12.305   4.547   9.770  0.1046 -0.0686  0.1666
  523loPI   C1A 8359  12.185   3.887   9.593  0.2105  0.0177 -0.2219
  523loPI   C2A 8360  12.173   3.563   9.340  0.1442  0.0205  0.3123
  523loPI   C3A 8361  12.192   3.431   8.972 -0.1925 -0.2624  0.0915
  523loPI   C4A 8362  12.376   3.372   8.585 -0.1202  0.1085 -0.0586
  523loPI   C5A 8363  12.406   3.588   8.293  0.0694  0.0401  0.5867
  523loPI   C6A 8364  12.077   3.664   8.196 -0.2246  0.1202  0.1652
  523loPI   C1B 8365  12.356   4.542   9.315 -0.2310  0.1619 -0.0777
  523loPI   C2B 8366  12.391   4.401   8.830 -0.2460  0.1255 -0.1717
  523loPI   C3B 8367  12.558   4.614   8.323 -0.1144  0.1092  0.1718
  523loPI   C4B 8368  12.625   4.613   7.912 -0.1523 -0.3549 -0.3231
  524loPI    C1 8369  15.620   2.500  10.025 -0.0335 -0.4156  0.2674
  524loPI    C2 8370  15.328   2.745  10.148 -0.0056 -0.2148 -0.0561
  524loPI    C3 8371  15.611   2.626  10.405  0.0604  0.2066  0.0742
  524loPI   PO4 8372  15.694   2.599   9.760 -0.3276  0.1069 -0.1702
  524loPI   GL1 8373  15.745   2.430   9.397  0.0653  0.1182 -0.2079
  524loPI   GL2 8374  15.949   2.278   9.345 -0.0484  0.0723 -0.0891
  524loPI   C1A 8375  15.504   2.754   9.162  0.2071  0.0400  0.1753
  524loPI   C2A 8376  15.308   2.844   8.848  0.0091  0.0591  0.0221
  524loPI   C3A 8377  15.656   2.880   8.518  0.2393  0.3340 -0.2148
  524loPI   C4A 8378  15.793   3.281   8.434  0.3137  0.3054 -0.1141
  524loPI   C5A 8379  16.008   3.681   8.391  0.1052 -0.1996 -0.1466
  524loPI   C6A 8380  15.882   4.013   8.570  0.0619 -0.0451 -0.1078
  524loPI   C1B 8381  15.811   2.147   8.898 -0.3399 -0.0911 -0.0324
  524loPI   C2B 8382  15.874   1.934   8.558  0.1602  0.2403  0.0885
  524loPI   C3B 8383  15.661   1.855   8.143  0.2156  0.1751 -0.4018
  524loPI   C4B 8384  15.716   2.118   7.810 -0.1717  0.1706  0.0636
  525loPI    C1 8385  19.450   6.562   9.916 -0.0179  0.2131  0.1223
  525loPI    C2 8386  19.232   6.267  10.077 -0.0465  0.2268  0.1087
  525loPI    C3 8387  19.264   6.618  10.266 -0.1998  0.2925  0.0136
  525loPI   PO4 8388  19.388   6.671   9.571 -0.1169  0.0382  0.3030
  525loPI   GL1 8389  19.549   6.878   9.234  0.3000  0.2229 -0.0409
  525loPI   GL2 8390  19.948   6.967   9.125 -0.1018 -0.1781 -0.2148
  525loPI   C1A 8391  19.621   6.756   8.812  0.0028  0.1106  0.1086
  525loPI   C2A 8392  19.887   6.815   8.645 -0.1942  0.0867 -0.1206
  525loPI   C3A 8393  20.020   7.263   8.435 -0.0254 -0.1333  0.1438
  525loPI   C4A 8394  20.046   7.570   8.224  0.0087  0.0023  0.1357
  525loPI   C5A 8395  20.451   7.874   8.131  0.4133  0.1904 -0.2331
  525loPI   C6A 8396  20.783   8.015   7.817 -0.1956 -0.3033  0.2139
  525loPI   C1B 8397  19.912   7.279   8.930  0.1899  0.3539 -0.1415
  525loPI   C2B 8398  19.733   7.623   8.693  0.0860  0.2600 -0.0563
  525loPI   C3B 8399  19.797   8.025   8.417 -0.2013 -0.2459 -0.0685
  525loPI   C4B 8400  19.976   8.058   7.985  0.0714 -0.2815  0.0196
  526loPI    C1 8401   3.612   9.713   9.653  0.1433  0.1624 -0.1719
  526loPI    C2 8402   3.237   9.620   9.552  0.1747  0.1442 -0.2732
  526loPI    C3 8403   3.323   9.723   9.929  0.0948  0.0034 -0.2156
  526loPI   PO4 8404   3.728   9.793   9.470  0.1129  0.1483 -0.0464
  526loPI   GL1 8405   3.844   9.729   9.053 -0.0201  0.0476 -0.0133
  526loPI   GL2 8406   3.715  10.080   8.990 -0.1781  0.2114  0.2448
  526loPI   C1A 8407   3.891   9.816   8.674  0.2573  0.2836  0.0946
  526loPI   C2A 8408   4.022   9.525   8.280  0.0911 -0.0355  0.1473
  526loPI   C3A 8409   4.215   9.453   7.872  0.0667  0.1058  0.2618
  526loPI   C4A 8410   4.263   9.644   7.542  0.0995  0.1668 -0.1584
  526loPI   C5A 8411   4.187   9.756   7.213 -0.0400 -0.3013  0.2324
  526loPI   C6A 8412   3.925  10.110   6.978  0.2890  0.0833  0.1177
  526loPI   C1B 8413   3.267   9.890   8.940  0.0968  0.2394 -0.0215
  526loPI   C2B 8414   3.087   9.824   8.562 -0.0212 -0.2034  0.0699
  526loPI   C3B 8415   3.185  10.019   8.075  0.0658  0.2796  0.1676
  526loPI   C4B 8416   3.212   9.811   7.637  0.1367  0.3994  0.1719
  527loPI    C1 8417  12.526  16.918  10.013 -0.1446 -0.0645 -0.2160
  527loPI    C2 8418  12.261  16.751  10.262  0.2335 -0.1654  0.1297
  527loPI    C3 8419  12.564  16.968  10.408  0.3322 -0.0320 -0.2597
  527loPI   PO4 8420  12.449  16.722   9.840  0.1001  0.2630  0.4424
  527loPI   GL1 8421  12.492  16.663   9.488 -0.0276 -0.1891 -0.0935
  527loPI   GL2 8422  12.226  16.922   9.364 -0.6168 -0.1562 -0.0913
  527loPI   C1A 8423  12.605  16.615   9.135 -0.0603 -0.2173  0.0966
  527loPI   C2A 8424  12.803  16.628   8.768 -0.1410 -0.2179  0.1861
  527loPI   C3A 8425  12.909  16.413   8.320  0.1175 -0.3418 -0.1080
  527loPI   C4A 8426  12.795  16.171   7.939 -0.2024  0.2691  0.0172
  527loPI   C5A 8427  12.553  15.901   7.592 -0.1660 -0.1670 -0.0730
  527loPI   C6A 8428  12.348  15.674   7.188  0.1137  0.2586  0.0580
  527loPI   C1B 8429  12.250  17.043   8.973  0.1543 -0.1758  0.0785
  527loPI   C2B 8430  12.339  17.167   8.577 -0.1584 -0.1619  0.2933
  527loPI   C3B 8431  12.424  17.202   8.118 -0.0943  0.1040 -0.0580
  527loPI   C4B 8432  12.653  17.239   7.822  0.1841 -0.1308  0.2330
  528loPI    C1 8433   9.295  17.554   9.863 -0.1056  0.3123 -0.0143
  528loPI    C2 8434   9.395  17.924   9.749  0.2659  0.1380 -0.2754
  528loPI    C3 8435   9.671  17.634   9.750  0.0287 -0.0945  0.1257
  528loPI   PO4 8436   9.005  17.556   9.778 -0.3876 -0.1560 -0.3759
  528loPI   GL1 8437   8.810  17.608   9.444 -0.1148  0.1406 -0.0446
  528loPI   GL2 8438   8.989  17.923   9.474  0.2367 -0.0060  0.4098
  528loPI   C1A 8439   8.540  17.878   9.168 -0.0493 -0.1015 -0.0361
  528loPI   C2A 8440   8.648  17.826   8.698 -0.1610 -0.1478 -0.0365
  528loPI   C3A 8441   8.565  17.525   8.416  0.2274 -0.2010 -0.1257
  528loPI   C4A 8442   8.479  17.560   7.945 -0.0512 -0.2049  0.0020
  528loPI   C5A 8443   8.482  17.456   7.523 -0.3910  0.2193  0.1228
  528loPI   C6A 8444   8.674  17.107   7.239  0.2085  0.0261 -0.2091
  528loPI   C1B 8445   8.992  18.023   9.079 -0.1434 -0.2699  0.2289
  528loPI   C2B 8446   9.176  17.978   8.633 -0.0925 -0.0790  0.0245
  528loPI   C3B 8447   9.037  17.859   8.359  0.2375 -0.2454  0.1231
  528loPI   C4B 8448   8.898  17.739   7.911  0.2332  0.1930 -0.0770
  529loPI    C1 8449   8.132   0.172  10.288  0.0695 -0.0504  0.0287
  529loPI    C2 8450   8.243  -0.164  10.474 -0.0342 -0.0385  0.1130
  529loPI    C3 8451   8.395   0.187  10.588  0.3147 -0.0879 -0.1803
  529loPI   PO4 8452   8.251   0.070  10.017  0.2104 -0.2536  0.5199
  529loPI   GL1 8453   8.150   0.036   9.672  0.3084  0.0968  0.1714
  529loPI   GL2 8454   8.314  -0.285   9.655 -0.1213 -0.2869 -0.2885
  529loPI   C1A 8455   8.019   0.138   9.340  0.3159 -0.2152 -0.0517
  529loPI   C2A 8456   7.997   0.248   8.856 -0.1826  0.2009  0.1307
  529loPI   C3A 8457   7.947   0.234   8.421  0.0616 -0.0452  0.3996
  529loPI   C4A 8458   7.995  -0.075   8.075  0.0238  0.0490 -0.3521
  529loPI   C5A 8459   8.021  -0.442   7.901 -0.2836  0.0360  0.2642
  529loPI   C6A 8460   8.314  -0.573   7.554 -0.4062  0.0308 -0.0266
  529loPI   C1B 8461   8.294  -0.223   9.210  0.1287 -0.0998  0.0162
  529loPI   C2B 8462   8.246  -0.255   8.807  0.3461 -0.0477  0.0340
  529loPI   C3B 8463   8.329  -0.286   8.394  0.4601  0.1118 -0.0263
  529loPI   C4B 8464   8.523  -0.281   7.946 -0.2196  0.0512  0.1501
  530loPI    C1 8465   9.913   9.479  10.159 -0.1240 -0.1192 -0.0388
  530loPI    C2 8466   9.780   9.847  10.240  0.0553 -0.0550 -0.0309
  530loPI    C3 8467   9.797   9.572  10.530 -0.0191 -0.0510 -0.0225
  530loPI   PO4 8468   9.778   9.445   9.921  0.0570 -0.0971  0.1238
  530loPI   GL1 8469   9.627   9.277   9.567  0.1772 -0.0896  0.0712
  530loPI   GL2 8470   9.309   9.278   9.488  0.1760 -0.0973  0.2479
  530loPI   C1A 8471   9.657   9.317   9.178 -0.2776  0.0195 -0.0708
  530loPI   C2A 8472   9.479   9.420   8.776 -0.1212  0.0371 -0.1307
  530loPI   C3A 8473   9.604   9.477   8.314 -0.0740  0.1929  0.0751
  530loPI   C4A 8474   9.939   9.437   7.905 -0.1435 -0.0149 -0.1780
  530loPI   C5A 8475   9.963   9.505   7.510  0.0993  0.0116  0.0379
  530loPI   C6A 8476   9.673   9.806   7.285 -0.1608 -0.0711  0.3857
  530loPI   C1B 8477   9.025   9.310   9.096  0.0752 -0.1432 -0.2000
  530loPI   C2B 8478   8.649   9.595   9.002 -0.1200  0.0039  0.1714
  530loPI   C3B 8479   8.585   9.885   8.646  0.0467  0.0012 -0.0425
  530loPI   C4B 8480   8.414   9.820   8.292 -0.2456  0.1170  0.0581
  531loPI    C1 8481   8.062   4.743   9.859 -0.1338  0.1774 -0.1027
  531loPI    C2 8482   8.012   4.475  10.152 -0.2112  0.0180 -0.2598
  531loPI    C3 8483   7.993   4.866  10.233  0.5669 -0.0019  0.1000
  531loPI   PO4 8484   8.270   4.565   9.691 -0.2689 -0.2132  0.1120
  531loPI   GL1 8485   8.184   4.308   9.378 -0.2333  0.3835 -0.0040
  531loPI   GL2 8486   8.438   4.505   9.204  0.3466 -0.2496  0.0608
  531loPI   C1A 8487   7.924   4.085   9.117  0.3536 -0.1517  0.2780
  531loPI   C2A 8488   7.920   3.906   8.726 -0.2520  0.0458 -0.2161
  531loPI   C3A 8489   7.699   3.757   8.387  0.1751  0.4010  0.1205
  531loPI   C4A 8490   7.463   3.691   7.944 -0.2585  0.1318 -0.0931
  531loPI   C5A 8491   7.239   3.633   7.484 -0.0375 -0.0068 -0.0796
  531loPI   C6A 8492   6.852   3.664   7.236 -0.1000  0.1309 -0.3369
  531loPI   C1B 8493   8.190   4.367   8.793  0.0433  0.0781 -0.1661
  531loPI   C2B 8494   8.096   4.214   8.415  0.0301  0.0541 -0.1934
  531loPI   C3B 8495   8.275   4.223   7.985  0.1453  0.1134  0.0466
  531loPI   C4B 8496   8.570   4.351   7.635 -0.2741  0.1609 -0.3430
  532loPI    C1 8497   2.720  11.730   9.675  0.0776  0.2592 -0.2161
  532loPI    C2 8498   2.520  12.076   9.708 -0.0863  0.1508 -0.0486
  532loPI    C3 8499   2.370  11.742   9.869  0.2418  0.0708  0.1000
  532loPI   PO4 8500   2.863  11.711   9.499 -0.2149  0.3140 -0.0972
  532loPI   GL1 8501   3.031  11.796   9.088  0.3340 -0.0114 -0.0395
  532loPI   GL2 8502   3.259  11.793   8.929 -0.2173  0.0674 -0.0353
  532loPI   C1A 8503   2.897  12.016   8.695  0.1787  0.1008  0.1323
  532loPI   C2A 8504   2.916  11.936   8.238 -0.2085 -0.2792 -0.2007
  532loPI   C3A 8505   2.740  11.525   7.910 -0.0545 -0.2381  0.0037
  532loPI   C4A 8506   2.653  11.281   7.478 -0.2084 -0.0180  0.0737
  532loPI   C5A 8507   2.580  11.060   7.092  0.1109 -0.2271  0.0493
  532loPI   C6A 8508   2.665  10.622   6.949  0.1898  0.0537  0.1525
  532loPI   C1B 8509   3.343  11.822   8.548 -0.0074 -0.2324  0.1293
  532loPI   C2B 8510   3.712  11.889   8.222  0.2344 -0.1098 -0.0233
  532loPI   C3B 8511   4.009  11.916   7.894  0.1637 -0.0850 -0.2350
  532loPI   C4B 8512   4.389  11.950   7.645 -0.1786 -0.3735 -0.0801
  533loPI    C1 8513   3.674   8.913   9.741  0.0924  0.1236  0.0368
  533loPI    C2 8514   3.278   8.869   9.779  0.0836  0.2582  0.1096
  533loPI    C3 8515   3.448   9.222   9.859  0.2537  0.1234  0.3558
  533loPI   PO4 8516   3.706   8.766   9.515 -0.0760 -0.0497 -0.2420
  533loPI   GL1 8517   3.714   8.928   9.108  0.0474  0.0121 -0.1307
  533loPI   GL2 8518   3.524   8.649   8.952  0.1180 -0.1397  0.0431
  533loPI   C1A 8519   3.608   9.381   8.815  0.0782  0.1980  0.0118
  533loPI   C2A 8520   3.497   9.555   8.424 -0.6611  0.3493  0.1667
  533loPI   C3A 8521   3.313   9.500   8.059  0.0787 -0.0618  0.0195
  533loPI   C4A 8522   3.222   9.351   7.702  0.0289  0.0330 -0.0398
  533loPI   C5A 8523   3.337   9.385   7.284  0.3092 -0.1381 -0.0079
  533loPI   C6A 8524   3.542   9.573   6.970  0.0614  0.1356 -0.3613
  533loPI   C1B 8525   3.354   8.637   8.593 -0.1980  0.1037  0.1146
  533loPI   C2B 8526   3.448   8.595   8.224 -0.0463 -0.1850 -0.3946
  533loPI   C3B 8527   3.418   8.269   7.977 -0.1082  0.0691 -0.0645
  533loPI   C4B 8528   3.118   8.050   7.713 -0.0565  0.1460 -0.2069
  534loPI    C1 8529  10.149   9.770   9.819  0.2927  0.1647 -0.0973
  534loPI    C2 8530  10.094  10.102   9.603 -0.1782  0.0885 -0.1064
  534loPI    C3 8531   9.780   9.881   9.712  0.1011 -0.1696  0.1964
  534loPI   PO4 8532  10.314   9.623   9.696  0.1174  0.2567 -0.0481
  534loPI   GL1 8533  10.361   9.460   9.400 -0.4762  0.0425  0.0720
  534loPI   GL2 8534   9.978   9.696   9.319  0.1811  0.0305  0.0408
  534loPI   C1A 8535  10.478   9.464   9.036  0.1813 -0.0075  0.3337
  534loPI   C2A 8536  10.352   9.386   8.579 -0.0558  0.1964 -0.1472
  534loPI   C3A 8537  10.401   9.363   8.146  0.0017 -0.1483 -0.3809
  534loPI   C4A 8538  10.401   9.544   7.746 -0.3639 -0.0640 -0.0371
  534loPI   C5A 8539  10.681   9.670   7.560 -0.0932  0.0552 -0.1068
  534loPI   C6A 8540  11.016   9.612   7.188 -0.1303  0.1771 -0.0845
  534loPI   C1B 8541   9.948   9.623   8.898 -0.4676 -0.1828  0.1092
  534loPI   C2B 8542   9.910   9.765   8.589  0.0590 -0.1392 -0.1600
  534loPI   C3B 8543  10.007   9.908   8.199 -0.2515 -0.2825 -0.0191
  534loPI   C4B 8544   9.985  10.245   7.867 -0.0173 -0.4150 -0.0870
  535loPI    C1 8545   1.265  10.585   9.577 -0.1591  0.1540 -0.1249
  535loPI    C2 8546   0.992  10.820   9.752 -0.1208  0.1429 -0.0497
  535loPI    C3 8547   1.381  10.868   9.835 -0.1071  0.0997 -0.0883
  535loPI   PO4 8548   1.222  10.610   9.288 -0.0819  0.0951 -0.3084
  535loPI   GL1 8549   1.112  10.855   8.986  0.2561 -0.0421  0.3065
  535loPI   GL2 8550   0.790  10.734   8.964  0.0847 -0.1322 -0.0714
  535loPI   C1A 8551   1.182  10.691   8.580 -0.2285 -0.0108  0.0758
  535loPI   C2A 8552   1.164  10.711   8.151 -0.0850 -0.1100  0.1434
  535loPI   C3A 8553   1.350  10.601   7.730 -0.1116  0.2075  0.2486
  535loPI   C4A 8554   1.526  10.804   7.369  0.0619  0.2918  0.0669
  535loPI   C5A 8555   1.867  10.947   7.141  0.1891 -0.2988 -0.0313
  535loPI   C6A 8556   2.169  10.863   6.900  0.0013  0.0544  0.0387
  535loPI   C1B 8557   0.643  10.866   8.579  0.1304  0.0457  0.0374
  535loPI   C2B 8558   0.705  10.758   8.159 -0.0824  0.4708  0.1173
  535loPI   C3B 8559   0.784  10.990   7.801 -0.2428 -0.2839 -0.2439
  535loPI   C4B 8560   0.683  11.113   7.399  0.0675  0.0003  0.1342
  536loPI    C1 8561   8.830   5.325  10.158 -0.1250  0.1095 -0.0095
  536loPI    C2 8562   8.809   5.529   9.814 -0.1635  0.1010 -0.0122
  536loPI    C3 8563   8.834   5.725  10.162 -0.0025  0.1090 -0.0272
  536loPI   PO4 8564   9.035   5.216  10.125 -0.3453  0.2129 -0.1771
  536loPI   GL1 8565   9.215   5.114   9.791 -0.1265 -0.2033 -0.2953
  536loPI   GL2 8566   8.980   5.091   9.617 -0.1083 -0.1120 -0.2156
  536loPI   C1A 8567   9.347   5.181   9.344 -0.1596  0.1163  0.0363
  536loPI   C2A 8568   9.342   5.314   8.979  0.0190 -0.3254  0.0906
  536loPI   C3A 8569   9.588   5.037   8.791  0.0168  0.0013  0.2291
  536loPI   C4A 8570   9.531   4.852   8.353 -0.1737 -0.1988 -0.0222
  536loPI   C5A 8571   9.343   4.716   7.993 -0.1410  0.0301 -0.1611
  536loPI   C6A 8572   8.952   4.879   7.864 -0.0023 -0.0270  0.3088
  536loPI   C1B 8573   8.845   5.346   9.223 -0.1649 -0.1302  0.0014
  536loPI   C2B 8574   8.923   5.468   8.792  0.0638  0.2479 -0.1917
  536loPI   C3B 8575   9.216   5.458   8.417  0.2314  0.0358 -0.0882
  536loPI   C4B 8576   9.423   5.212   8.046  0.3016 -0.1343  0.2970
  537loPI    C1 8577  15.951  19.071   9.775 -0.0700 -0.4016  0.0286
  537loPI    C2 8578  15.957  19.203  10.153  0.3898  0.3020 -0.2032
  537loPI    C3 8579  15.638  19.272   9.921  0.0517 -0.2457  0.0782
  537loPI   PO4 8580  16.228  19.075   9.703  0.1367 -0.0428 -0.1264
  537loPI   GL1 8581  16.460  19.135   9.389  0.0025 -0.1763 -0.1614
  537loPI   GL2 8582  16.625  19.465   9.396 -0.2359  0.0108 -0.0836
  537loPI   C1A 8583  16.252  19.084   9.008  0.0585 -0.1175  0.1644
  537loPI   C2A 8584  16.029  19.017   8.624  0.3328 -0.1298 -0.1688
  537loPI   C3A 8585  15.990  19.060   8.270 -0.2877  0.1605  0.0645
  537loPI   C4A 8586  16.151  19.365   7.936 -0.2213  0.0594  0.4041
  537loPI   C5A 8587  16.075  19.755   7.818  0.0787  0.2546  0.1473
  537loPI   C6A 8588  15.753  19.932   7.506 -0.0392 -0.2782 -0.1348
  537loPI   C1B 8589  16.255  19.547   9.134 -0.0721  0.0888  0.0047
  537loPI   C2B 8590  16.410  19.542   8.780  0.1492 -0.0587 -0.0584
  537loPI   C3B 8591  16.388  19.288   8.416 -0.0194 -0.1619  0.1966
  537loPI   C4B 8592  16.552  18.959   8.021  0.0404  0.4140  0.2780
  538loPI    C1 8593  17.418   8.918   9.792 -0.0079 -0.0042  0.2069
  538loPI    C2 8594  17.156   9.203   9.692  0.0069  0.0828  0.4111
  538loPI    C3 8595  17.030   8.874   9.881 -0.0256 -0.0949  0.0887
  538loPI   PO4 8596  17.555   8.922   9.596 -0.3651  0.3525  0.0043
  538loPI   GL1 8597  17.460   9.029   9.211  0.1284 -0.2362  0.0298
  538loPI   GL2 8598  17.239   9.235   9.155  0.1613  0.2048  0.3732
  538loPI   C1A 8599  17.721   8.966   8.797 -0.2214  0.0407  0.1840
  538loPI   C2A 8600  17.804   9.285   8.577 -0.0467 -0.0120 -0.0625
  538loPI   C3A 8601  17.826   9.329   8.209 -0.0866 -0.0831  0.1655
  538loPI   C4A 8602  17.925   9.541   7.804 -0.0629  0.1549 -0.1977
  538loPI   C5A 8603  18.210   9.764   7.513 -0.1758  0.1404  0.0372
  538loPI   C6A 8604  18.487   9.689   7.257 -0.0041  0.0528 -0.1192
  538loPI   C1B 8605  17.274   9.329   8.723  0.2947  0.0662  0.1622
  538loPI   C2B 8606  17.373   9.220   8.420  0.4833  0.2320 -0.0689
  538loPI   C3B 8607  17.634   8.865   8.238 -0.2716  0.0824 -0.1876
  538loPI   C4B 8608  17.716   8.611   7.757 -0.0192 -0.1529  0.1969
  539loPI    C1 8609  13.845  15.569  10.118  0.0184  0.1265  0.0112
  539loPI    C2 8610  13.552  15.343  10.270 -0.0387  0.0478 -0.2115
  539loPI    C3 8611  13.929  15.291  10.393 -0.0960  0.0463 -0.0341
  539loPI   PO4 8612  13.780  15.547   9.859 -0.1635 -0.1427  0.0231
  539loPI   GL1 8613  13.498  15.780   9.531 -0.1585  0.2884 -0.1288
  539loPI   GL2 8614  13.645  15.944   9.404 -0.3398  0.0691  0.2622
  539loPI   C1A 8615  13.384  15.678   9.084  0.3492  0.4890  0.1062
  539loPI   C2A 8616  13.404  15.658   8.723 -0.2054  0.1348 -0.0655
  539loPI   C3A 8617  13.494  15.489   8.209  0.1619  0.0957 -0.1559
  539loPI   C4A 8618  13.554  15.452   7.774 -0.0309  0.0091  0.3044
  539loPI   C5A 8619  13.841  15.343   7.366 -0.1949 -0.2966  0.0725
  539loPI   C6A 8620  14.114  15.344   6.956  0.0852 -0.0646 -0.0490
  539loPI   C1B 8621  13.863  15.750   9.207 -0.3015  0.0892  0.1233
  539loPI   C2B 8622  14.095  15.721   8.888  0.0806 -0.0396  0.3890
  539loPI   C3B 8623  14.377  15.717   8.506 -0.0644 -0.0376 -0.1280
  539loPI   C4B 8624  14.448  15.622   8.076 -0.0043  0.1565  0.2474
  540loPI    C1 8625   7.176  15.856  10.067  0.0172 -0.0050  0.0110
  540loPI    C2 8626   7.281  16.130  10.339  0.0819  0.2819 -0.2968
  540loPI    C3 8627   7.528  15.827  10.255 -0.0135  0.0927  0.0841
  540loPI   PO4 8628   7.055  15.994   9.878 -0.0450  0.1601 -0.3384
  540loPI   GL1 8629   6.799  15.967   9.575  0.0393  0.0358 -0.0543
  540loPI   GL2 8630   6.592  16.185   9.676 -0.1683  0.0453  0.0564
  540loPI   C1A 8631   6.906  16.132   9.157  0.3557 -0.1758  0.0526
  540loPI   C2A 8632   6.841  16.134   8.659 -0.3004 -0.0542  0.3394
  540loPI   C3A 8633   6.783  16.342   8.246  0.1494  0.1942 -0.1062
  540loPI   C4A 8634   6.551  16.568   7.988  0.0521  0.1338 -0.1117
  540loPI   C5A 8635   6.373  16.808   7.649  0.0950  0.4974 -0.0187
  540loPI   C6A 8636   6.006  17.143   7.601 -0.1274 -0.2893 -0.3520
  540loPI   C1B 8637   6.407  16.267   9.276 -0.0849 -0.4270 -0.1408
  540loPI   C2B 8638   6.426  16.418   8.950 -0.1415 -0.2851  0.1393
  540loPI   C3B 8639   6.370  16.332   8.459  0.1471 -0.0007  0.3630
  540loPI   C4B 8640   6.083  16.515   8.105 -0.0496  0.2591 -0.1324
  541loPI    C1 8641   6.546   1.575  10.272 -0.1089 -0.0910 -0.1002
  541loPI    C2 8642   6.614   1.660  10.657 -0.0633 -0.3065 -0.0593
  541loPI    C3 8643   6.239   1.645  10.519 -0.0675  0.1544 -0.1154
  541loPI   PO4 8644   6.621   1.691  10.105  0.0378  0.0064 -0.0389
  541loPI   GL1 8645   6.698   1.708   9.723 -0.0097 -0.1470  0.0905
  541loPI   GL2 8646   6.729   2.016   9.523  0.1852 -0.1732  0.2493
  541loPI   C1A 8647   7.017   1.545   9.377  0.1519 -0.0761 -0.0350
  541loPI   C2A 8648   7.206   1.575   9.051  0.2184 -0.0621 -0.0601
  541loPI   C3A 8649   7.058   1.588   8.637  0.0784  0.1510 -0.1919
  541loPI   C4A 8650   7.191   1.594   8.189  0.0109 -0.4087  0.4634
  541loPI   C5A 8651   7.130   1.722   7.830 -0.3144  0.4977  0.0603
  541loPI   C6A 8652   7.148   1.944   7.507 -0.1189  0.1778  0.1348
  541loPI   C1B 8653   6.605   2.383   9.286 -0.0304  0.0625  0.3557
  541loPI   C2B 8654   6.367   2.786   9.077 -0.0027 -0.1817 -0.2893
  541loPI   C3B 8655   6.082   2.997   8.711 -0.0249  0.1878  0.2082
  541loPI   C4B 8656   5.846   2.937   8.370 -0.0498 -0.2077  0.0138
  542loPI    C1 8657   8.680  15.211   9.706 -0.0784 -0.1132 -0.2028
  542loPI    C2 8658   8.593  15.479   9.991  0.1054 -0.2916  0.0247
  542loPI    C3 8659   8.869  15.197  10.058 -0.0120 -0.4766 -0.2494
  542loPI   PO4 8660   8.752  15.392   9.546  0.0386  0.4550 -0.4726
  542loPI   GL1 8661   8.799  15.512   9.216 -0.0963 -0.4223 -0.1938
  542loPI   GL2 8662   8.522  15.591   9.144 -0.0934  0.0117 -0.0370
  542loPI   C1A 8663   8.727  15.393   8.804 -0.1695  0.0139 -0.0911
  542loPI   C2A 8664   8.583  15.254   8.395 -0.2381  0.0850 -0.1116
  542loPI   C3A 8665   8.393  15.170   8.070 -0.1476 -0.0884 -0.0281
  542loPI   C4A 8666   8.062  15.179   7.776  0.3796  0.2907  0.3049
  542loPI   C5A 8667   8.081  15.227   7.366  0.0667 -0.0231 -0.1592
  542loPI   C6A 8668   8.133  15.509   7.043 -0.1197 -0.0279 -0.2439
  542loPI   C1B 8669   8.295  15.707   8.895  0.0089 -0.0730 -0.0108
  542loPI   C2B 8670   8.206  15.537   8.463 -0.2613 -0.0125 -0.1935
  542loPI   C3B 8671   8.178  15.616   8.119 -0.0813 -0.2429 -0.0284
  542loPI   C4B 8672   7.971  15.660   7.740 -0.0892  0.0776  0.1758
  543loPI    C1 8673   0.520   0.096  10.240  0.0943 -0.1406 -0.1882
  543loPI    C2 8674   0.641   0.465  10.338 -0.2005 -0.0238 -0.2524
  543loPI    C3 8675   0.795   0.147  10.525  0.0633  0.1300 -0.2037
  543loPI   PO4 8676   0.488   0.139   9.919 -0.2408  0.0606 -0.2660
  543loPI   GL1 8677   0.472   0.248   9.596  0.2425 -0.3117  0.1139
  543loPI   GL2 8678   0.159   0.436   9.566  0.0142 -0.0026 -0.0335
  543loPI   C1A 8679   0.243   0.001   9.273  0.0924 -0.0923 -0.0857
  543loPI   C2A 8680  -0.228   0.206   9.156 -0.2805 -0.1612  0.0425
  543loPI   C3A 8681  -0.393   0.229   8.665  0.1360 -0.2707 -0.3132
  543loPI   C4A 8682  -0.321   0.254   8.240 -0.1369 -0.0940  0.2793
  543loPI   C5A 8683  -0.106   0.211   7.854  0.1704 -0.0413 -0.1817
  543loPI   C6A 8684   0.198   0.541   7.659  0.0508  0.0169  0.0246
  543loPI   C1B 8685  -0.139   0.674   9.296 -0.0599 -0.2026 -0.0808
  543loPI   C2B 8686  -0.345   0.760   8.931  0.1516 -0.0763  0.1470
  543loPI   C3B 8687  -0.130   0.681   8.566  0.2074  0.1224  0.0738
  543loPI   C4B 8688   0.073   0.549   8.178 -0.2164  0.1100  0.1129
  544loPI    C1 8689  15.776   7.750  10.216  0.0707  0.0514  0.0703
  544loPI    C2 8690  15.478   7.719  10.481 -0.1133 -0.1418 -0.1552
  544loPI    C3 8691  15.667   8.068  10.433 -0.2685 -0.0307  0.0265
  544loPI   PO4 8692  15.722   7.655   9.964  0.3358 -0.2332  0.2211
  544loPI   GL1 8693  15.492   7.710   9.565  0.2140  0.0492 -0.2736
  544loPI   GL2 8694  15.380   7.943   9.484  0.2819 -0.1337 -0.1329
  544loPI   C1A 8695  15.729   7.553   9.235 -0.1833 -0.1260  0.0898
  544loPI   C2A 8696  15.714   7.505   8.810 -0.1915 -0.0093  0.1774
  544loPI   C3A 8697  15.769   7.407   8.441  0.2215 -0.0776 -0.1312
  544loPI   C4A 8698  15.542   7.466   8.075  0.1370 -0.1002  0.0223
  544loPI   C5A 8699  15.378   7.429   7.662 -0.1456 -0.1172 -0.2601
  544loPI   C6A 8700  15.608   7.202   7.362 -0.2904 -0.1030  0.0697
  544loPI   C1B 8701  15.361   8.360   9.230 -0.4891 -0.0455  0.0773
  544loPI   C2B 8702  15.228   8.569   8.910 -0.3823  0.3649 -0.4186
  544loPI   C3B 8703  15.204   8.651   8.505  0.2506 -0.3105  0.0685
  544loPI   C4B 8704  14.912   8.685   8.167  0.2367 -0.1688  0.3671
  545loPI    C1 8705  12.098   4.963  10.035  0.1646  0.1436  0.1032
  545loPI    C2 8706  11.958   5.194  10.330  0.1228  0.0944  0.1221
  545loPI    C3 8707  11.866   4.805  10.321  0.2076  0.0748  0.1002
  545loPI   PO4 8708  12.487   5.066  10.122  0.3623  0.0512  0.0992
  545loPI   GL1 8709  12.758   5.119   9.765 -0.0058  0.0403  0.1202
  545loPI   GL2 8710  12.719   4.806   9.678  0.0425  0.1102  0.3525
  545loPI   C1A 8711  12.658   5.222   9.323 -0.0587 -0.0973  0.1759
  545loPI   C2A 8712  12.698   5.280   8.900  0.0122 -0.2747  0.1033
  545loPI   C3A 8713  12.645   5.131   8.494  0.0583 -0.0468  0.2195
  545loPI   C4A 8714  12.641   5.156   8.009  0.0007 -0.2154  0.1362
  545loPI   C5A 8715  12.846   5.182   7.584  0.0423 -0.3564 -0.1174
  545loPI   C6A 8716  12.950   4.919   7.222  0.3229  0.0225 -0.0549
  545loPI   C1B 8717  12.856   4.478   9.463 -0.1511  0.5033 -0.0294
  545loPI   C2B 8718  12.809   4.238   9.048 -0.4351 -0.1079  0.2025
  545loPI   C3B 8719  12.783   4.251   8.623 -0.1737 -0.3219 -0.0074
  545loPI   C4B 8720  12.777   3.915   8.276 -0.0673  0.3797  0.1144
  546loPI    C1 8721   3.261  12.401   9.794  0.1029  0.1186 -0.0080
  546loPI    C2 8722   2.946  12.647   9.801  0.0983  0.1166 -0.1264
  546loPI    C3 8723   2.928  12.295   9.989  0.0477  0.1380 -0.0909
  546loPI   PO4 8724   3.338  12.351   9.566  0.1339 -0.1877  0.0909
  546loPI   GL1 8725   3.358  12.226   9.115 -0.1851  0.0280  0.1579
  546loPI   GL2 8726   3.652  12.235   9.167 -0.0109  0.0763 -0.0389
  546loPI   C1A 8727   3.208  12.403   8.735 -0.0234  0.0156  0.0981
  546loPI   C2A 8728   3.356  12.339   8.283  0.3877 -0.1960 -0.0728
  546loPI   C3A 8729   3.320  12.070   7.987  0.2811  0.0822 -0.2861
  546loPI   C4A 8730   3.035  11.919   7.698 -0.0050 -0.0404  0.0993
  546loPI   C5A 8731   3.220  11.733   7.355  0.2204  0.3836  0.0674
  546loPI   C6A 8732   3.173  11.792   6.836  0.1606 -0.4920 -0.1037
  546loPI   C1B 8733   3.735  12.074   8.720 -0.0121 -0.1712 -0.0519
  546loPI   C2B 8734   4.085  11.776   8.475  0.0534 -0.1845 -0.1992
  546loPI   C3B 8735   4.432  11.785   8.305  0.1875 -0.0508 -0.4257
  546loPI   C4B 8736   4.866  11.789   8.150  0.0388 -0.1103 -0.0411
  547loPI    C1 8737   6.711  14.093   9.764  0.1347  0.1207 -0.0313
  547loPI    C2 8738   6.683  14.417   9.997  0.2960  0.1210 -0.0105
  547loPI    C3 8739   6.839  14.079  10.143 -0.1958 -0.0768  0.0763
  547loPI   PO4 8740   6.593  13.951   9.549 -0.1073  0.1994 -0.0924
  547loPI   GL1 8741   6.564  14.054   9.178 -0.1148 -0.2458  0.0576
  547loPI   GL2 8742   6.527  13.627   9.150 -0.0945  0.4444 -0.4046
  547loPI   C1A 8743   6.692  14.166   8.791 -0.0752 -0.0908 -0.0188
  547loPI   C2A 8744   6.756  13.979   8.408 -0.1736  0.2689  0.1364
  547loPI   C3A 8745   6.796  13.969   7.995  0.1217  0.2155 -0.0666
  547loPI   C4A 8746   6.824  13.889   7.598  0.2948  0.0601  0.0493
  547loPI   C5A 8747   6.678  13.854   7.212  0.2666 -0.3067 -0.0368
  547loPI   C6A 8748   6.383  13.638   6.917  0.1973 -0.3221 -0.1324
  547loPI   C1B 8749   6.502  13.693   8.735 -0.0257  0.1951  0.0776
  547loPI   C2B 8750   6.579  13.543   8.248  0.1894 -0.1255  0.2032
  547loPI   C3B 8751   6.578  13.499   7.713 -0.0888 -0.1119 -0.0543
  547loPI   C4B 8752   6.564  13.345   7.320 -0.3077  0.0198  0.1152
  548loPI    C1 8753   5.541   0.934  10.297 -0.1048 -0.3363 -0.0792
  548loPI    C2 8754   5.432   0.688  10.594 -0.1360 -0.1953  0.0273
  548loPI    C3 8755   5.818   0.780  10.541 -0.1621  0.0436  0.2349
  548loPI   PO4 8756   5.416   0.846  10.076 -0.0757  0.3702  0.0811
  548loPI   GL1 8757   5.483   0.987   9.638 -0.1496  0.2557 -0.0224
  548loPI   GL2 8758   5.770   0.963   9.449 -0.1380 -0.0902  0.2131
  548loPI   C1A 8759   5.265   0.905   9.258  0.2647 -0.3358 -0.1015
  548loPI   C2A 8760   5.394   1.024   8.835  0.0859  0.1040 -0.1933
  548loPI   C3A 8761   5.405   1.069   8.371  0.2296 -0.1102  0.0463
  548loPI   C4A 8762   5.417   1.048   7.988  0.0120  0.0297  0.3250
  548loPI   C5A 8763   5.376   0.832   7.543  0.1061 -0.0612  0.2566
  548loPI   C6A 8764   5.043   0.498   7.484  0.1956  0.2007  0.3375
  548loPI   C1B 8765   5.887   1.014   9.005  0.1498  0.2324  0.2208
  548loPI   C2B 8766   5.897   1.031   8.626  0.0116  0.2711  0.3750
  548loPI   C3B 8767   5.890   1.037   8.221  0.1866 -0.0203  0.2997
  548loPI   C4B 8768   5.814   1.141   7.723  0.1348 -0.3286 -0.2470
  549loPI    C1 8769  11.900   3.414  10.363 -0.0192 -0.0586  0.0578
  549loPI    C2 8770  11.808   3.330  10.743  0.1545  0.2897  0.1807
  549loPI    C3 8771  12.158   3.210  10.591  0.0399  0.0576  0.0953
  549loPI   PO4 8772  11.616   3.451  10.296 -0.4110 -0.0360 -0.0061
  549loPI   GL1 8773  11.343   3.509   9.927  0.3199  0.0022  0.2920
  549loPI   GL2 8774  11.471   3.805   9.968 -0.1279  0.0578  0.2378
  549loPI   C1A 8775  11.346   3.257   9.599  0.1872  0.0591 -0.0202
  549loPI   C2A 8776  11.237   3.111   9.153  0.1531  0.0993 -0.2595
  549loPI   C3A 8777  11.219   3.093   8.648 -0.0722 -0.0776  0.1498
  549loPI   C4A 8778  11.359   3.137   8.178 -0.1852  0.1324  0.1698
  549loPI   C5A 8779  11.264   3.358   7.834  0.1420  0.2758 -0.1315
  549loPI   C6A 8780  11.066   3.626   7.627  0.1363  0.1332 -0.0232
  549loPI   C1B 8781  11.665   3.819   9.508 -0.2762  0.0425 -0.0349
  549loPI   C2B 8782  11.715   3.809   9.088 -0.1260 -0.1430  0.0701
  549loPI   C3B 8783  11.484   4.091   8.671 -0.2085  0.1342  0.3266
  549loPI   C4B 8784  11.388   4.426   8.346 -0.2444 -0.1137  0.1725
  550loPI    C1 8785   0.714  15.819   9.673 -0.0156 -0.0369  0.0738
  550loPI    C2 8786   0.707  15.422   9.717 -0.1565 -0.0294  0.1215
  550loPI    C3 8787   0.818  15.655  10.022  0.2239 -0.0456  0.0006
  550loPI   PO4 8788   0.874  15.822   9.430 -0.1601 -0.2259 -0.1163
  550loPI   GL1 8789   0.684  15.659   9.039 -0.0357  0.0024  0.1255
  550loPI   GL2 8790   1.015  15.596   9.000 -0.2700 -0.0002  0.1065
  550loPI   C1A 8791   0.652  15.654   8.626 -0.0767  0.0192  0.1037
  550loPI   C2A 8792   0.682  15.689   8.180  0.2509  0.3066 -0.1185
  550loPI   C3A 8793   0.843  15.800   7.818 -0.1520  0.2745 -0.0186
  550loPI   C4A 8794   0.902  15.888   7.382 -0.0827 -0.0197  0.0893
  550loPI   C5A 8795   0.840  15.968   6.992 -0.0192  0.0328  0.0306
  550loPI   C6A 8796   0.817  16.241   6.760  0.1062 -0.0857  0.1621
  550loPI   C1B 8797   1.074  15.942   8.683  0.0395  0.2065 -0.0553
  550loPI   C2B 8798   0.988  16.040   8.326 -0.0934  0.3818  0.2134
  550loPI   C3B 8799   1.235  16.060   8.025  0.2326 -0.0717 -0.2112
  550loPI   C4B 8800   1.399  16.171   7.619 -0.0004  0.1903  0.2945
  551loPI    C1 8801  11.929   2.746   9.910  0.0565  0.1667  0.0855
  551loPI    C2 8802  11.683   3.061   9.894 -0.0074  0.1238  0.2142
  551loPI    C3 8803  11.877   2.975  10.234  0.0281  0.0384  0.1724
  551loPI   PO4 8804  11.752   2.550   9.794 -0.2298 -0.1937 -0.2931
  551loPI   GL1 8805  11.428   2.462   9.449  0.3374  0.0134 -0.3389
  551loPI   GL2 8806  11.549   2.848   9.434  0.0519 -0.0341 -0.0612
  551loPI   C1A 8807  11.164   2.587   8.942 -0.2631  0.0714  0.0478
  551loPI   C2A 8808  11.002   2.551   8.536 -0.2129  0.0002  0.2329
  551loPI   C3A 8809  11.155   2.538   8.173  0.0432  0.1625 -0.0127
  551loPI   C4A 8810  11.088   2.281   7.863  0.1933 -0.1380  0.2541
  551loPI   C5A 8811  11.030   2.065   7.466  0.2193  0.3101  0.0774
  551loPI   C6A 8812  10.700   2.181   7.247  0.0106  0.1481  0.0699
  551loPI   C1B 8813  11.663   2.850   9.078  0.0823  0.0291 -0.0706
  551loPI   C2B 8814  11.635   2.739   8.675 -0.0210  0.1334 -0.1389
  551loPI   C3B 8815  11.728   2.820   8.269  0.2793 -0.2559 -0.1827
  551loPI   C4B 8816  11.781   3.100   7.916 -0.0355 -0.2369  0.0551
  552loPI    C1 8817  13.725   0.904   9.998 -0.3583  0.0512  0.0216
  552loPI    C2 8818  13.788   0.509   9.997  0.1746  0.1278 -0.0346
  552loPI    C3 8819  13.801   0.712  10.341  0.2592  0.1476 -0.0493
  552loPI   PO4 8820  13.474   0.899   9.800 -0.3548 -0.1218  0.4439
  552loPI   GL1 8821  13.431   0.836   9.345  0.0084 -0.0970 -0.4844
  552loPI   GL2 8822  13.657   0.503   9.412  0.2704 -0.2064  0.3023
  552loPI   C1A 8823  13.373   0.904   9.003 -0.1294  0.2715 -0.0951
  552loPI   C2A 8824  13.502   0.916   8.534 -0.0123 -0.1809 -0.1107
  552loPI   C3A 8825  13.679   1.030   8.133 -0.1901  0.3084 -0.1320
  552loPI   C4A 8826  13.713   0.751   7.782 -0.0275  0.1540  0.1814
  552loPI   C5A 8827  13.921   0.562   7.436  0.1035  0.0967 -0.3278
  552loPI   C6A 8828  14.265   0.688   7.110 -0.1622  0.0494 -0.1515
  552loPI   C1B 8829  13.903   0.689   9.131  0.0712  0.2492  0.0536
  552loPI   C2B 8830  14.269   0.589   8.918 -0.0221 -0.0586  0.2096
  552loPI   C3B 8831  14.397   0.685   8.548  0.1071 -0.0197  0.0493
  552loPI   C4B 8832  14.299   0.834   8.104  0.1601 -0.0071 -0.1475
  553loPI    C1 8833   2.598   3.021  10.243  0.1361  0.1570 -0.2991
  553loPI    C2 8834   2.281   3.232  10.366  0.0793 -0.0840 -0.0216
  553loPI    C3 8835   2.637   3.410  10.325  0.0048  0.0928  0.0888
  553loPI   PO4 8836   2.493   2.874  10.091 -0.4067  0.0286  0.0805
  553loPI   GL1 8837   2.468   2.676   9.711 -0.1763 -0.1331  0.2574
  553loPI   GL2 8838   2.284   2.804   9.586 -0.1277 -0.0037  0.2297
  553loPI   C1A 8839   2.568   2.359   9.323  0.0210  0.2759  0.0408
  553loPI   C2A 8840   2.629   2.398   8.896  0.0761  0.1516  0.1099
  553loPI   C3A 8841   2.511   2.301   8.546 -0.0315 -0.1703 -0.1330
  553loPI   C4A 8842   2.423   2.295   8.075 -0.1551 -0.2507  0.1938
  553loPI   C5A 8843   2.618   2.306   7.579 -0.0229 -0.2847 -0.2524
  553loPI   C6A 8844   2.829   2.435   7.146 -0.0532 -0.2259  0.0222
  553loPI   C1B 8845   2.282   2.802   9.176 -0.1410 -0.1164 -0.1459
  553loPI   C2B 8846   2.301   2.747   8.767  0.2415 -0.1311 -0.2974
  553loPI   C3B 8847   2.242   2.728   8.293  0.0559 -0.0200  0.4323
  553loPI   C4B 8848   2.205   2.749   7.840  0.1336 -0.1649 -0.0400
  554loPI    C1 8849  11.387  10.622   9.715 -0.1563  0.4920  0.0375
  554loPI    C2 8850  11.032  10.437   9.729  0.0834  0.0109 -0.0312
  554loPI    C3 8851  11.167  10.636  10.049 -0.1511  0.0139  0.0672
  554loPI   PO4 8852  11.448  10.522   9.431  0.1581 -0.0205 -0.2264
  554loPI   GL1 8853  11.528  10.622   8.995  0.2001  0.0753  0.1279
  554loPI   GL2 8854  11.316  10.837   9.065 -0.0689 -0.0168 -0.1938
  554loPI   C1A 8855  11.720  10.471   8.601  0.0695 -0.0824  0.0180
  554loPI   C2A 8856  11.860  10.292   8.270  0.0503 -0.0387  0.2207
  554loPI   C3A 8857  11.861  10.165   7.824  0.2352  0.0377  0.0682
  554loPI   C4A 8858  11.735   9.911   7.545  0.2740  0.2101  0.1174
  554loPI   C5A 8859  11.501   9.577   7.278  0.1622 -0.1017  0.0974
  554loPI   C6A 8860  11.352   9.576   6.794  0.0481 -0.0866 -0.3685
  554loPI   C1B 8861  11.275  10.797   8.581  0.1406  0.4933 -0.1145
  554loPI   C2B 8862  11.338  10.399   8.258 -0.2269  0.0943  0.0014
  554loPI   C3B 8863  11.419  10.026   8.052  0.1216 -0.0576  0.4941
  554loPI   C4B 8864  11.715   9.692   8.061 -0.1923 -0.0045  0.0718
  555loPI    C1 8865   8.434  12.847   9.942 -0.0765 -0.0477  0.0653
  555loPI    C2 8866   8.789  13.032   9.942 -0.0867 -0.0282  0.1354
  555loPI    C3 8867   8.457  13.235  10.037 -0.1441  0.0056 -0.1312
  555loPI   PO4 8868   8.386  12.772   9.654 -0.2910 -0.1532 -0.0967
  555loPI   GL1 8869   8.376  12.408   9.472 -0.1039 -0.0339 -0.3825
  555loPI   GL2 8870   8.379  12.199   9.334  0.0255  0.2244 -0.0560
  555loPI   C1A 8871   8.637  12.531   9.093  0.0683 -0.0203  0.0109
  555loPI   C2A 8872   8.569  12.540   8.612 -0.0698  0.1624  0.2018
  555loPI   C3A 8873   8.519  12.468   8.302 -0.2689  0.0204 -0.0592
  555loPI   C4A 8874   8.447  12.431   7.859  0.1694 -0.1388 -0.1932
  555loPI   C5A 8875   8.319  12.503   7.425 -0.2072 -0.1772  0.1031
  555loPI   C6A 8876   7.931  12.546   7.201 -0.2775  0.0106 -0.1896
  555loPI   C1B 8877   8.206  12.293   8.972  0.3604 -0.1823 -0.1210
  555loPI   C2B 8878   8.292  12.120   8.606 -0.1289 -0.4898 -0.0450
  555loPI   C3B 8879   8.237  11.771   8.431  0.1989 -0.2343 -0.3935
  555loPI   C4B 8880   7.945  11.486   8.251  0.0711  0.0917  0.1125
  556loPI    C1 8881   4.465   5.430  10.176 -0.2412  0.0317 -0.0505
  556loPI    C2 8882   4.538   5.046  10.260 -0.2723  0.0241 -0.0581
  556loPI    C3 8883   4.467   5.305  10.556  0.0404  0.0847 -0.0323
  556loPI   PO4 8884   4.657   5.451   9.881  0.0232  0.3176  0.0639
  556loPI   GL1 8885   4.707   5.310   9.510  0.3323  0.0822 -0.1628
  556loPI   GL2 8886   4.841   5.641   9.460  0.3041  0.2014 -0.3168
  556loPI   C1A 8887   4.586   5.127   9.181  0.0012  0.3977  0.1537
  556loPI   C2A 8888   4.705   5.067   8.754 -0.2261 -0.0386  0.1884
  556loPI   C3A 8889   4.844   5.116   8.315  0.3897  0.0510 -0.0957
  556loPI   C4A 8890   4.937   5.268   7.946  0.1187  0.1149  0.2019
  556loPI   C5A 8891   4.711   5.205   7.699  0.0827  0.0814 -0.1119
  556loPI   C6A 8892   4.660   4.972   7.424 -0.1721 -0.1052  0.2136
  556loPI   C1B 8893   4.946   5.521   9.099  0.1022  0.1837  0.1604
  556loPI   C2B 8894   5.104   5.529   8.749 -0.0256 -0.4683 -0.1322
  556loPI   C3B 8895   5.282   5.690   8.359 -0.2257  0.1082 -0.1501
  556loPI   C4B 8896   5.481   5.678   7.936 -0.0870 -0.1434  0.2208
  557loPI    C1 8897  12.853  15.425   9.936  0.2004  0.2670 -0.0093
  557loPI    C2 8898  12.716  15.311  10.294 -0.0231  0.0866 -0.1492
  557loPI    C3 8899  13.067  15.501  10.265  0.0707 -0.0357  0.1486
  557loPI   PO4 8900  12.742  15.599   9.759  0.1139  0.1061 -0.0061
  557loPI   GL1 8901  12.923  15.732   9.445 -0.2659 -0.2670  0.1665
  557loPI   GL2 8902  12.915  16.135   9.398  0.2802  0.1183 -0.1021
  557loPI   C1A 8903  12.868  15.761   9.016 -0.1516 -0.1112  0.5324
  557loPI   C2A 8904  12.850  15.892   8.606  0.2065 -0.2351 -0.2068
  557loPI   C3A 8905  13.147  15.871   8.243  0.0192  0.5062  0.2840
  557loPI   C4A 8906  13.498  15.967   7.997  0.1336 -0.0544  0.1695
  557loPI   C5A 8907  13.830  15.904   7.595  0.1084 -0.0588  0.1629
  557loPI   C6A 8908  14.051  15.801   7.273  0.1959  0.1995  0.3639
  557loPI   C1B 8909  13.063  16.209   8.985  0.2429 -0.1874  0.1590
  557loPI   C2B 8910  13.325  16.200   8.665  0.1467 -0.3401  0.2464
  557loPI   C3B 8911  13.618  16.074   8.478 -0.1652  0.3151 -0.2313
  557loPI   C4B 8912  13.909  15.736   8.447  0.0570 -0.2397  0.4922
  558loPI    C1 8913  14.334   6.452  10.066  0.0991  0.2570  0.0491
  558loPI    C2 8914  14.441   6.644  10.400  0.1687  0.1570  0.0849
  558loPI    C3 8915  14.194   6.331  10.420  0.1098  0.1999  0.0339
  558loPI   PO4 8916  14.505   6.359   9.923  0.2380  0.0399 -0.0261
  558loPI   GL1 8917  14.486   6.268   9.476  0.0419 -0.0496 -0.1495
  558loPI   GL2 8918  14.187   6.400   9.539  0.2453 -0.0913  0.0826
  558loPI   C1A 8919  14.155   6.047   9.169 -0.1331 -0.0393 -0.2665
  558loPI   C2A 8920  13.813   5.865   8.943  0.1841  0.0711  0.1142
  558loPI   C3A 8921  13.589   5.856   8.554 -0.0468 -0.2174 -0.0899
  558loPI   C4A 8922  13.280   5.713   8.302  0.3315 -0.0439 -0.1010
  558loPI   C5A 8923  12.759   5.592   8.366  0.0702  0.3136  0.2358
  558loPI   C6A 8924  12.585   5.801   8.576  0.1887  0.0788 -0.1067
  558loPI   C1B 8925  14.034   6.657   9.247 -0.0369 -0.0201 -0.1733
  558loPI   C2B 8926  14.077   6.656   8.774  0.2958 -0.0244 -0.2207
  558loPI   C3B 8927  14.030   6.946   8.419 -0.0902 -0.0197 -0.1886
  558loPI   C4B 8928  13.911   7.068   7.930  0.0962  0.0348 -0.0629
  559loPI    C1 8929  11.950  12.753  10.153 -0.0364 -0.3253 -0.1535
  559loPI    C2 8930  11.656  13.016  10.221  0.1320 -0.1392 -0.1381
  559loPI    C3 8931  11.789  12.783  10.518  0.0417 -0.1814 -0.1305
  559loPI   PO4 8932  11.958  12.811   9.853  0.0988 -0.1089  0.2737
  559loPI   GL1 8933  12.060  13.064   9.473  0.0708 -0.0239  0.2715
  559loPI   GL2 8934  12.350  13.106   9.591  0.0553 -0.1674 -0.0731
  559loPI   C1A 8935  11.639  13.391   9.267 -0.0079  0.0293  0.1469
  559loPI   C2A 8936  11.761  13.534   8.875  0.2823 -0.2187  0.1940
  559loPI   C3A 8937  11.649  13.693   8.487  0.1156  0.3236  0.2359
  559loPI   C4A 8938  11.571  13.457   8.118 -0.1976  0.2712  0.1426
  559loPI   C5A 8939  11.353  13.627   7.695 -0.0158 -0.0396 -0.2580
  559loPI   C6A 8940  11.357  13.695   7.191  0.4060  0.1206  0.1713
  559loPI   C1B 8941  12.527  13.090   9.122 -0.0298  0.0364  0.0126
  559loPI   C2B 8942  12.751  13.092   8.713  0.2245  0.0767 -0.1999
  559loPI   C3B 8943  12.751  12.995   8.336  0.0569 -0.0791 -0.0638
  559loPI   C4B 8944  12.487  12.944   7.947  0.3873  0.0648  0.3075
  560loPI    C1 8945   6.939  -0.116  10.520 -0.1017  0.1267  0.2994
  560loPI    C2 8946   6.844   0.269  10.574  0.2438  0.2812 -0.1354
  560loPI    C3 8947   7.210   0.139  10.667  0.1600  0.0769 -0.0850
  560loPI   PO4 8948   6.836  -0.148  10.283  0.1480 -0.2211  0.0114
  560loPI   GL1 8949   6.717  -0.106   9.921  0.0364 -0.3543  0.0333
  560loPI   GL2 8950   6.791  -0.382   9.711 -0.1673 -0.1529  0.1211
  560loPI   C1A 8951   6.484   0.135   9.528  0.1197  0.2638 -0.1408
  560loPI   C2A 8952   6.416   0.147   9.099 -0.1279 -0.0670 -0.0607
  560loPI   C3A 8953   6.479   0.214   8.696  0.0748 -0.0799  0.2337
  560loPI   C4A 8954   6.463   0.209   8.270 -0.0543  0.0145  0.0717
  560loPI   C5A 8955   6.566   0.200   7.893  0.1663 -0.1757  0.0617
  560loPI   C6A 8956   6.517   0.043   7.511  0.2159  0.3068  0.0139
  560loPI   C1B 8957   6.722  -0.271   9.333  0.1976 -0.3184  0.1683
  560loPI   C2B 8958   6.641  -0.214   8.880  0.4422  0.0978  0.1882
  560loPI   C3B 8959   6.676  -0.187   8.442 -0.1401  0.0304  0.2080
  560loPI   C4B 8960   6.759  -0.322   8.031 -0.0768  0.1261 -0.1470
  561loPI    C1 8961  10.093  14.487   9.771  0.0476  0.1017  0.0472
  561loPI    C2 8962  10.115  14.448  10.168  0.3814 -0.0426  0.0177
  561loPI    C3 8963   9.989  14.142   9.943 -0.2540  0.1861  0.0409
  561loPI   PO4 8964  10.361  14.522   9.714  0.1473  0.5248  0.0026
  561loPI   GL1 8965  10.548  14.719   9.375 -0.2735  0.0100 -0.2598
  561loPI   GL2 8966  10.770  14.496   9.428 -0.3350  0.3005 -0.0209
  561loPI   C1A 8967  10.286  14.676   9.024  0.2437 -0.1402 -0.0540
  561loPI   C2A 8968  10.289  14.820   8.691 -0.1124  0.0144  0.2679
  561loPI   C3A 8969  10.048  14.788   8.233 -0.1438  0.5964  0.0521
  561loPI   C4A 8970   9.731  14.690   7.877 -0.4847  0.0141 -0.0904
  561loPI   C5A 8971   9.476  14.570   7.503 -0.0108  0.3009 -0.2495
  561loPI   C6A 8972   9.215  14.395   7.262 -0.2206 -0.0485  0.0527
  561loPI   C1B 8973  10.884  14.624   8.984  0.0687 -0.1911  0.1716
  561loPI   C2B 8974  10.722  14.551   8.631  0.1245  0.0852 -0.1988
  561loPI   C3B 8975  10.493  14.602   8.252  0.1570 -0.1988  0.1177
  561loPI   C4B 8976  10.258  14.706   7.819 -0.2731 -0.2374  0.3532
  562loPI    C1 8977  10.055  11.714   9.835 -0.1052 -0.0771  0.0597
  562loPI    C2 8978   9.945  11.619  10.208 -0.0815 -0.2352  0.0271
  562loPI    C3 8979  10.328  11.699  10.127 -0.1302  0.0780  0.0920
  562loPI   PO4 8980   9.951  11.498   9.717 -0.1077 -0.0357  0.1638
  562loPI   GL1 8981   9.752  11.487   9.318  0.1860 -0.0291  0.2602
  562loPI   GL2 8982   9.908  11.213   9.265 -0.2436  0.2393  0.0647
  562loPI   C1A 8983   9.664  11.518   8.812  0.1203 -0.2283  0.1711
  562loPI   C2A 8984   9.660  11.629   8.357  0.0595 -0.0051 -0.0466
  562loPI   C3A 8985   9.653  11.649   7.896 -0.0014 -0.0727  0.1373
  562loPI   C4A 8986   9.629  11.567   7.430 -0.0451  0.0693 -0.0400
  562loPI   C5A 8987   9.946  11.263   7.145 -0.1948  0.2610 -0.0151
  562loPI   C6A 8988  10.102  11.287   6.697  0.1536 -0.2887  0.2388
  562loPI   C1B 8989   9.961  10.798   8.937 -0.2682  0.0826 -0.0437
  562loPI   C2B 8990   9.999  10.892   8.515  0.3081  0.1426 -0.7007
  562loPI   C3B 8991  10.354  10.943   8.188 -0.1312 -0.1767 -0.3861
  562loPI   C4B 8992  10.702  11.167   7.999 -0.0707 -0.2538 -0.0047
  563loPI    C1 8993   9.753   6.987   9.946  0.2020  0.0642  0.0172
  563loPI    C2 8994   9.995   6.958   9.629  0.2633 -0.1515  0.0818
  563loPI    C3 8995  10.148   7.028   9.991  0.1796  0.2672  0.0422
  563loPI   PO4 8996   9.518   6.774   9.838  0.0757 -0.0250  0.4160
  563loPI   GL1 8997   9.523   6.563   9.444 -0.1655 -0.2323 -0.3259
  563loPI   GL2 8998   9.245   6.676   9.334  0.2463  0.2149  0.0745
  563loPI   C1A 8999   9.982   6.586   9.237  0.2299 -0.0145  0.0190
  563loPI   C2A 9000  10.126   6.910   8.881  0.1509 -0.0366 -0.0793
  563loPI   C3A 9001  10.390   6.966   8.573  0.0036 -0.0221  0.3755
  563loPI   C4A 9002  10.426   6.978   8.112 -0.0193  0.1079  0.0930
  563loPI   C5A 9003  10.365   6.968   7.663  0.2350 -0.0150 -0.0838
  563loPI   C6A 9004  10.377   6.654   7.284  0.1371  0.0726  0.0638
  563loPI   C1B 9005   9.266   6.506   8.901 -0.0721  0.3582 -0.0381
  563loPI   C2B 9006   9.437   6.425   8.483  0.1425 -0.2008 -0.4887
  563loPI   C3B 9007   9.733   6.389   8.117  0.0278  0.4540 -0.0224
  563loPI   C4B 9008   9.920   6.863   7.955  0.0101 -0.3847 -0.0648
  564loPI    C1 9009  17.235   7.500   9.952  0.1872  0.2610 -0.1535
  564loPI    C2 9010  17.455   7.814  10.064  0.0375  0.2363  0.2269
  564loPI    C3 9011  17.377   7.522  10.325 -0.1028  0.0436 -0.0259
  564loPI   PO4 9012  17.405   7.436   9.671  0.0467 -0.2829 -0.1048
  564loPI   GL1 9013  17.217   7.477   9.308 -0.2962 -0.1615 -0.1273
  564loPI   GL2 9014  16.992   7.545   9.335 -0.0960  0.1050 -0.2695
  564loPI   C1A 9015  17.397   7.652   8.885 -0.0705 -0.0420  0.2847
  564loPI   C2A 9016  17.800   7.470   8.664  0.1590 -0.2701  0.4290
  564loPI   C3A 9017  18.031   7.662   8.249 -0.1836 -0.0458 -0.1429
  564loPI   C4A 9018  18.167   7.694   7.770  0.0795  0.0304 -0.4434
  564loPI   C5A 9019  18.079   7.459   7.476  0.0046  0.1977  0.2817
  564loPI   C6A 9020  17.780   7.168   7.207 -0.1170  0.1472 -0.3682
  564loPI   C1B 9021  16.913   7.542   8.852  0.0993 -0.1302  0.0693
  564loPI   C2B 9022  16.905   7.559   8.500 -0.0394  0.1936 -0.3097
  564loPI   C3B 9023  16.712   7.525   8.162  0.0475 -0.3275  0.0473
  564loPI   C4B 9024  16.824   7.663   7.655  0.0500  0.0928  0.0607
  565loPI    C1 9025  14.379   2.720  10.116  0.0313 -0.1397 -0.0690
  565loPI    C2 9026  14.067   2.879  10.308  0.1117  0.0490 -0.0916
  565loPI    C3 9027  14.234   2.541  10.442 -0.0102  0.0259  0.0045
  565loPI   PO4 9028  14.323   2.711   9.852 -0.0737  0.1407  0.0450
  565loPI   GL1 9029  14.087   2.380   9.545 -0.0042  0.0598  0.1181
  565loPI   GL2 9030  13.711   2.512   9.499 -0.1168  0.3374  0.2832
  565loPI   C1A 9031  14.067   2.370   9.083 -0.2271  0.2592 -0.1177
  565loPI   C2A 9032  14.010   2.087   8.707  0.0256 -0.0557  0.0008
  565loPI   C3A 9033  14.213   1.910   8.287  0.0595 -0.1752 -0.2938
  565loPI   C4A 9034  14.320   1.610   7.976  0.0854  0.0016 -0.1258
  565loPI   C5A 9035  14.385   1.456   7.472  0.0619 -0.0547  0.1332
  565loPI   C6A 9036  14.083   1.185   7.240  0.0278 -0.2544  0.0344
  565loPI   C1B 9037  13.975   2.776   9.241  0.0931 -0.1461  0.1212
  565loPI   C2B 9038  14.210   3.057   8.979  0.0425  0.0245  0.2458
  565loPI   C3B 9039  14.425   3.244   8.697  0.2785  0.1228 -0.1927
  565loPI   C4B 9040  14.755   3.446   8.900 -0.0961 -0.0659 -0.2165
  566loPI    C1 9041  17.317   1.392   9.981 -0.1020 -0.1665 -0.0345
  566loPI    C2 9042  17.249   1.048  10.174  0.2842 -0.1094  0.2146
  566loPI    C3 9043  17.349   1.377  10.379 -0.1202  0.1679 -0.0178
  566loPI   PO4 9044  17.354   1.409   9.736 -0.0770  0.0559  0.0910
  566loPI   GL1 9045  17.161   1.248   9.363  0.2221  0.0432 -0.0228
  566loPI   GL2 9046  16.925   1.380   9.276  0.2779  0.1241 -0.0897
  566loPI   C1A 9047  17.342   1.369   8.985 -0.0928  0.2557 -0.0911
  566loPI   C2A 9048  17.566   1.165   8.751 -0.3662 -0.1513  0.2306
  566loPI   C3A 9049  17.803   0.954   8.450 -0.2679  0.1245 -0.3546
  566loPI   C4A 9050  18.061   0.970   8.180 -0.2220 -0.0919 -0.4315
  566loPI   C5A 9051  18.000   0.839   7.819  0.0469  0.4987 -0.1346
  566loPI   C6A 9052  17.918   0.630   7.400  0.1224  0.2431 -0.3298
  566loPI   C1B 9053  16.827   1.499   8.846 -0.0900  0.3290  0.2033
  566loPI   C2B 9054  16.751   1.433   8.395  0.3768 -0.1510 -0.1108
  566loPI   C3B 9055  16.724   1.273   7.963  0.0399 -0.1991  0.1834
  566loPI   C4B 9056  16.386   1.153   7.839 -0.1764  0.1516  0.0123
  567loPI    C1 9057  10.099  15.901   9.856  0.0577  0.0420  0.0751
  567loPI    C2 9058  10.458  16.068   9.913  0.0579  0.0839 -0.0470
  567loPI    C3 9059  10.139  16.209  10.108  0.0885  0.1176 -0.0215
  567loPI   PO4 9060  10.101  15.899   9.560 -0.2243 -0.4882 -0.1847
  567loPI   GL1 9061  10.125  16.058   9.179 -0.2712 -0.0986 -0.1738
  567loPI   GL2 9062   9.915  16.283   9.137 -0.1717 -0.0528 -0.1357
  567loPI   C1A 9063  10.035  15.973   8.755 -0.1105 -0.0088 -0.0502
  567loPI   C2A 9064  10.078  15.918   8.322 -0.0570  0.0518  0.0775
  567loPI   C3A 9065   9.986  16.123   7.927 -0.0583  0.1398  0.2232
  567loPI   C4A 9066   9.768  16.325   7.722 -0.0928 -0.0798  0.4629
  567loPI   C5A 9067   9.773  16.527   7.261  0.1717 -0.0211 -0.2474
  567loPI   C6A 9068   9.648  17.003   7.159  0.1066  0.1648  0.0020
  567loPI   C1B 9069   9.810  16.423   8.719 -0.4993  0.2765 -0.1777
  567loPI   C2B 9070   9.868  16.477   8.292  0.0950 -0.0522 -0.1449
  567loPI   C3B 9071   9.809  16.759   7.996 -0.2093 -0.2098 -0.0769
  567loPI   C4B 9072   9.598  17.010   7.723 -0.0960  0.1423  0.0641
  568loPI    C1 9073  18.680  11.089   9.624  0.0426 -0.0189  0.1781
  568loPI    C2 9074  18.493  11.419   9.497  0.0188 -0.1504 -0.1378
  568loPI    C3 9075  18.788  11.448   9.766  0.1009  0.1409 -0.2548
  568loPI   PO4 9076  18.622  10.964   9.300  0.2300  0.0731 -0.0373
  568loPI   GL1 9077  18.842  10.852   8.908 -0.2867 -0.1918  0.1449
  568loPI   GL2 9078  18.472  10.887   8.777  0.0514  0.1971  0.0300
  568loPI   C1A 9079  19.129  10.917   8.637 -0.1858  0.0928  0.2315
  568loPI   C2A 9080  19.450  10.846   8.266 -0.1149 -0.3496  0.0646
  568loPI   C3A 9081  19.695  10.966   7.911  0.0354  0.1452  0.0444
  568loPI   C4A 9082  19.519  11.102   7.500 -0.1157 -0.1200  0.1146
  568loPI   C5A 9083  19.349  11.362   7.169 -0.0022  0.0086 -0.0661
  568loPI   C6A 9084  19.199  11.513   6.713  0.0933 -0.3740  0.1784
  568loPI   C1B 9085  18.570  10.887   8.321  0.0468 -0.1822 -0.3567
  568loPI   C2B 9086  18.660  11.003   7.907 -0.1939  0.2084 -0.1806
  568loPI   C3B 9087  18.751  11.354   7.682 -0.0277  0.0270  0.0689
  568loPI   C4B 9088  19.034  11.620   7.466 -0.4401  0.3544  0.0225
  569loPI    C1 9089   1.750  12.757   9.528  0.0164  0.0641  0.0729
  569loPI    C2 9090   1.534  12.966   9.793 -0.0414 -0.0218  0.0939
  569loPI    C3 9091   1.447  12.582   9.722  0.0847 -0.0481  0.0788
  569loPI   PO4 9092   1.721  12.781   9.241 -0.2118 -0.0922 -0.0790
  569loPI   GL1 9093   1.685  12.634   8.884  0.1737 -0.1113  0.1218
  569loPI   GL2 9094   1.389  12.707   8.719 -0.0616  0.3036  0.2436
  569loPI   C1A 9095   1.806  13.009   8.549  0.0577  0.1845 -0.1152
  569loPI   C2A 9096   1.497  13.084   8.270  0.0166 -0.0903  0.3136
  569loPI   C3A 9097   1.340  13.348   7.934 -0.0514  0.0099 -0.2662
  569loPI   C4A 9098   1.204  13.503   7.486  0.0549  0.0479  0.0067
  569loPI   C5A 9099   0.853  13.435   7.218 -0.0179  0.0517  0.0279
  569loPI   C6A 9100   0.543  13.564   7.011 -0.2372  0.1760 -0.0875
  569loPI   C1B 9101   1.386  12.569   8.316 -0.0653  0.2203  0.3165
  569loPI   C2B 9102   1.581  12.619   8.003  0.2168  0.2627  0.1232
  569loPI   C3B 9103   1.879  12.662   7.639 -0.1209 -0.2533  0.2356
  569loPI   C4B 9104   2.227  12.751   7.577 -0.2902 -0.0508  0.0529
  570loPI    C1 9105  10.381  18.000   9.516 -0.1898 -0.0974 -0.2111
  570loPI    C2 9106  10.234  18.346   9.653 -0.2730 -0.1726 -0.1098
  570loPI    C3 9107  10.158  18.004   9.847  0.0299 -0.2139 -0.0588
  570loPI   PO4 9108  10.601  18.031   9.433 -0.0620 -0.0730  0.0201
  570loPI   GL1 9109  11.044  17.817   9.371  0.0302 -0.0068 -0.1377
  570loPI   GL2 9110  11.228  17.512   9.242  0.0406 -0.0681  0.0297
  570loPI   C1A 9111  10.832  17.814   8.888  0.0326  0.0392 -0.1996
  570loPI   C2A 9112  10.830  17.790   8.426  0.1617  0.1212  0.1692
  570loPI   C3A 9113  10.587  17.845   8.101 -0.1623  0.1367  0.1524
  570loPI   C4A 9114  10.367  17.826   7.709 -0.0609  0.3704  0.1267
  570loPI   C5A 9115  10.499  17.816   7.283  0.0606 -0.1166 -0.3700
  570loPI   C6A 9116  10.525  18.069   6.956 -0.3423  0.1338  0.1928
  570loPI   C1B 9117  11.365  17.589   8.805  0.0793 -0.1595  0.1859
  570loPI   C2B 9118  11.358  17.669   8.364  0.3476 -0.1504 -0.0938
  570loPI   C3B 9119  11.109  17.711   7.992 -0.0327  0.3524  0.2327
  570loPI   C4B 9120  10.891  17.749   7.639 -0.0549  0.0569 -0.0641
  571loPI    C1 9121   3.152   3.514  10.492  0.1563 -0.0623 -0.0147
  571loPI    C2 9122   3.295   3.360  10.832  0.0856  0.0304  0.0576
  571loPI    C3 9123   2.904   3.433  10.795  0.0859 -0.0261 -0.0622
  571loPI   PO4 9124   3.359   3.425  10.354 -0.0979  0.1631 -0.0194
  571loPI   GL1 9125   3.580   3.502   9.977  0.3190  0.0318 -0.0458
  571loPI   GL2 9126   3.297   3.344   9.821 -0.0089  0.2456  0.1982
  571loPI   C1A 9127   3.596   3.321   9.446 -0.1370  0.1284  0.0434
  571loPI   C2A 9128   3.645   3.321   9.019  0.4131 -0.0869 -0.0997
  571loPI   C3A 9129   3.600   3.304   8.566 -0.1421  0.2437 -0.1330
  571loPI   C4A 9130   3.482   3.199   8.159  0.1044  0.0832  0.1234
  571loPI   C5A 9131   3.573   3.204   7.651 -0.1752 -0.0183 -0.1797
  571loPI   C6A 9132   3.489   3.003   7.270 -0.2233 -0.1740 -0.0570
  571loPI   C1B 9133   3.071   3.361   9.414  0.1128 -0.1486 -0.2201
  571loPI   C2B 9134   3.074   3.287   8.980  0.2272 -0.0915 -0.1650
  571loPI   C3B 9135   2.970   3.169   8.591  0.2772 -0.2391 -0.1217
  571loPI   C4B 9136   3.013   3.394   8.169 -0.0765 -0.0362 -0.0186
  572loPI    C1 9137  16.636   5.972   9.759 -0.0465  0.0665  0.1848
  572loPI    C2 9138  16.936   5.735   9.641 -0.2068 -0.0684  0.0439
  572loPI    C3 9139  16.613   5.577   9.817 -0.2428  0.0639  0.0978
  572loPI   PO4 9140  16.777   6.255   9.653 -0.3267  0.2906 -0.3295
  572loPI   GL1 9141  16.833   6.197   9.263  0.0670 -0.1415 -0.2252
  572loPI   GL2 9142  16.696   6.039   9.235  0.4194 -0.0926  0.0243
  572loPI   C1A 9143  17.022   6.301   8.885 -0.1324  0.0128 -0.3101
  572loPI   C2A 9144  16.930   6.474   8.477  0.0601  0.2829  0.0124
  572loPI   C3A 9145  16.698   6.497   7.992 -0.4192  0.2538 -0.1957
  572loPI   C4A 9146  16.523   6.238   7.749 -0.0997 -0.3158  0.4342
  572loPI   C5A 9147  16.217   6.122   7.482  0.2228 -0.2057 -0.1006
  572loPI   C6A 9148  15.965   5.826   7.238 -0.3494 -0.1149  0.2406
  572loPI   C1B 9149  16.604   6.087   8.760  0.3425  0.0573  0.0506
  572loPI   C2B 9150  16.428   6.088   8.277 -0.2186 -0.0495  0.0170
  572loPI   C3B 9151  16.054   6.114   8.101  0.1170  0.1328  0.2412
  572loPI   C4B 9152  15.851   6.238   7.777  0.0281  0.2116  0.0590
  573loPI    C1 9153   5.594  10.072   9.862  0.0164 -0.0455  0.1123
  573loPI    C2 9154   5.296  10.302   9.998  0.0308 -0.0370  0.1295
  573loPI    C3 9155   5.624  10.245  10.221 -0.0373 -0.1967  0.1903
  573loPI   PO4 9156   5.397   9.928   9.636 -0.2076  0.3321 -0.2025
  573loPI   GL1 9157   5.343   9.813   9.305 -0.0306 -0.0761  0.0360
  573loPI   GL2 9158   5.555   9.537   9.257  0.3429 -0.3637  0.0936
  573loPI   C1A 9159   5.326   9.736   8.826  0.0745 -0.4563  0.0998
  573loPI   C2A 9160   5.142   9.391   8.546 -0.3757  0.1632  0.0775
  573loPI   C3A 9161   5.137   9.270   8.127  0.2068  0.2321 -0.0602
  573loPI   C4A 9162   4.939   9.143   7.860  0.0210  0.1193  0.5713
  573loPI   C5A 9163   5.008   9.022   7.481  0.1442 -0.2437  0.3057
  573loPI   C6A 9164   4.898   9.116   7.041  0.0533 -0.0553  0.2937
  573loPI   C1B 9165   5.806   9.724   8.997  0.2770  0.0197  0.0964
  573loPI   C2B 9166   5.893   9.777   8.659  0.0056 -0.0975  0.0036
  573loPI   C3B 9167   6.000   9.845   8.217  0.0796 -0.1372 -0.1016
  573loPI   C4B 9168   6.065   9.919   7.797  0.1776 -0.3691  0.1382
  574loPI    C1 9169  14.848   6.871  10.207  0.0818 -0.2183 -0.0314
  574loPI    C2 9170  15.198   7.039  10.109 -0.1002  0.0209 -0.2884
  574loPI    C3 9171  14.965   7.209  10.387 -0.0579 -0.0841 -0.1882
  574loPI   PO4 9172  14.896   6.639  10.148 -0.1113  0.2480  0.4088
  574loPI   GL1 9173  14.994   6.620   9.761  0.0776 -0.0302  0.4507
  574loPI   GL2 9174  15.223   6.815   9.656 -0.3809  0.3684 -0.0863
  574loPI   C1A 9175  14.952   6.328   9.318 -0.0389 -0.0330  0.0001
  574loPI   C2A 9176  14.775   6.075   8.954  0.1906 -0.2839  0.0823
  574loPI   C3A 9177  14.590   6.111   8.422 -0.2989 -0.2650  0.2274
  574loPI   C4A 9178  14.553   6.149   7.974 -0.1206  0.3297 -0.1899
  574loPI   C5A 9179  14.521   6.031   7.543 -0.2841  0.3256 -0.0046
  574loPI   C6A 9180  14.313   5.714   7.214 -0.0690 -0.0376 -0.1822
  574loPI   C1B 9181  15.312   6.798   9.209 -0.0960  0.0856  0.0413
  574loPI   C2B 9182  15.578   7.045   8.924  0.0515 -0.0737  0.0873
  574loPI   C3B 9183  15.388   7.127   8.569  0.0586 -0.2021  0.1397
  574loPI   C4B 9184  15.015   6.994   8.545 -0.2869 -0.1919  0.2022
  575loPI    C1 9185   8.594  14.070   9.503 -0.2296 -0.0395 -0.1025
  575loPI    C2 9186   8.835  13.785   9.359 -0.0548  0.0023  0.1023
  575loPI    C3 9187   8.443  13.773   9.281 -0.0476 -0.2873  0.0990
  575loPI   PO4 9188   8.689  14.310   9.484 -0.0533 -0.1080  0.0152
  575loPI   GL1 9189   8.873  14.658   9.212 -0.0623 -0.0247 -0.2335
  575loPI   GL2 9190   8.686  14.382   9.004 -0.1067  0.0861  0.3208
  575loPI   C1A 9191   9.166  14.527   8.900 -0.1383  0.0625 -0.0351
  575loPI   C2A 9192   9.225  14.604   8.477 -0.2360  0.0407  0.2479
  575loPI   C3A 9193   9.278  14.565   8.002 -0.2519 -0.0912 -0.1037
  575loPI   C4A 9194   8.915  14.519   7.681 -0.0043 -0.0017  0.1229
  575loPI   C5A 9195   8.625  14.297   7.632 -0.2491 -0.2231  0.1637
  575loPI   C6A 9196   8.240  14.268   7.353 -0.0595  0.0461 -0.0643
  575loPI   C1B 9197   8.812  14.320   8.629 -0.0563  0.1475 -0.1728
  575loPI   C2B 9198   8.803  14.304   8.212 -0.0080  0.0964 -0.2193
  575loPI   C3B 9199   8.843  14.007   7.943 -0.2550 -0.0094  0.2504
  575loPI   C4B 9200   8.892  13.912   7.458 -0.2896  0.2459 -0.1815
  576loPI    C1 9201   5.082   4.871  10.070 -0.0937  0.1995  0.0895
  576loPI    C2 9202   5.433   4.881   9.878 -0.2003  0.1063 -0.1131
  576loPI    C3 9203   5.374   4.616  10.172 -0.2012 -0.0800 -0.2789
  576loPI   PO4 9204   4.867   4.944   9.841  0.1081 -0.1576  0.2184
  576loPI   GL1 9205   5.174   5.174   9.445  0.1855  0.0295 -0.0366
  576loPI   GL2 9206   5.196   4.796   9.427 -0.2112  0.2072 -0.1707
  576loPI   C1A 9207   5.288   5.090   9.030  0.4712 -0.2126  0.0260
  576loPI   C2A 9208   5.256   5.026   8.626  0.2379 -0.3366  0.1778
  576loPI   C3A 9209   5.334   5.098   8.243  0.1831 -0.0810  0.1579
  576loPI   C4A 9210   5.408   5.158   7.813  0.2137  0.0187 -0.2240
  576loPI   C5A 9211   5.138   5.229   7.345 -0.0065  0.0608  0.0340
  576loPI   C6A 9212   4.928   5.164   6.994  0.2160 -0.1328 -0.0433
  576loPI   C1B 9213   4.920   4.761   9.042 -0.0570  0.0670  0.3381
  576loPI   C2B 9214   4.939   4.666   8.612 -0.0252 -0.1341  0.1105
  576loPI   C3B 9215   4.964   4.670   8.194 -0.5366 -0.3557  0.0316
  576loPI   C4B 9216   5.092   4.763   7.804  0.0008 -0.1354 -0.1002
  577loPI    C1 9217  12.173  18.282  10.120 -0.0745  0.1563  0.0884
  577loPI    C2 9218  12.452  18.096  10.340 -0.1004  0.0786  0.0561
  577loPI    C3 9219  12.064  18.049  10.426 -0.1016  0.2427  0.1445
  577loPI   PO4 9220  12.228  18.200   9.824  0.3597 -0.0749  0.0392
  577loPI   GL1 9221  12.242  17.874   9.481  0.1981  0.0363  0.0242
  577loPI   GL2 9222  12.244  17.642   9.283 -0.1774  0.0709 -0.0107
  577loPI   C1A 9223  12.436  18.105   9.125 -0.1051  0.1591 -0.2967
  577loPI   C2A 9224  12.442  18.192   8.697 -0.0655 -0.1932 -0.2158
  577loPI   C3A 9225  12.410  18.055   8.273  0.2524  0.0108 -0.0809
  577loPI   C4A 9226  12.494  17.726   7.988  0.0097  0.0793  0.0229
  577loPI   C5A 9227  12.474  17.767   7.582 -0.1443 -0.1119 -0.0051
  577loPI   C6A 9228  12.200  17.620   7.217  0.3723 -0.2087  0.2211
  577loPI   C1B 9229  12.503  17.497   8.961 -0.0448  0.0907  0.1823
  577loPI   C2B 9230  12.708  17.567   8.479 -0.0857  0.2232  0.1741
  577loPI   C3B 9231  12.912  17.479   8.238 -0.2525  0.1260  0.2991
  577loPI   C4B 9232  13.154  17.346   7.952  0.0131  0.0559  0.3146
  578loPI    C1 9233  14.758   0.104  10.419  0.1756  0.1091 -0.2661
  578loPI    C2 9234  14.614   0.462  10.524 -0.0830  0.0028 -0.2516
  578loPI    C3 9235  14.606   0.159  10.785  0.2144  0.0073 -0.2344
  578loPI   PO4 9236  14.712   0.126  10.166 -0.2473 -0.3495 -0.1100
  578loPI   GL1 9237  14.912   0.303   9.723 -0.0036 -0.1871  0.0631
  578loPI   GL2 9238  15.182   0.661   9.701 -0.0244 -0.0379  0.0946
  578loPI   C1A 9239  15.096  -0.036   9.481 -0.0009 -0.1330  0.1391
  578loPI   C2A 9240  14.879  -0.186   9.060  0.1126 -0.1108  0.0477
  578loPI   C3A 9241  14.994  -0.315   8.636  0.2581  0.0851 -0.1163
  578loPI   C4A 9242  15.043  -0.396   8.164 -0.0760  0.3693 -0.0297
  578loPI   C5A 9243  15.091  -0.766   7.878 -0.0598  0.2123  0.0011
  578loPI   C6A 9244  15.243  -1.171   7.649 -0.1161 -0.2923 -0.1157
  578loPI   C1B 9245  15.237   0.842   9.214  0.3229  0.3956  0.2502
  578loPI   C2B 9246  15.284   0.610   8.757 -0.1479  0.3253 -0.0871
  578loPI   C3B 9247  15.275   0.656   8.331 -0.0840  0.0733 -0.1734
  578loPI   C4B 9248  15.172   0.459   7.913  0.0704  0.3326  0.2248
  579loPI    C1 9249   6.920  10.802   9.747  0.1208 -0.0136  0.2935
  579loPI    C2 9250   6.900  10.479   9.982 -0.1455 -0.2758 -0.0776
  579loPI    C3 9251   6.589  10.730   9.960  0.0008 -0.0761  0.0881
  579loPI   PO4 9252   7.126  10.725   9.587 -0.1641  0.1040 -0.2102
  579loPI   GL1 9253   7.296  10.861   9.221 -0.0803  0.0270  0.2133
  579loPI   GL2 9254   7.482  10.581   9.157 -0.1411 -0.0782 -0.2888
  579loPI   C1A 9255   7.310  10.911   8.839  0.0848  0.0974 -0.0270
  579loPI   C2A 9256   7.158  10.984   8.383  0.0517 -0.0718 -0.0363
  579loPI   C3A 9257   7.323  10.921   7.972 -0.3355 -0.2334 -0.0769
  579loPI   C4A 9258   7.075  11.092   7.548  0.2340 -0.0137 -0.6085
  579loPI   C5A 9259   6.982  11.393   7.152  0.0592 -0.0829  0.0063
  579loPI   C6A 9260   7.158  11.662   6.888  0.0225  0.1596  0.2300
  579loPI   C1B 9261   7.629  10.491   8.786 -0.0736 -0.1150  0.2894
  579loPI   C2B 9262   7.661  10.518   8.348 -0.1542 -0.1931 -0.2833
  579loPI   C3B 9263   7.727  10.501   7.895 -0.2531 -0.0549 -0.1677
  579loPI   C4B 9264   7.809  10.553   7.500 -0.2408  0.1949  0.0330
  580loPI    C1 9265   1.638   2.555  10.232 -0.2893 -0.0231  0.1177
  580loPI    C2 9266   1.494   2.889  10.400  0.0446  0.1018  0.1651
  580loPI    C3 9267   1.786   2.685  10.580 -0.1858 -0.2440  0.1574
  580loPI   PO4 9268   1.621   2.543   9.985 -0.0076 -0.4305 -0.1196
  580loPI   GL1 9269   1.525   2.731   9.609 -0.2329  0.2334 -0.0115
  580loPI   GL2 9270   1.844   2.910   9.691 -0.1143  0.1212  0.0973
  580loPI   C1A 9271   1.559   2.447   9.133  0.1059 -0.0915 -0.0587
  580loPI   C2A 9272   1.553   2.209   8.821 -0.2899  0.0471  0.3999
  580loPI   C3A 9273   1.494   2.363   8.376  0.0083  0.0646  0.1713
  580loPI   C4A 9274   1.421   2.293   7.993 -0.0445  0.0486  0.1389
  580loPI   C5A 9275   1.493   2.476   7.631 -0.3389  0.1379  0.0871
  580loPI   C6A 9276   1.610   2.457   7.220  0.1102 -0.0499 -0.0475
  580loPI   C1B 9277   1.776   2.925   9.162  0.0296 -0.2535 -0.3911
  580loPI   C2B 9278   1.829   2.845   8.746  0.0998  0.1001 -0.1381
  580loPI   C3B 9279   1.731   2.795   8.388 -0.0023 -0.0196  0.0857
  580loPI   C4B 9280   1.702   2.760   7.978  0.2239  0.0515  0.0325
  581loPI    C1 9281   0.013   7.469   9.801 -0.0134  0.0760 -0.0025
  581loPI    C2 9282   0.238   7.234   9.568 -0.1871  0.0063 -0.1019
  581loPI    C3 9283   0.043   7.078   9.880 -0.1395  0.0572 -0.0464
  581loPI   PO4 9284  -0.012   7.678   9.568 -0.0681  0.0802 -0.3095
  581loPI   GL1 9285  -0.303   7.697   9.204  0.4655 -0.1031  0.2079
  581loPI   GL2 9286  -0.470   7.455   9.146 -0.3322 -0.1384  0.1324
  581loPI   C1A 9287  -0.194   7.714   8.772  0.1033  0.2443  0.0453
  581loPI   C2A 9288  -0.201   7.530   8.347  0.1109 -0.2510 -0.0180
  581loPI   C3A 9289  -0.330   7.322   7.999  0.3814 -0.1091  0.3126
  581loPI   C4A 9290  -0.236   7.373   7.581  0.1672 -0.3461 -0.0293
  581loPI   C5A 9291  -0.166   7.208   7.262 -0.1798 -0.1256  0.0203
  581loPI   C6A 9292  -0.432   7.146   6.997  0.4704 -0.1680 -0.0782
  581loPI   C1B 9293  -0.642   7.378   8.844 -0.1530 -0.2197  0.1107
  581loPI   C2B 9294  -0.631   7.245   8.419  0.1059  0.0097 -0.0895
  581loPI   C3B 9295  -0.788   7.050   8.071  0.0518  0.0477 -0.2918
  581loPI   C4B 9296  -0.941   7.002   7.719 -0.0619  0.0530 -0.0513
  582loPI    C1 9297  10.526   8.977   9.707  0.1171  0.2709  0.0524
  582loPI    C2 9298  10.439   9.227  10.007  0.1270  0.1358  0.1692
  582loPI    C3 9299  10.566   8.856  10.086 -0.3317 -0.0641  0.0018
  582loPI   PO4 9300  10.647   9.085   9.576 -0.0159 -0.3195 -0.0269
  582loPI   GL1 9301  10.886   9.183   9.264 -0.3702 -0.0581  0.0766
  582loPI   GL2 9302  11.179   9.111   9.389  0.1325  0.0990  0.0447
  582loPI   C1A 9303  10.746   9.156   8.800  0.0512 -0.0769  0.2168
  582loPI   C2A 9304  10.960   9.189   8.411  0.2093 -0.3192  0.2905
  582loPI   C3A 9305  10.821   9.374   7.902  0.0949 -0.1843  0.0631
  582loPI   C4A 9306  10.734   9.206   7.434  0.2999 -0.0155 -0.2349
  582loPI   C5A 9307  10.983   9.141   7.141  0.3601  0.0816 -0.0074
  582loPI   C6A 9308  10.950   9.300   6.718  0.0921 -0.0937 -0.1838
  582loPI   C1B 9309  11.282   9.023   9.076 -0.0248  0.2969 -0.0984
  582loPI   C2B 9310  11.398   8.953   8.613 -0.0443 -0.1803  0.1066
  582loPI   C3B 9311  11.714   8.975   8.241  0.1770  0.3152 -0.0616
  582loPI   C4B 9312  11.897   8.892   7.811 -0.1103  0.2012 -0.0723
  583loPI    C1 9313  11.422  18.588  10.188  0.0193  0.0578  0.0369
  583loPI    C2 9314  11.379  18.385  10.530  0.0038 -0.1470 -0.0850
  583loPI    C3 9315  11.742  18.428  10.366  0.0237  0.0294  0.0035
  583loPI   PO4 9316  11.294  18.559   9.985  0.2683  0.2324 -0.3438
  583loPI   GL1 9317  11.163  18.735   9.617 -0.1674  0.2406 -0.0136
  583loPI   GL2 9318  11.382  18.628   9.464  0.2298 -0.0010 -0.1697
  583loPI   C1A 9319  11.027  18.949   9.281  0.1185  0.0915 -0.0177
  583loPI   C2A 9320  11.243  19.175   8.890 -0.0713 -0.2687 -0.1208
  583loPI   C3A 9321  11.342  19.113   8.503 -0.0039  0.0255  0.0069
  583loPI   C4A 9322  11.309  19.192   8.011 -0.0535  0.0877 -0.1559
  583loPI   C5A 9323  11.680  19.223   7.707 -0.2074  0.0999  0.2093
  583loPI   C6A 9324  11.865  18.994   7.341 -0.0616  0.0150  0.4457
  583loPI   C1B 9325  11.185  18.453   9.174 -0.0016  0.3480 -0.2303
  583loPI   C2B 9326  10.814  18.388   8.881 -0.1916  0.1352 -0.1143
  583loPI   C3B 9327  10.519  18.143   8.679 -0.0383  0.1978  0.0847
  583loPI   C4B 9328  10.320  18.231   8.168 -0.2039  0.1908 -0.0259
  584loPI    C1 9329  18.006   7.641   9.981  0.1660  0.0385  0.1225
  584loPI    C2 9330  18.186   7.998   9.967 -0.1767  0.2115 -0.0160
  584loPI    C3 9331  18.068   7.848  10.318  0.0369  0.1964  0.0512
  584loPI   PO4 9332  17.839   7.655   9.762  0.1496  0.2244 -0.1284
  584loPI   GL1 9333  17.719   7.640   9.282 -0.0092 -0.0965  0.1901
  584loPI   GL2 9334  17.681   8.015   9.183  0.2621  0.0056 -0.1942
  584loPI   C1A 9335  17.921   7.312   9.120  0.1024 -0.3065  0.4185
  584loPI   C2A 9336  18.176   7.192   8.781  0.0745  0.2155  0.2314
  584loPI   C3A 9337  18.196   7.206   8.362 -0.0230  0.0571  0.0283
  584loPI   C4A 9338  18.097   7.255   7.941 -0.0193 -0.0383  0.0833
  584loPI   C5A 9339  17.994   6.874   7.650 -0.0371 -0.0675  0.0330
  584loPI   C6A 9340  17.586   6.749   7.638  0.2107  0.2114 -0.0640
  584loPI   C1B 9341  17.801   7.964   8.742  0.1006 -0.0916  0.0469
  584loPI   C2B 9342  17.755   8.041   8.374  0.0829  0.1419 -0.0193
  584loPI   C3B 9343  17.706   7.957   7.926  0.0241 -0.1274  0.1056
  584loPI   C4B 9344  17.993   8.185   7.748  0.1618 -0.0314 -0.2073
  585loPI    C1 9345  11.510   2.135  10.032 -0.2869 -0.0393 -0.1657
  585loPI    C2 9346  11.299   2.067  10.365 -0.2942 -0.1261 -0.1879
  585loPI    C3 9347  11.556   1.791  10.232 -0.0319  0.0537 -0.0606
  585loPI   PO4 9348  11.349   2.174   9.838  0.1077 -0.0831 -0.1446
  585loPI   GL1 9349  11.266   1.936   9.488  0.1707 -0.0752 -0.0785
  585loPI   GL2 9350  11.080   1.660   9.424 -0.0375 -0.0637 -0.1766
  585loPI   C1A 9351  11.457   1.999   9.115 -0.1237  0.0574  0.0479
  585loPI   C2A 9352  11.418   2.131   8.704 -0.2500 -0.1645 -0.2789
  585loPI   C3A 9353  11.789   2.305   8.382  0.3821 -0.0376  0.0829
  585loPI   C4A 9354  12.012   2.382   8.082  0.2378 -0.1980  0.1106
  585loPI   C5A 9355  12.490   2.485   7.985 -0.1610 -0.1893  0.2980
  585loPI   C6A 9356  12.865   2.239   7.889 -0.0422  0.2801 -0.0140
  585loPI   C1B 9357  11.145   1.657   8.927  0.2743 -0.0357  0.1240
  585loPI   C2B 9358  11.072   1.592   8.515 -0.2348 -0.0391  0.0559
  585loPI   C3B 9359  11.323   1.298   8.331  0.0348  0.1719 -0.1265
  585loPI   C4B 9360  11.501   1.112   8.037 -0.0714 -0.0176  0.2620
  586loPI    C1 9361  14.485   0.875  10.356  0.1264  0.2129 -0.1436
  586loPI    C2 9362  14.416   1.238  10.509  0.2500  0.1772 -0.0010
  586loPI    C3 9363  14.790   1.095  10.493  0.1699 -0.0659  0.2243
  586loPI   PO4 9364  14.216   0.865  10.146 -0.0930  0.1053  0.1396
  586loPI   GL1 9365  14.162   0.854   9.701  0.0507  0.1910  0.2804
  586loPI   GL2 9366  14.123   0.530   9.578  0.1943  0.1990 -0.1396
  586loPI   C1A 9367  14.212   1.024   9.251  0.3756  0.1589  0.0023
  586loPI   C2A 9368  14.450   1.070   8.943  0.0218 -0.2015 -0.2128
  586loPI   C3A 9369  14.498   1.287   8.598 -0.0800  0.0852 -0.0207
  586loPI   C4A 9370  14.758   1.533   8.218  0.1239  0.0195  0.0265
  586loPI   C5A 9371  14.787   1.659   7.742 -0.0017  0.3668  0.1174
  586loPI   C6A 9372  14.893   1.528   7.314 -0.1623 -0.1234 -0.1148
  586loPI   C1B 9373  14.384   0.283   9.303 -0.1443  0.0699  0.3480
  586loPI   C2B 9374  14.467   0.066   8.919 -0.3609 -0.2180  0.0515
  586loPI   C3B 9375  14.494  -0.126   8.593  0.0100  0.1369  0.0102
  586loPI   C4B 9376  14.604  -0.152   8.187 -0.0464 -0.2030  0.1917
  587loPI    C1 9377  14.653  18.969  10.471  0.2151 -0.1342 -0.0845
  587loPI    C2 9378  14.275  18.841  10.459  0.1331  0.1170 -0.2459
  587loPI    C3 9379  14.380  19.129  10.715  0.2009  0.0934 -0.2468
  587loPI   PO4 9380  14.723  19.027  10.296  0.2064 -0.3093 -0.1142
  587loPI   GL1 9381  14.793  19.010   9.817  0.2577  0.0673 -0.0023
  587loPI   GL2 9382  14.727  18.702   9.790 -0.2753 -0.1779  0.0038
  587loPI   C1A 9383  14.521  18.895   9.348 -0.2109  0.0038 -0.0381
  587loPI   C2A 9384  14.520  18.916   8.869  0.0205 -0.1309 -0.0721
  587loPI   C3A 9385  14.665  18.779   8.371 -0.1700  0.2047 -0.0805
  587loPI   C4A 9386  14.566  18.695   8.001  0.1289 -0.1321 -0.3107
  587loPI   C5A 9387  14.617  18.406   7.622 -0.1629  0.0860 -0.1928
  587loPI   C6A 9388  14.851  18.435   7.205 -0.0663 -0.2466  0.1451
  587loPI   C1B 9389  14.928  18.697   9.386  0.2893 -0.0332  0.0644
  587loPI   C2B 9390  15.032  18.716   8.960  0.0341 -0.0849  0.2711
  587loPI   C3B 9391  15.115  18.583   8.593  0.1126 -0.3582 -0.0282
  587loPI   C4B 9392  14.967  18.339   8.221 -0.2094 -0.1162 -0.0326
  588loPI    C1 9393   7.507   5.082  10.086 -0.1246 -0.1409 -0.0251
  588loPI    C2 9394   7.516   4.890  10.436 -0.1912  0.0420  0.0786
  588loPI    C3 9395   7.618   5.276  10.418  0.0866 -0.0394 -0.1531
  588loPI   PO4 9396   7.585   4.923   9.904 -0.1876 -0.2383 -0.1317
  588loPI   GL1 9397   7.704   4.822   9.493  0.0085  0.2064 -0.1287
  588loPI   GL2 9398   7.915   4.769   9.364  0.2025 -0.3097 -0.1489
  588loPI   C1A 9399   7.392   4.894   9.168 -0.0584 -0.1794 -0.0525
  588loPI   C2A 9400   7.444   4.868   8.784 -0.2268  0.0896  0.0003
  588loPI   C3A 9401   7.510   4.795   8.433  0.0416  0.1234  0.0598
  588loPI   C4A 9402   7.287   4.939   8.017 -0.0349 -0.0604  0.2088
  588loPI   C5A 9403   7.054   5.024   7.757  0.1133  0.0421 -0.2099
  588loPI   C6A 9404   6.676   5.006   7.574  0.2923 -0.2345 -0.3503
  588loPI   C1B 9405   7.819   4.618   9.028 -0.4795 -0.0308 -0.1292
  588loPI   C2B 9406   7.584   4.366   8.753  0.1237  0.1182 -0.3779
  588loPI   C3B 9407   7.597   4.245   8.352  0.1253 -0.1309 -0.0134
  588loPI   C4B 9408   7.740   4.108   7.883  0.0535 -0.1420  0.1117
  589loPI    C1 9409   1.351  13.647   9.453 -0.0779  0.1042  0.1178
  589loPI    C2 9410   1.209  13.346   9.676  0.2770 -0.0334  0.1650
  589loPI    C3 9411   1.287  13.700   9.844 -0.0952  0.0744  0.1190
  589loPI   PO4 9412   1.277  13.677   9.294  0.1372 -0.0371 -0.1080
  589loPI   GL1 9413   1.125  14.028   9.083  0.0791  0.1219 -0.1295
  589loPI   GL2 9414   0.973  14.260   9.101 -0.0669 -0.0581 -0.1351
  589loPI   C1A 9415   1.042  14.017   8.649 -0.2185 -0.0960 -0.0135
  589loPI   C2A 9416   1.327  13.903   8.347  0.0054  0.2217  0.1815
  589loPI   C3A 9417   1.658  13.542   8.330 -0.2836 -0.0974 -0.0585
  589loPI   C4A 9418   1.842  13.336   8.080  0.3604 -0.0882 -0.0296
  589loPI   C5A 9419   1.992  12.944   8.096  0.3245 -0.2117 -0.0379
  589loPI   C6A 9420   2.044  12.491   8.041  0.0808  0.0420  0.0880
  589loPI   C1B 9421   1.080  14.590   8.936 -0.1676 -0.1861  0.1830
  589loPI   C2B 9422   0.978  14.831   8.484 -0.0442 -0.1280 -0.1982
  589loPI   C3B 9423   0.820  15.191   8.261  0.0890  0.0694 -0.1794
  589loPI   C4B 9424   0.931  15.271   7.875 -0.0225 -0.2072 -0.1511
  590loPI    C1 9425  16.251  15.563  10.374  0.0503  0.1164 -0.0679
  590loPI    C2 9426  16.107  15.190  10.388  0.2468  0.0298 -0.2843
  590loPI    C3 9427  16.424  15.291  10.611 -0.1649  0.2333  0.2288
  590loPI   PO4 9428  16.360  15.657  10.156 -0.0723 -0.4064  0.3870
  590loPI   GL1 9429  16.523  15.594   9.626  0.1275  0.1477  0.0618
  590loPI   GL2 9430  16.477  15.231   9.625 -0.0224  0.0049 -0.1412
  590loPI   C1A 9431  16.371  15.893   9.277  0.2009 -0.0521 -0.0047
  590loPI   C2A 9432  15.953  16.150   9.009 -0.0510 -0.0063 -0.2866
  590loPI   C3A 9433  15.550  16.275   8.787  0.1599 -0.1428 -0.0227
  590loPI   C4A 9434  15.138  16.326   8.738 -0.2727 -0.1253 -0.5929
  590loPI   C5A 9435  14.947  16.607   8.448  0.2463  0.2603  0.2660
  590loPI   C6A 9436  14.781  16.880   8.067  0.0770 -0.1659 -0.0400
  590loPI   C1B 9437  16.482  15.198   9.176  0.0133 -0.2010 -0.0326
  590loPI   C2B 9438  16.310  15.102   8.851  0.0599 -0.1556 -0.1049
  590loPI   C3B 9439  15.958  15.193   8.653 -0.5503  0.3165  0.0305
  590loPI   C4B 9440  15.777  15.170   8.249  0.2220 -0.1992  0.0240
  591loPI    C1 9441  12.955   4.089  10.103  0.0993  0.0573  0.1867
  591loPI    C2 9442  13.307   4.203   9.952  0.0203 -0.2212 -0.2221
  591loPI    C3 9443  12.985   4.434   9.903  0.1134 -0.0336  0.0305
  591loPI   PO4 9444  12.852   3.902   9.927 -0.0464  0.0288  0.0925
  591loPI   GL1 9445  12.987   4.031   9.559 -0.0179  0.2226 -0.1832
  591loPI   GL2 9446  13.385   3.900   9.543  0.1886  0.2647 -0.1916
  591loPI   C1A 9447  12.611   3.996   9.366 -0.0283 -0.1862 -0.3169
  591loPI   C2A 9448  12.203   4.011   9.066  0.2958  0.0012  0.2308
  591loPI   C3A 9449  11.905   3.871   8.683  0.1039  0.0758  0.3330
  591loPI   C4A 9450  11.785   4.035   8.214  0.0738  0.0686 -0.0276
  591loPI   C5A 9451  11.425   3.942   7.894  0.1588 -0.0316 -0.0167
  591loPI   C6A 9452  11.198   4.151   7.611 -0.0625  0.0274  0.3756
  591loPI   C1B 9453  13.333   3.975   9.077  0.1872 -0.0012 -0.0101
  591loPI   C2B 9454  13.030   3.766   8.771  0.3094  0.0499  0.3112
  591loPI   C3B 9455  12.891   3.408   8.409  0.0060  0.0386 -0.2920
  591loPI   C4B 9456  12.663   3.137   8.213 -0.0445 -0.1497 -0.0771
  592loPI    C1 9457  15.484  15.153  10.213  0.0678 -0.2526  0.0392
  592loPI    C2 9458  15.271  14.905  10.445 -0.3324  0.2080  0.1813
  592loPI    C3 9459  15.576  15.112  10.601 -0.0248 -0.1508  0.0723
  592loPI   PO4 9460  15.602  15.129  10.038  0.2798 -0.2003  0.1399
  592loPI   GL1 9461  15.775  14.938   9.592  0.2665 -0.1873  0.1167
  592loPI   GL2 9462  15.541  15.133   9.534 -0.0804 -0.1338  0.1399
  592loPI   C1A 9463  16.012  15.051   9.240  0.0763  0.1524 -0.4165
  592loPI   C2A 9464  16.092  15.467   9.168 -0.2268  0.1664  0.2436
  592loPI   C3A 9465  16.275  15.622   8.826 -0.2507  0.2576 -0.2530
  592loPI   C4A 9466  16.272  15.779   8.302  0.1950 -0.2069 -0.1381
  592loPI   C5A 9467  16.485  15.848   7.887  0.3014  0.1548 -0.2769
  592loPI   C6A 9468  16.823  15.733   7.652  0.0122 -0.0673 -0.2909
  592loPI   C1B 9469  15.438  15.220   9.067  0.0272 -0.0051  0.2188
  592loPI   C2B 9470  15.312  15.208   8.707 -0.0731 -0.1273 -0.3961
  592loPI   C3B 9471  15.320  15.377   8.293 -0.1486 -0.2475 -0.1015
  592loPI   C4B 9472  15.398  15.363   7.860 -0.1282 -0.0915  0.0954
  593loPI    C1 9473   9.591  13.877   9.612  0.0224  0.1530  0.0211
  593loPI    C2 9474   9.547  13.615   9.911 -0.0960 -0.0164 -0.1426
  593loPI    C3 9475   9.911  13.690   9.762 -0.0242  0.1407  0.1060
  593loPI   PO4 9476   9.374  13.713   9.456  0.0458  0.0882 -0.0425
  593loPI   GL1 9477   9.296  13.413   9.112 -0.1222  0.0504  0.1159
  593loPI   GL2 9478   9.598  13.433   9.013  0.1815  0.0516 -0.1570
  593loPI   C1A 9479   8.995  13.458   8.732  0.2293 -0.2495  0.1065
  593loPI   C2A 9480   8.924  13.328   8.335 -0.0635 -0.0801  0.0353
  593loPI   C3A 9481   9.012  13.221   7.903  0.1660  0.0958  0.0159
  593loPI   C4A 9482   9.160  13.466   7.546 -0.2382 -0.4965  0.2299
  593loPI   C5A 9483   9.069  13.442   7.174  0.0767 -0.0298  0.0528
  593loPI   C6A 9484   9.173  12.925   6.965  0.0810  0.0546  0.1234
  593loPI   C1B 9485   9.415  13.683   8.682 -0.0872 -0.1183 -0.2936
  593loPI   C2B 9486   9.022  13.873   8.427 -0.0150 -0.0036  0.3529
  593loPI   C3B 9487   8.649  13.907   8.407  0.1765 -0.1209  0.0413
  593loPI   C4B 9488   8.630  13.854   8.812  0.0514 -0.1230 -0.2458
  594loPI    C1 9489   6.191   3.442   9.981 -0.1206 -0.0197 -0.1231
  594loPI    C2 9490   6.356   3.715  10.222 -0.1426 -0.1824  0.0784
  594loPI    C3 9491   6.144   3.413  10.377 -0.0896 -0.3340 -0.1398
  594loPI   PO4 9492   6.022   3.549   9.849 -0.1867 -0.0983 -0.0672
  594loPI   GL1 9493   6.172   3.754   9.508 -0.1546 -0.3681  0.0600
  594loPI   GL2 9494   6.005   3.965   9.240 -0.0355  0.0189 -0.0301
  594loPI   C1A 9495   6.581   3.709   9.243  0.0266 -0.1769 -0.0914
  594loPI   C2A 9496   6.663   3.836   8.836  0.0762 -0.2204  0.0618
  594loPI   C3A 9497   6.728   4.058   8.494  0.2284  0.1441 -0.1040
  594loPI   C4A 9498   6.558   4.139   8.097  0.2164  0.0337 -0.0825
  594loPI   C5A 9499   6.247   4.056   7.796 -0.1048 -0.2316 -0.0120
  594loPI   C6A 9500   5.986   3.992   7.381  0.1097  0.1853  0.0199
  594loPI   C1B 9501   6.228   3.968   8.904  0.0634  0.0391  0.1158
  594loPI   C2B 9502   6.125   4.068   8.526 -0.1476  0.2158  0.0174
  594loPI   C3B 9503   5.900   4.073   8.261 -0.0224 -0.1350  0.1999
  594loPI   C4B 9504   5.819   3.649   8.122  0.0224  0.2002  0.0372
  595loPI    C1 9505   9.675  16.628   9.853 -0.1207  0.1984 -0.1268
  595loPI    C2 9506   9.990  16.869   9.802  0.2509 -0.2417  0.0216
  595loPI    C3 9507   9.931  16.689  10.154 -0.2716 -0.0304  0.0514
  595loPI   PO4 9508   9.439  16.709   9.804 -0.1779  0.1113 -0.2261
  595loPI   GL1 9509   9.437  16.590   9.361 -0.2276  0.0323 -0.0710
  595loPI   GL2 9510   9.786  16.744   9.351  0.1767 -0.0267  0.0614
  595loPI   C1A 9511   9.285  16.551   8.941  0.0829 -0.1393 -0.2111
  595loPI   C2A 9512   9.372  16.464   8.479  0.0270  0.2003 -0.1452
  595loPI   C3A 9513   9.403  16.428   8.036 -0.0124  0.2812 -0.2133
  595loPI   C4A 9514   9.289  16.592   7.605  0.0033 -0.0182 -0.2688
  595loPI   C5A 9515   8.855  16.542   7.397 -0.0241 -0.1019 -0.0293
  595loPI   C6A 9516   8.564  16.586   7.146  0.1329 -0.0959  0.3326
  595loPI   C1B 9517   9.729  16.808   8.969  0.0432 -0.0352  0.1232
  595loPI   C2B 9518   9.708  16.887   8.522  0.0183  0.0214  0.2838
  595loPI   C3B 9519   9.767  17.192   8.153  0.0906  0.1521  0.0014
  595loPI   C4B 9520   9.750  17.489   7.801 -0.2043  0.2501  0.3775
  596loPI    C1 9521  13.244   8.911   9.889  0.2691 -0.1429  0.1200
  596loPI    C2 9522  13.141   8.680  10.199 -0.1053 -0.1789 -0.0267
  596loPI    C3 9523  13.112   9.078  10.228 -0.3143 -0.1898 -0.0749
  596loPI   PO4 9524  13.156   8.871   9.574  0.0486  0.1645  0.1786
  596loPI   GL1 9525  13.078   8.756   9.214 -0.0145 -0.0010  0.0341
  596loPI   GL2 9526  13.365   8.632   9.176  0.0205 -0.1224 -0.1639
  596loPI   C1A 9527  12.951   8.990   8.840 -0.2448  0.0066 -0.0289
  596loPI   C2A 9528  12.793   9.056   8.536 -0.0108 -0.0014  0.1396
  596loPI   C3A 9529  12.590   9.270   8.254 -0.0937  0.0356 -0.4463
  596loPI   C4A 9530  12.674   9.521   7.863 -0.1831 -0.1418  0.0712
  596loPI   C5A 9531  13.040   9.798   7.694 -0.1691  0.0496 -0.1448
  596loPI   C6A 9532  13.101   9.729   7.329  0.0618  0.1764 -0.0113
  596loPI   C1B 9533  13.633   8.309   9.041 -0.5339 -0.2915 -0.0591
  596loPI   C2B 9534  14.065   8.276   8.808 -0.0617 -0.1513 -0.0964
  596loPI   C3B 9535  14.289   8.246   8.407 -0.0520 -0.1183  0.1150
  596loPI   C4B 9536  14.324   8.152   7.910  0.3895  0.1985 -0.1373
  597loPI    C1 9537   3.892  13.573   9.530  0.2913  0.1080 -0.0192
  597loPI    C2 9538   4.085  13.903   9.410  0.1191  0.1982 -0.0516
  597loPI    C3 9539   3.734  13.805   9.244  0.1485  0.0215 -0.0116
  597loPI   PO4 9540   4.045  13.332   9.481 -0.4030 -0.2101  0.0215
  597loPI   GL1 9541   4.112  13.250   9.067  0.0828  0.3467 -0.2848
  597loPI   GL2 9542   4.069  13.597   8.904 -0.1105  0.1039 -0.1660
  597loPI   C1A 9543   3.942  13.044   8.766  0.0389 -0.2624  0.1770
  597loPI   C2A 9544   3.939  13.048   8.259 -0.0902 -0.2754  0.0487
  597loPI   C3A 9545   3.866  12.881   7.904 -0.3300 -0.0352  0.1370
  597loPI   C4A 9546   3.546  12.509   7.757 -0.0772  0.0339  0.3373
  597loPI   C5A 9547   3.462  12.218   7.465 -0.0211 -0.1082 -0.1952
  597loPI   C6A 9548   3.529  12.074   7.006 -0.3318  0.1850 -0.0275
  597loPI   C1B 9549   4.077  13.516   8.501 -0.2281 -0.3626  0.1761
  597loPI   C2B 9550   3.886  13.785   8.186 -0.2648  0.1904  0.0571
  597loPI   C3B 9551   3.515  13.817   7.914  0.1895  0.0762 -0.0078
  597loPI   C4B 9552   3.263  14.080   7.661  0.0387 -0.1465  0.0374
  598loPI    C1 9553   7.608  14.112   9.778 -0.0852  0.2675 -0.1536
  598loPI    C2 9554   7.910  14.176  10.032 -0.1739  0.0167  0.0188
  598loPI    C3 9555   7.547  14.082  10.172 -0.2529 -0.0054 -0.1975
  598loPI   PO4 9556   7.662  14.003   9.658 -0.2469  0.0555  0.2119
  598loPI   GL1 9557   7.706  14.227   9.317  0.2052  0.2650  0.2832
  598loPI   GL2 9558   7.589  14.494   9.194 -0.0584  0.4512 -0.1278
  598loPI   C1A 9559   7.502  14.139   8.835 -0.2750  0.0125  0.2968
  598loPI   C2A 9560   7.374  14.026   8.423  0.0652 -0.2853 -0.0247
  598loPI   C3A 9561   7.262  14.076   7.999 -0.2869 -0.1926  0.0097
  598loPI   C4A 9562   7.316  14.030   7.662 -0.0104 -0.0648  0.1012
  598loPI   C5A 9563   7.230  13.991   7.253 -0.2019  0.1444 -0.0606
  598loPI   C6A 9564   7.094  13.695   6.975  0.1646  0.2771 -0.0623
  598loPI   C1B 9565   7.854  14.474   8.860  0.2445  0.0735 -0.0046
  598loPI   C2B 9566   7.927  14.558   8.495  0.0247 -0.2684 -0.1562
  598loPI   C3B 9567   7.975  14.661   8.106  0.2111 -0.2123 -0.2276
  598loPI   C4B 9568   7.903  14.537   7.666 -0.0032  0.0450 -0.1510
  599loPI    C1 9569   0.052  18.492  10.324  0.2802 -0.0302 -0.0763
  599loPI    C2 9570   0.258  18.149  10.313  0.0505 -0.1739  0.0320
  599loPI    C3 9571   0.145  18.303  10.664 -0.1061 -0.1447 -0.0304
  599loPI   PO4 9572   0.199  18.588   9.962  0.2367  0.0384 -0.0483
  599loPI   GL1 9573   0.071  18.646   9.582 -0.1205 -0.2700 -0.2462
  599loPI   GL2 9574   0.431  18.496   9.492 -0.0970 -0.1484 -0.1866
  599loPI   C1A 9575   0.180  18.803   9.155 -0.2682 -0.5095 -0.6755
  599loPI   C2A 9576   0.341  18.668   8.799  0.0131  0.0027  0.1063
  599loPI   C3A 9577   0.531  18.515   8.469  0.5069  0.0668  0.0027
  599loPI   C4A 9578   0.599  18.795   8.100  0.1196  0.2806  0.1296
  599loPI   C5A 9579   0.344  18.920   7.746 -0.1569  0.1183 -0.0803
  599loPI   C6A 9580   0.232  19.081   7.340  0.1515 -0.0451 -0.1224
  599loPI   C1B 9581   0.625  18.502   9.183  0.0306 -0.1542  0.1867
  599loPI   C2B 9582   0.867  18.602   8.890 -0.2063  0.3829  0.2044
  599loPI   C3B 9583   0.998  18.371   8.470 -0.0203 -0.0668 -0.2822
  599loPI   C4B 9584   1.233  18.249   8.076 -0.1125  0.0767 -0.2688
  600loPI    C1 9585  14.157   5.962  10.027  0.1170 -0.2043  0.0069
  600loPI    C2 9586  14.069   5.582  10.116 -0.1753 -0.1430 -0.0078
  600loPI    C3 9587  14.037   5.866  10.396 -0.1889 -0.0928 -0.0601
  600loPI   PO4 9588  13.960   6.110   9.920 -0.0657  0.2365 -0.3295
  600loPI   GL1 9589  13.616   6.100   9.762  0.0004  0.3290  0.0347
  600loPI   GL2 9590  13.855   5.699   9.678 -0.0670  0.0598 -0.1114
  600loPI   C1A 9591  13.723   6.236   9.342 -0.0510 -0.1024 -0.0278
  600loPI   C2A 9592  13.661   6.357   8.952  0.1065  0.2069 -0.1095
  600loPI   C3A 9593  13.717   6.395   8.521 -0.3416  0.1847 -0.1222
  600loPI   C4A 9594  13.446   6.311   8.118  0.1594  0.0796  0.0377
  600loPI   C5A 9595  13.651   6.148   7.704 -0.1454 -0.1657  0.1102
  600loPI   C6A 9596  14.028   6.050   7.310 -0.0087  0.1717  0.1074
  600loPI   C1B 9597  13.637   5.724   9.369 -0.3398 -0.0142  0.0089
  600loPI   C2B 9598  13.611   5.399   8.998 -0.2840 -0.1093  0.1092
  600loPI   C3B 9599  13.693   5.312   8.621  0.3315 -0.0425  0.0966
  600loPI   C4B 9600  13.815   4.979   8.363 -0.0716  0.3043 -0.0494
  601loPI    C1 9601  12.285  15.331   9.983 -0.1485 -0.0665  0.1166
  601loPI    C2 9602  11.979  15.080  10.037  0.0664 -0.3077  0.2392
  601loPI    C3 9603  12.199  15.197  10.350  0.1434 -0.1916  0.1427
  601loPI   PO4 9604  12.368  15.261   9.801  0.2979 -0.1312 -0.0378
  601loPI   GL1 9605  12.307  15.215   9.310 -0.0326 -0.1312 -0.1979
  601loPI   GL2 9606  12.559  15.426   9.309 -0.0632 -0.1868 -0.1464
  601loPI   C1A 9607  12.147  14.912   9.021  0.0828 -0.1234 -0.2228
  601loPI   C2A 9608  12.070  15.049   8.626  0.1933  0.1034  0.2741
  601loPI   C3A 9609  12.042  14.918   8.191 -0.1936 -0.0027 -0.3235
  601loPI   C4A 9610  11.916  14.966   7.797 -0.1783 -0.0883  0.1038
  601loPI   C5A 9611  12.093  14.907   7.425  0.1732 -0.0521 -0.2025
  601loPI   C6A 9612  12.343  15.175   7.145 -0.1631  0.1725 -0.2957
  601loPI   C1B 9613  12.492  15.329   8.883 -0.0313 -0.0610  0.2422
  601loPI   C2B 9614  12.513  15.307   8.436  0.1286 -0.1139 -0.2098
  601loPI   C3B 9615  12.589  15.000   8.048  0.0939  0.1264  0.2697
  601loPI   C4B 9616  12.798  14.591   7.915  0.2130 -0.0098  0.2096
  602loPI    C1 9617  10.590  11.842   9.713 -0.3435  0.0747  0.0397
  602loPI    C2 9618  10.817  11.847  10.042 -0.0399 -0.1804 -0.1597
  602loPI    C3 9619  10.531  12.122   9.992  0.2557  0.1802  0.0743
  602loPI   PO4 9620  10.677  11.849   9.534  0.1129 -0.2504  0.0173
  602loPI   GL1 9621  10.766  11.982   9.153 -0.1712  0.0522  0.2164
  602loPI   GL2 9622  11.041  11.927   9.021 -0.3891 -0.0403  0.1368
  602loPI   C1A 9623  10.510  12.054   8.873  0.1687 -0.0414  0.0141
  602loPI   C2A 9624  10.423  12.153   8.397 -0.2598 -0.0431 -0.1253
  602loPI   C3A 9625  10.418  12.362   7.974  0.3934 -0.2135 -0.1565
  602loPI   C4A 9626  10.713  12.457   7.608 -0.0503 -0.3708 -0.2641
  602loPI   C5A 9627  10.608  12.604   7.148 -0.1330  0.1187  0.1347
  602loPI   C6A 9628  10.494  12.566   6.731 -0.1310 -0.1631 -0.1762
  602loPI   C1B 9629  10.944  11.917   8.598 -0.1696 -0.3492  0.1589
  602loPI   C2B 9630  10.970  12.033   8.231  0.0973 -0.0610 -0.3404
  602loPI   C3B 9631  10.863  12.037   7.858  0.2966  0.1362 -0.0784
  602loPI   C4B 9632  11.130  12.165   7.455  0.2603 -0.1157  0.2041
  603loPI    C1 9633  18.974   7.708   9.777 -0.0243  0.0295 -0.1364
  603loPI    C2 9634  18.984   7.351   9.958  0.2264 -0.0647 -0.3299
  603loPI    C3 9635  18.999   7.686  10.176 -0.0404 -0.1691 -0.1449
  603loPI   PO4 9636  18.799   7.628   9.544  0.0344 -0.0929  0.0381
  603loPI   GL1 9637  18.531   7.778   9.275 -0.2841 -0.0687  0.2134
  603loPI   GL2 9638  18.611   8.118   9.237  0.1295  0.0691  0.2505
  603loPI   C1A 9639  18.281   7.694   8.971 -0.1748 -0.1001  0.1662
  603loPI   C2A 9640  18.444   7.604   8.587  0.0553  0.1050  0.1854
  603loPI   C3A 9641  18.486   7.540   8.158  0.1754  0.0419  0.2470
  603loPI   C4A 9642  18.691   7.553   7.793  0.3269  0.0141 -0.0730
  603loPI   C5A 9643  18.583   7.445   7.390 -0.2536 -0.0225 -0.0998
  603loPI   C6A 9644  18.714   7.709   6.994  0.0052  0.1296  0.0518
  603loPI   C1B 9645  18.805   7.896   8.883  0.1826  0.1121  0.1460
  603loPI   C2B 9646  18.839   7.906   8.478 -0.1791  0.1459 -0.0782
  603loPI   C3B 9647  19.048   7.833   8.071 -0.0142  0.0833 -0.2815
  603loPI   C4B 9648  19.180   7.945   7.737  0.0617 -0.1956 -0.4126
  604loPI    C1 9649  14.089  11.276   9.989  0.0084 -0.0479  0.0219
  604loPI    C2 9650  13.758  11.494  10.044  0.1036  0.1038 -0.0020
  604loPI    C3 9651  14.003  11.420  10.352  0.1435  0.1490 -0.0228
  604loPI   PO4 9652  14.120  11.293   9.700 -0.2214  0.3628 -0.0945
  604loPI   GL1 9653  14.099  11.214   9.324 -0.0820 -0.3123  0.0053
  604loPI   GL2 9654  14.018  10.828   9.333  0.0663  0.0112  0.2841
  604loPI   C1A 9655  14.278  11.460   8.958 -0.0367 -0.0031 -0.2817
  604loPI   C2A 9656  14.274  11.438   8.429  0.0980  0.3374 -0.4698
  604loPI   C3A 9657  14.520  11.297   8.095  0.0481  0.2097 -0.2629
  604loPI   C4A 9658  14.630  11.072   7.814  0.0493 -0.1433  0.1305
  604loPI   C5A 9659  14.923  10.980   7.544  0.2870 -0.2198 -0.0116
  604loPI   C6A 9660  14.883  11.227   7.149 -0.0846 -0.2854  0.1018
  604loPI   C1B 9661  14.420  10.874   9.036  0.0406  0.1732 -0.0551
  604loPI   C2B 9662  14.522  11.031   8.647  0.0436 -0.0093  0.3245
  604loPI   C3B 9663  14.782  11.281   8.502 -0.0509  0.1771 -0.0673
  604loPI   C4B 9664  15.064  11.575   8.784  0.0380 -0.1858 -0.0965
  605loPI    C1 9665  18.187  10.119   9.429  0.0050  0.0011  0.0093
  605loPI    C2 9666  18.516   9.958   9.269  0.0092 -0.2011  0.2169
  605loPI    C3 9667  18.455   9.938   9.664 -0.0691  0.1699  0.2267
  605loPI   PO4 9668  18.078  10.217   9.209 -0.1846  0.0822 -0.1437
  605loPI   GL1 9669  17.777  10.457   9.105 -0.1723  0.0713  0.3406
  605loPI   GL2 9670  17.844  10.195   8.776  0.2195  0.0257 -0.1546
  605loPI   C1A 9671  17.877  10.848   8.783  0.0916  0.0985  0.4178
  605loPI   C2A 9672  18.040  10.940   8.297 -0.2807  0.2723 -0.4651
  605loPI   C3A 9673  18.184  11.215   7.869  0.0626  0.0880  0.1514
  605loPI   C4A 9674  18.236  11.362   7.424 -0.1598 -0.0019  0.0471
  605loPI   C5A 9675  17.955  11.631   7.201 -0.2330 -0.0212  0.1116
  605loPI   C6A 9676  17.854  11.400   6.786  0.1483  0.0346 -0.3212
  605loPI   C1B 9677  17.825  10.400   8.493 -0.1814  0.2508 -0.2885
  605loPI   C2B 9678  17.800  10.406   8.057 -0.2241  0.3691  0.0826
  605loPI   C3B 9679  17.884  10.540   7.631 -0.0917  0.0164 -0.7273
  605loPI   C4B 9680  17.714  10.740   7.328  0.0600 -0.0706 -0.1438
  606loPI    C1 9681   9.989   0.187  10.166 -0.1033 -0.2128  0.0696
  606loPI    C2 9682   9.921   0.503  10.403  0.1571 -0.1493  0.0620
  606loPI    C3 9683   9.845   0.133  10.535 -0.2059 -0.0821  0.0496
  606loPI   PO4 9684   9.848   0.265   9.960  0.0261 -0.0339  0.2396
  606loPI   GL1 9685   9.815   0.508   9.670 -0.0145  0.1513 -0.1249
  606loPI   GL2 9686   9.542   0.321   9.572  0.2584  0.2483 -0.2383
  606loPI   C1A 9687  10.229   0.532   9.344 -0.2255  0.4146 -0.0718
  606loPI   C2A 9688  10.287   0.586   8.871 -0.0678  0.1605  0.0109
  606loPI   C3A 9689  10.404   0.312   8.355  0.1808  0.0108 -0.2893
  606loPI   C4A 9690  10.432  -0.014   8.032 -0.1938 -0.0648  0.0800
  606loPI   C5A 9691  10.434  -0.333   7.667  0.2451  0.0249 -0.0686
  606loPI   C6A 9692  10.553  -0.432   7.276 -0.3370  0.1321  0.0428
  606loPI   C1B 9693   9.647   0.236   9.162 -0.2544 -0.1304 -0.1090
  606loPI   C2B 9694   9.881   0.257   8.840 -0.1421 -0.0435  0.0448
  606loPI   C3B 9695  10.298   0.077   8.784  0.0950 -0.1499 -0.0389
  606loPI   C4B 9696  10.354  -0.269   8.527 -0.0538  0.2204  0.1873
  607loPI    C1 9697   6.127   4.565   9.835 -0.0645 -0.3503  0.0361
  607loPI    C2 9698   5.969   4.927   9.897  0.0179 -0.2754 -0.1786
  607loPI    C3 9699   6.150   4.734  10.197 -0.0823 -0.1673 -0.0467
  607loPI   PO4 9700   5.920   4.424   9.633 -0.0468 -0.0071 -0.0877
  607loPI   GL1 9701   5.817   4.432   9.148 -0.1014 -0.1870 -0.1188
  607loPI   GL2 9702   5.569   4.561   9.196  0.0293  0.0841  0.0116
  607loPI   C1A 9703   6.028   4.534   8.755  0.0007  0.0500 -0.2445
  607loPI   C2A 9704   6.215   4.521   8.381 -0.2276 -0.3162  0.1386
  607loPI   C3A 9705   6.118   4.530   7.949  0.2089  0.0356  0.3635
  607loPI   C4A 9706   6.275   4.474   7.519  0.0596 -0.1072 -0.3653
  607loPI   C5A 9707   6.523   4.555   7.241  0.1629  0.6051 -0.1340
  607loPI   C6A 9708   6.663   4.994   7.112 -0.0295 -0.2345  0.0072
  607loPI   C1B 9709   5.469   4.624   8.858 -0.2252 -0.2085 -0.1211
  607loPI   C2B 9710   5.480   4.555   8.457 -0.0507  0.0900  0.0296
  607loPI   C3B 9711   5.592   4.443   8.113 -0.2362  0.2609  0.0928
  607loPI   C4B 9712   5.583   4.074   7.832 -0.0419 -0.1561 -0.1576
  608loPI    C1 9713   8.693  19.387  10.217  0.2003 -0.2724  0.0794
  608loPI    C2 9714   8.938  19.553  10.487 -0.0779  0.0617  0.1341
  608loPI    C3 9715   8.731  19.224  10.580 -0.0885  0.1117  0.2898
  608loPI   PO4 9716   8.769  19.465   9.936  0.1703  0.0376  0.3000
  608loPI   GL1 9717   8.842  19.401   9.585  0.2199 -0.2774  0.0915
  608loPI   GL2 9718   8.970  19.060   9.592 -0.0757  0.1225  0.2133
  608loPI   C1A 9719   8.825  19.417   9.096 -0.0000  0.0037 -0.1562
  608loPI   C2A 9720   8.730  19.331   8.622  0.0283 -0.0272 -0.1178
  608loPI   C3A 9721   8.875  19.463   8.321 -0.1812  0.1442  0.0702
  608loPI   C4A 9722   9.237  19.398   8.092 -0.1342  0.2835  0.0410
  608loPI   C5A 9723   9.003  19.274   7.737 -0.4685  0.1770 -0.1487
  608loPI   C6A 9724   8.743  19.026   7.515 -0.2824 -0.0461  0.0172
  608loPI   C1B 9725   8.701  18.933   9.311  0.2352 -0.0233 -0.0483
  608loPI   C2B 9726   8.693  18.876   8.864  0.0530 -0.0684  0.0839
  608loPI   C3B 9727   8.711  18.793   8.457 -0.1871 -0.1062 -0.2909
  608loPI   C4B 9728   8.443  18.623   8.170 -0.0576  0.0997  0.2744
  609loPI    C1 9729   7.873  12.265   9.715  0.0549 -0.0848 -0.1119
  609loPI    C2 9730   7.534  12.468   9.775  0.2307  0.1455  0.1259
  609loPI    C3 9731   7.726  12.303  10.085  0.1691 -0.2623 -0.0465
  609loPI   PO4 9732   7.830  12.138   9.516  0.4311  0.3375  0.0850
  609loPI   GL1 9733   7.669  12.321   9.118  0.0249 -0.0710 -0.0135
  609loPI   GL2 9734   7.411  12.496   9.274 -0.0753  0.1969 -0.0813
  609loPI   C1A 9735   7.773  12.282   8.744 -0.1331  0.0589 -0.0120
  609loPI   C2A 9736   7.874  12.310   8.324 -0.2449 -0.0544  0.0239
  609loPI   C3A 9737   7.926  12.353   7.868  0.1806  0.3210 -0.1381
  609loPI   C4A 9738   8.117  12.071   7.519 -0.0798  0.0116  0.1071
  609loPI   C5A 9739   8.380  11.684   7.416  0.2053 -0.0462  0.2348
  609loPI   C6A 9740   8.767  11.640   7.430 -0.4382 -0.0849  0.1730
  609loPI   C1B 9741   7.259  12.356   8.877  0.0792 -0.1954  0.2071
  609loPI   C2B 9742   7.340  12.295   8.488 -0.0947 -0.2291  0.0115
  609loPI   C3B 9743   7.378  12.269   8.069 -0.0795  0.0250 -0.1038
  609loPI   C4B 9744   7.576  12.303   7.502  0.0998 -0.1222  0.1525
  610loPI    C1 9745   9.864  10.317  10.029  0.0806 -0.0954  0.3300
  610loPI    C2 9746  10.196  10.540  10.026  0.0894 -0.1017 -0.2139
  610loPI    C3 9747  10.216  10.153  10.123  0.1972 -0.0435  0.0016
  610loPI   PO4 9748   9.694  10.362   9.789 -0.0984 -0.0371 -0.0152
  610loPI   GL1 9749   9.951  10.554   9.430  0.0507 -0.0661 -0.0716
  610loPI   GL2 9750   9.689  10.257   9.306  0.2388 -0.1657 -0.2857
  610loPI   C1A 9751  10.307  10.467   9.131  0.0538 -0.2490  0.2291
  610loPI   C2A 9752  10.659  10.510   8.809  0.2490 -0.1581  0.2650
  610loPI   C3A 9753  10.861  10.607   8.432  0.1757 -0.1195  0.2468
  610loPI   C4A 9754  10.796  10.595   7.997 -0.1117  0.1309 -0.0337
  610loPI   C5A 9755  10.802  10.731   7.529  0.0350 -0.2679 -0.2288
  610loPI   C6A 9756  10.722  11.096   7.446  0.0777  0.1062 -0.0974
  610loPI   C1B 9757  10.006  10.186   8.907 -0.0700 -0.1044 -0.2798
  610loPI   C2B 9758  10.213  10.396   8.655 -0.1581 -0.3520 -0.2095
  610loPI   C3B 9759  10.381  10.390   8.227 -0.0650  0.0277  0.4665
  610loPI   C4B 9760  10.382  10.476   7.748 -0.0436 -0.1758  0.0798
  611loPI    C1 9761  11.760   0.373  10.038  0.4067 -0.0392 -0.1073
  611loPI    C2 9762  12.009   0.156  10.264  0.2133  0.1796  0.3269
  611loPI    C3 9763  11.638   0.235  10.393 -0.0344 -0.0055 -0.2392
  611loPI   PO4 9764  11.817   0.252   9.802  0.0663  0.0511  0.4678
  611loPI   GL1 9765  11.695   0.103   9.449  0.3311  0.1769  0.0185
  611loPI   GL2 9766  11.937  -0.081   9.342 -0.3073  0.3709  0.1078
  611loPI   C1A 9767  11.591   0.072   9.053  0.1290  0.0175 -0.4284
  611loPI   C2A 9768  11.585   0.132   8.625 -0.0296 -0.1752 -0.1669
  611loPI   C3A 9769  11.639   0.129   8.246 -0.0758  0.1225 -0.0099
  611loPI   C4A 9770  11.477   0.239   7.975 -0.0440  0.0042 -0.1533
  611loPI   C5A 9771  11.272   0.093   7.641  0.1635 -0.2286 -0.0264
  611loPI   C6A 9772  11.393  -0.132   7.279  0.2037 -0.3750 -0.3027
  611loPI   C1B 9773  12.043  -0.012   8.925  0.0071 -0.0653  0.1933
  611loPI   C2B 9774  12.036  -0.129   8.513 -0.1650  0.1732  0.0701
  611loPI   C3B 9775  11.997  -0.123   8.038  0.2851 -0.1411 -0.0074
  611loPI   C4B 9776  12.057  -0.527   7.777  0.0672 -0.3502 -0.0095
  612loPI    C1 9777  16.184   4.663  10.011 -0.0192 -0.0011 -0.3308
  612loPI    C2 9778  16.421   4.461  10.262  0.0076  0.0176 -0.3411
  612loPI    C3 9779  16.029   4.382  10.249 -0.0391  0.2013 -0.1012
  612loPI   PO4 9780  16.257   4.616   9.771  0.0577 -0.0408  0.4660
  612loPI   GL1 9781  16.151   4.722   9.453  0.3987 -0.2076  0.2502
  612loPI   GL2 9782  16.180   4.975   9.369  0.1128  0.1154  0.1339
  612loPI   C1A 9783  16.119   4.629   9.059 -0.0444  0.1577  0.2195
  612loPI   C2A 9784  16.022   4.577   8.689 -0.0726  0.1708 -0.1417
  612loPI   C3A 9785  16.048   4.793   8.311 -0.1124 -0.0294 -0.2254
  612loPI   C4A 9786  15.940   5.097   7.916 -0.1832  0.1040  0.1389
  612loPI   C5A 9787  15.600   5.373   8.019 -0.0500  0.0839  0.2230
  612loPI   C6A 9788  15.514   5.546   8.355 -0.1072  0.2000  0.1378
  612loPI   C1B 9789  16.331   5.059   8.969  0.2314  0.0714 -0.0332
  612loPI   C2B 9790  16.504   4.803   8.642  0.1859 -0.1822 -0.0440
  612loPI   C3B 9791  16.571   4.697   8.297  0.1912 -0.1405  0.0789
  612loPI   C4B 9792  16.342   4.768   7.913  0.1061  0.1224 -0.3617
  613loPI    C1 9793  19.315   8.545   9.718  0.0959  0.1414  0.0133
  613loPI    C2 9794  19.391   8.878   9.926 -0.0249 -0.0312  0.3417
  613loPI    C3 9795  19.436   8.520  10.099 -0.0318 -0.1830  0.0361
  613loPI   PO4 9796  19.429   8.589   9.474  0.0248 -0.3484 -0.0036
  613loPI   GL1 9797  19.475   8.726   9.104  0.0242  0.1382 -0.3134
  613loPI   GL2 9798  19.591   8.555   8.803 -0.1569  0.1224 -0.1273
  613loPI   C1A 9799  19.071   8.784   8.808 -0.1997  0.0922 -0.0876
  613loPI   C2A 9800  19.110   8.678   8.473  0.2323  0.2166 -0.2716
  613loPI   C3A 9801  19.062   8.911   8.090 -0.1184  0.0928  0.0076
  613loPI   C4A 9802  19.096   9.179   7.702 -0.1436  0.0853 -0.1663
  613loPI   C5A 9803  19.140   9.559   7.373 -0.1654  0.1095 -0.1105
  613loPI   C6A 9804  19.012   9.934   7.174 -0.3064  0.2312 -0.2088
  613loPI   C1B 9805  19.526   8.454   8.360 -0.0504 -0.2714  0.4651
  613loPI   C2B 9806  19.570   8.343   7.958  0.1627 -0.2011 -0.4318
  613loPI   C3B 9807  19.597   8.055   7.560  0.0718 -0.3284  0.2662
  613loPI   C4B 9808  19.617   7.682   7.463  0.0681  0.4190  0.0000
  614loPI    C1 9809  13.178  14.386  10.402 -0.1422 -0.1482 -0.0513
  614loPI    C2 9810  13.294  14.007  10.348 -0.1792 -0.1423 -0.1763
  614loPI    C3 9811  13.453  14.225  10.644 -0.1249 -0.2410 -0.1323
  614loPI   PO4 9812  13.081  14.476  10.179  0.0092  0.1827 -0.1951
  614loPI   GL1 9813  13.097  14.608   9.652  0.0236  0.2185  0.3506
  614loPI   GL2 9814  13.221  14.834   9.438 -0.0983  0.0614  0.1022
  614loPI   C1A 9815  12.831  14.462   9.348 -0.0709  0.0946 -0.0480
  614loPI   C2A 9816  12.979  14.341   8.936 -0.0517 -0.2105  0.0416
  614loPI   C3A 9817  13.016  14.114   8.588  0.1742  0.0943  0.2288
  614loPI   C4A 9818  12.984  14.201   8.180  0.0895 -0.2955  0.0776
  614loPI   C5A 9819  12.950  14.134   7.788 -0.0494 -0.2102  0.4079
  614loPI   C6A 9820  13.182  13.959   7.442  0.0076  0.1141 -0.0776
  614loPI   C1B 9821  13.223  14.759   9.043 -0.0015 -0.2943  0.1253
  614loPI   C2B 9822  13.116  14.798   8.652  0.0731  0.0578  0.0394
  614loPI   C3B 9823  13.178  14.856   8.202  0.1078  0.2101 -0.0209
  614loPI   C4B 9824  13.303  14.929   7.721 -0.0870  0.0202 -0.0657
  615loPI    C1 9825   9.617  16.195   9.682 -0.1859  0.1724 -0.1653
  615loPI    C2 9826   9.246  16.210   9.830 -0.1369 -0.1153 -0.0055
  615loPI    C3 9827   9.561  16.223  10.077 -0.0466 -0.1847 -0.1160
  615loPI   PO4 9828   9.467  16.056   9.427 -0.1305 -0.1413 -0.1434
  615loPI   GL1 9829   9.317  16.039   9.049  0.1720 -0.0933 -0.1385
  615loPI   GL2 9830   9.217  15.803   8.982  0.3912  0.2049  0.2860
  615loPI   C1A 9831   9.502  16.012   8.595  0.2646 -0.1092 -0.0325
  615loPI   C2A 9832   9.510  15.905   8.218 -0.3321  0.1016 -0.2763
  615loPI   C3A 9833   9.494  15.950   7.803 -0.2186  0.0940 -0.2574
  615loPI   C4A 9834   9.432  16.178   7.310  0.0734  0.0195  0.1389
  615loPI   C5A 9835   9.323  16.597   7.037 -0.0358 -0.2464  0.1178
  615loPI   C6A 9836   9.402  16.874   6.688  0.1878 -0.2076  0.1935
  615loPI   C1B 9837   9.052  15.767   8.611  0.1735 -0.2360 -0.1313
  615loPI   C2B 9838   8.784  15.704   8.263 -0.0243  0.1700 -0.0637
  615loPI   C3B 9839   8.652  15.552   7.868 -0.2357 -0.0158 -0.0904
  615loPI   C4B 9840   8.483  15.494   7.427 -0.0803 -0.0966 -0.0102
  616loPI    C1 9841  18.693   5.766  10.124  0.2350 -0.0966 -0.1973
  616loPI    C2 9842  18.468   5.564   9.862  0.0104 -0.2055  0.0745
  616loPI    C3 9843  18.316   5.671  10.216  0.2618  0.0749  0.1022
  616loPI   PO4 9844  18.800   5.915   9.960 -0.0027  0.0068  0.1306
  616loPI   GL1 9845  18.952   5.785   9.707 -0.0989  0.0406  0.0858
  616loPI   GL2 9846  19.232   5.997   9.680 -0.0524  0.0297  0.0671
  616loPI   C1A 9847  18.689   5.720   9.240 -0.0335  0.2593 -0.3324
  616loPI   C2A 9848  18.519   5.830   8.816  0.1057  0.2638 -0.0095
  616loPI   C3A 9849  18.467   5.978   8.449  0.1199  0.1285 -0.1825
  616loPI   C4A 9850  18.523   6.018   8.016  0.2991  0.0487 -0.0914
  616loPI   C5A 9851  18.856   5.989   7.757  0.3028  0.4022  0.1105
  616loPI   C6A 9852  19.161   5.827   7.522  0.3771 -0.0977  0.0974
  616loPI   C1B 9853  19.077   6.026   9.191 -0.3010 -0.1227  0.2584
  616loPI   C2B 9854  19.288   6.015   8.913  0.0593  0.1072 -0.1219
  616loPI   C3B 9855  19.446   5.823   8.462 -0.1287 -0.3172  0.1656
  616loPI   C4B 9856  19.547   5.540   8.237  0.2957  0.2903  0.3403
  617loPI    C1 9857  10.835   6.762  10.505 -0.1386 -0.3016 -0.0675
  617loPI    C2 9858  10.639   6.680  10.844 -0.1927 -0.0674 -0.0400
  617loPI    C3 9859  10.435   6.773  10.513 -0.1356 -0.1380 -0.0953
  617loPI   PO4 9860  10.939   6.562  10.345 -0.0985  0.0446 -0.0250
  617loPI   GL1 9861  11.042   6.295  10.020 -0.2331 -0.0261 -0.0929
  617loPI   GL2 9862  11.023   6.060   9.759 -0.1386  0.0317 -0.0809
  617loPI   C1A 9863  11.031   6.662   9.731  0.0221 -0.1888 -0.1757
  617loPI   C2A 9864  11.151   6.741   9.259 -0.0235 -0.2254 -0.2789
  617loPI   C3A 9865  10.947   6.741   8.849  0.1594 -0.1492  0.0207
  617loPI   C4A 9866  10.922   6.739   8.433  0.0266  0.4082 -0.1651
  617loPI   C5A 9867  10.702   6.513   8.139  0.1221  0.1564  0.0571
  617loPI   C6A 9868  10.594   6.404   7.712 -0.1789  0.0290  0.2887
  617loPI   C1B 9869  11.280   5.828   9.337  0.1425 -0.2157  0.2837
  617loPI   C2B 9870  11.210   5.877   8.944 -0.1904 -0.0330 -0.3961
  617loPI   C3B 9871  10.971   5.666   8.716  0.1945  0.1306  0.3105
  617loPI   C4B 9872  10.883   5.635   8.303  0.4184 -0.0528 -0.0075
  618loPI    C1 9873   2.109  12.302   9.484 -0.0132  0.2087 -0.0187
  618loPI    C2 9874   1.745  12.183   9.602 -0.0255  0.3172  0.0534
  618loPI    C3 9875   2.050  12.182   9.861  0.0374  0.1786 -0.0204
  618loPI   PO4 9876   2.052  12.414   9.276  0.1207 -0.1492  0.0344
  618loPI   GL1 9877   2.180  12.361   8.871 -0.3900  0.1552 -0.3993
  618loPI   GL2 9878   2.461  12.300   8.744 -0.0429  0.1809  0.0234
  618loPI   C1A 9879   1.912  12.419   8.536 -0.0798 -0.0111 -0.0602
  618loPI   C2A 9880   1.658  12.151   8.257 -0.0322  0.0871 -0.1141
  618loPI   C3A 9881   1.665  12.149   7.748 -0.1575 -0.1813  0.3587
  618loPI   C4A 9882   1.679  12.128   7.315 -0.2895  0.0538 -0.3075
  618loPI   C5A 9883   1.920  12.036   6.948  0.0025  0.0527 -0.0768
  618loPI   C6A 9884   2.222  12.083   6.675 -0.0038 -0.0583 -0.1298
  618loPI   C1B 9885   2.449  12.294   8.230 -0.1315 -0.1230 -0.0823
  618loPI   C2B 9886   2.596  12.065   7.874 -0.1193 -0.0123  0.3788
  618loPI   C3B 9887   2.628  11.810   7.457 -0.1261  0.0713  0.0668
  618loPI   C4B 9888   2.804  11.498   7.067 -0.1334  0.1021  0.0317
  619loPI    C1 9889  13.856  17.516  10.184  0.0623  0.0788  0.0527
  619loPI    C2 9890  13.683  17.364  10.511  0.0694  0.0137  0.0265
  619loPI    C3 9891  14.082  17.393  10.491  0.0644  0.1153  0.0657
  619loPI   PO4 9892  13.739  17.381   9.944  0.0132 -0.0354  0.0354
  619loPI   GL1 9893  13.818  17.225   9.516  0.2687  0.2762 -0.1730
  619loPI   GL2 9894  13.945  17.006   9.570  0.3152 -0.2578  0.1151
  619loPI   C1A 9895  13.552  17.183   9.169 -0.0400 -0.3622  0.0108
  619loPI   C2A 9896  13.652  17.057   8.803  0.0543  0.0467  0.3173
  619loPI   C3A 9897  13.751  16.973   8.434 -0.0064  0.1805  0.0526
  619loPI   C4A 9898  13.983  16.934   8.052 -0.1171 -0.1617  0.1728
  619loPI   C5A 9899  14.361  16.700   7.811  0.1914 -0.1594 -0.4696
  619loPI   C6A 9900  14.769  16.506   7.620 -0.0901  0.0085 -0.2079
  619loPI   C1B 9901  14.085  17.155   9.021  0.0260 -0.2575 -0.5452
  619loPI   C2B 9902  14.446  17.328   8.788 -0.2022  0.0653 -0.3506
  619loPI   C3B 9903  14.782  17.360   8.516 -0.1825 -0.1475  0.0239
  619loPI   C4B 9904  14.782  17.364   8.098  0.2899  0.0762  0.0145
  620loPI    C1 9905   0.613   3.210   9.737  0.1862 -0.1463  0.4692
  620loPI    C2 9906   0.565   2.889   9.971 -0.2006 -0.1985  0.3250
  620loPI    C3 9907   0.320   3.203  10.010 -0.1245 -0.1151  0.1443
  620loPI   PO4 9908   0.873   3.221   9.751  0.2136  0.2862 -0.3330
  620loPI   GL1 9909   1.169   3.023   9.468  0.2351  0.1767  0.1501
  620loPI   GL2 9910   0.863   2.801   9.327  0.1286 -0.0737  0.0250
  620loPI   C1A 9911   1.268   2.906   9.077 -0.0547  0.1487 -0.0900
  620loPI   C2A 9912   1.318   2.756   8.642  0.0646  0.1171  0.0995
  620loPI   C3A 9913   1.226   2.714   8.178  0.0857 -0.2040 -0.1157
  620loPI   C4A 9914   1.027   2.718   7.855 -0.0942 -0.0466 -0.0121
  620loPI   C5A 9915   0.754   2.656   7.622 -0.4868  0.0607  0.0139
  620loPI   C6A 9916   0.425   2.338   7.643 -0.0100  0.1913  0.1557
  620loPI   C1B 9917   0.808   2.868   8.864  0.3016 -0.3028 -0.3018
  620loPI   C2B 9918   0.766   2.777   8.414  0.1459  0.1364 -0.0547
  620loPI   C3B 9919   0.533   2.783   8.071  0.2069  0.3486 -0.0904
  620loPI   C4B 9920   0.449   3.116   7.814  0.1860  0.1257  0.0297
  621loPI    C1 9921  13.257  19.422  10.137 -0.1645  0.0567  0.1462
  621loPI    C2 9922  13.316  19.284  10.508  0.0698  0.0638  0.1130
  621loPI    C3 9923  12.945  19.356  10.378 -0.0641 -0.5522  0.1247
  621loPI   PO4 9924  13.489  19.272  10.005  0.2289 -0.1677 -0.0890
  621loPI   GL1 9925  13.754  19.108   9.625  0.3419  0.0927 -0.1439
  621loPI   GL2 9926  14.100  19.052   9.573 -0.0068 -0.0852  0.0359
  621loPI   C1A 9927  13.882  19.482   9.310 -0.0630  0.0382  0.1027
  621loPI   C2A 9928  13.966  19.659   8.970 -0.0317 -0.1318 -0.1524
  621loPI   C3A 9929  14.046  19.622   8.554 -0.5210 -0.1071  0.0665
  621loPI   C4A 9930  14.091  19.464   8.157  0.0775 -0.0605 -0.0519
  621loPI   C5A 9931  14.221  19.491   7.814  0.0666  0.0171 -0.0723
  621loPI   C6A 9932  14.386  19.782   7.444  0.1455  0.2664  0.0658
  621loPI   C1B 9933  14.066  18.931   9.175  0.0535  0.1417  0.0019
  621loPI   C2B 9934  13.978  19.041   8.711 -0.1560  0.0314  0.1107
  621loPI   C3B 9935  13.734  19.146   8.366 -0.3323  0.1034 -0.1316
  621loPI   C4B 9936  13.761  19.065   7.994  0.0240  0.1752  0.0664
  622loPI    C1 9937   1.517   4.439  10.241  0.0182 -0.1016 -0.0855
  622loPI    C2 9938   1.625   4.176  10.522  0.0715  0.0466  0.0347
  622loPI    C3 9939   1.842   4.507  10.465 -0.0799  0.1385 -0.0124
  622loPI   PO4 9940   1.500   4.269   9.937 -0.0990  0.3334  0.0603
  622loPI   GL1 9941   1.578   3.877   9.613 -0.1772  0.0519  0.0179
  622loPI   GL2 9942   1.945   3.874   9.619  0.1582 -0.0354 -0.2280
  622loPI   C1A 9943   1.421   3.829   9.170  0.1018  0.2269 -0.4326
  622loPI   C2A 9944   1.342   3.721   8.750  0.0327 -0.0546  0.0679
  622loPI   C3A 9945   1.256   3.659   8.307  0.1934  0.3156 -0.0265
  622loPI   C4A 9946   1.176   3.508   7.806 -0.3070  0.1485  0.0645
  622loPI   C5A 9947   1.548   3.545   7.513  0.0178 -0.0152 -0.2991
  622loPI   C6A 9948   1.774   3.905   7.616  0.0005 -0.0000  0.0620
  622loPI   C1B 9949   1.926   3.821   9.233 -0.1259  0.1631  0.0244
  622loPI   C2B 9950   1.853   3.634   8.825  0.3957  0.1173  0.0905
  622loPI   C3B 9951   1.725   3.647   8.387 -0.1331 -0.1035 -0.0007
  622loPI   C4B 9952   1.685   3.608   8.015 -0.1848 -0.0587 -0.0563
  623loPI    C1 9953  16.624  13.975   9.960  0.0483 -0.2552  0.3031
  623loPI    C2 9954  16.590  13.890   9.570  0.1276  0.1646  0.1993
  623loPI    C3 9955  16.680  13.601   9.831  0.2313 -0.0914 -0.1139
  623loPI   PO4 9956  16.485  14.220   9.940  0.0071  0.0656 -0.2534
  623loPI   GL1 9957  16.531  14.587   9.684  0.0978 -0.1242 -0.0670
  623loPI   GL2 9958  16.668  14.408   9.506 -0.3538  0.2341 -0.0343
  623loPI   C1A 9959  16.367  14.692   9.304  0.2668 -0.0997  0.0387
  623loPI   C2A 9960  16.198  14.642   8.925  0.0226 -0.1230  0.2538
  623loPI   C3A 9961  16.029  14.715   8.631  0.1507 -0.2744 -0.3980
  623loPI   C4A 9962  16.233  14.864   8.244 -0.0100  0.3342 -0.0076
  623loPI   C5A 9963  16.362  15.111   8.002 -0.1444 -0.0378  0.2537
  623loPI   C6A 9964  16.238  15.387   7.897  0.2938 -0.0804 -0.0450
  623loPI   C1B 9965  16.879  14.334   9.174  0.1851 -0.0941 -0.1559
  623loPI   C2B 9966  16.866  14.286   8.805 -0.1381  0.3150  0.0783
  623loPI   C3B 9967  16.879  14.239   8.343  0.1987 -0.2685 -0.1540
  623loPI   C4B 9968  17.045  14.284   7.905 -0.0826 -0.2678 -0.1563
  624loPI    C1 9969   2.245   7.884  10.053  0.0296  0.4457  0.0330
  624loPI    C2 9970   2.210   7.611  10.344  0.4631 -0.0433 -0.3536
  624loPI    C3 9971   2.446   7.930  10.395  0.2425  0.0740 -0.0364
  624loPI   PO4 9972   2.331   7.691   9.778 -0.5014  0.1011 -0.0585
  624loPI   GL1 9973   2.473   7.718   9.489 -0.1027  0.4200  0.0634
  624loPI   GL2 9974   2.806   7.705   9.304  0.1281  0.1768 -0.4000
  624loPI   C1A 9975   2.360   7.548   9.087  0.0164  0.2988  0.1776
  624loPI   C2A 9976   2.323   7.398   8.664  0.1771 -0.0602  0.1613
  624loPI   C3A 9977   2.322   7.238   8.230 -0.3260 -0.3714 -0.0958
  624loPI   C4A 9978   2.145   7.200   7.865 -0.2221  0.1684  0.1411
  624loPI   C5A 9979   2.134   7.221   7.426 -0.1237 -0.7453 -0.1931
  624loPI   C6A 9980   2.424   7.411   7.089  0.4537  0.1775  0.1703
  624loPI   C1B 9981   2.695   7.766   8.848  0.1149 -0.1916  0.2685
  624loPI   C2B 9982   2.483   7.777   8.465  0.2748  0.2271 -0.1012
  624loPI   C3B 9983   2.116   7.710   8.334 -0.2084  0.3280 -0.1860
  624loPI   C4B 9984   1.880   7.314   8.371 -0.0556 -0.3091 -0.1977
  625loPI    C1 9985   2.696  14.916   9.510  0.1903 -0.2348  0.1249
  625loPI    C2 9986   2.358  14.970   9.718 -0.0657 -0.1553 -0.3007
  625loPI    C3 9987   2.652  14.745   9.869 -0.0905  0.1994  0.3055
  625loPI   PO4 9988   2.792  14.886   9.269  0.0093 -0.0556 -0.1692
  625loPI   GL1 9989   2.666  14.874   8.849  0.0600 -0.0524  0.1925
  625loPI   GL2 9990   2.934  15.221   8.891 -0.1568  0.0716 -0.1579
  625loPI   C1A 9991   2.357  15.009   8.696 -0.0473 -0.0290 -0.1316
  625loPI   C2A 9992   1.927  15.155   8.453  0.1875 -0.2014  0.1513
  625loPI   C3A 9993   1.839  15.464   8.100 -0.1896  0.0411 -0.1769
  625loPI   C4A 9994   2.003  15.624   7.691 -0.0183 -0.2205  0.1474
  625loPI   C5A 9995   2.248  15.557   7.394 -0.1063 -0.3948 -0.2890
  625loPI   C6A 9996   2.800  15.521   7.467 -0.2383  0.2230  0.2574
  625loPI   C1B 9997   3.048  15.535   8.656 -0.0471 -0.0585 -0.0245
  625loPI   C2B 9998   3.151  15.677   8.285  0.1720 -0.1681 -0.0878
  625loPI   C3B 9999   3.479  15.757   8.016  0.0433 -0.3618 -0.2089
  625loPI   C4B10000   3.712  16.162   8.021 -0.1967 -0.1151 -0.1948
  626loPI    C110001  18.941  13.377   9.723  0.0256  0.0103 -0.0203
  626loPI    C210002  19.028  13.055   9.944  0.0186 -0.0959 -0.1705
  626loPI    C310003  18.700  13.269  10.024  0.1982  0.0700  0.1405
  626loPI   PO410004  18.914  13.344   9.532  0.2447 -0.1169  0.0436
  626loPI   GL110005  18.792  13.245   9.099 -0.1990 -0.2761 -0.0695
  626loPI   GL210006  18.698  13.547   8.976  0.2261  0.1161  0.1564
  626loPI   C1A10007  18.878  13.132   8.744 -0.3049 -0.1132 -0.0829
  626loPI   C2A10008  18.842  13.130   8.345 -0.1967  0.0750 -0.2346
  626loPI   C3A10009  18.677  13.180   7.943  0.2031 -0.3167 -0.1646
  626loPI   C4A10010  18.904  13.409   7.572 -0.0338  0.2292 -0.4877
  626loPI   C5A10011  18.675  13.503   7.175  0.0699 -0.0357  0.0192
  626loPI   C6A10012  18.393  13.826   7.076 -0.0246 -0.0180  0.0929
  626loPI   C1B10013  18.553  13.904   8.805  0.0082  0.0060 -0.2683
  626loPI   C2B10014  18.330  14.020   8.326  0.0744 -0.0868 -0.1099
  626loPI   C3B10015  18.459  14.062   7.878  0.2162  0.2437 -0.1326
  626loPI   C4B10016  18.166  13.978   7.594 -0.3868  0.0426  0.1062
  627loPI    C110017  17.506  11.029   9.703  0.1560 -0.3500 -0.0614
  627loPI    C210018  17.356  10.889  10.046  0.0948  0.2717  0.1788
  627loPI    C310019  17.738  10.818   9.950  0.0091 -0.2282  0.1849
  627loPI   PO410020  17.231  10.998   9.555  0.1187 -0.2242  0.2594
  627loPI   GL110021  17.084  11.145   9.245  0.0970 -0.0895  0.0443
  627loPI   GL210022  16.775  11.163   9.157 -0.0165 -0.0725 -0.1864
  627loPI   C1A10023  17.330  11.175   8.850 -0.1217 -0.0757  0.0408
  627loPI   C2A10024  17.639  11.171   8.581  0.0985  0.0655 -0.0757
  627loPI   C3A10025  17.852  11.405   8.223  0.3225 -0.0070  0.0410
  627loPI   C4A10026  17.746  11.584   7.852  0.0200 -0.3442 -0.0329
  627loPI   C5A10027  17.420  11.710   7.485  0.1475  0.0241  0.0418
  627loPI   C6A10028  16.997  11.765   7.225 -0.1171  0.1969  0.1836
  627loPI   C1B10029  16.798  11.224   8.743 -0.0977  0.0098  0.0247
  627loPI   C2B10030  17.111  11.165   8.375  0.1198  0.1667 -0.1516
  627loPI   C3B10031  17.335  11.280   8.046  0.0123  0.2288  0.2799
  627loPI   C4B10032  17.124  11.421   7.742 -0.1279  0.1346  0.1045
  628loPI    C110033   6.390   8.420   9.889  0.2564 -0.1852  0.1323
  628loPI    C210034   6.623   8.735   9.970  0.0858 -0.0438  0.0807
  628loPI    C310035   6.390   8.579  10.256 -0.1415  0.1406 -0.0011
  628loPI   PO410036   6.350   8.380   9.623 -0.0580 -0.2130 -0.0689
  628loPI   GL110037   6.630   8.484   9.312  0.1433  0.1212  0.1637
  628loPI   GL210038   6.521   8.186   9.147 -0.0179 -0.4141 -0.1948
  628loPI   C1A10039   6.621   8.639   8.923  0.2316  0.0525 -0.4029
  628loPI   C2A10040   6.450   8.484   8.475  0.1361 -0.4671  0.0374
  628loPI   C3A10041   6.352   8.534   7.998  0.0542 -0.1959 -0.1438
  628loPI   C4A10042   6.095   8.773   7.720 -0.1342 -0.3538 -0.0143
  628loPI   C5A10043   5.795   8.949   7.437  0.1153 -0.1252 -0.2182
  628loPI   C6A10044   5.372   9.024   7.166 -0.3964 -0.2506  0.2128
  628loPI   C1B10045   6.367   8.113   8.766 -0.0671 -0.1955 -0.1225
  628loPI   C2B10046   6.098   8.193   8.487 -0.1259  0.3883  0.2141
  628loPI   C3B10047   5.781   8.226   8.132 -0.0750 -0.0947  0.2112
  628loPI   C4B10048   5.633   8.616   7.986 -0.2663  0.0437 -0.1861
  629loPI    C110049   1.342   9.021   9.398 -0.2898  0.1008 -0.0091
  629loPI    C210050   1.596   9.327   9.437 -0.2660  0.0918 -0.0918
  629loPI    C310051   1.443   9.152   9.762 -0.1007  0.0423 -0.0392
  629loPI   PO410052   1.412   8.891   9.243 -0.1155 -0.1829  0.2052
  629loPI   GL110053   1.535   8.972   8.822  0.1090  0.3242  0.1423
  629loPI   GL210054   1.390   9.139   8.607 -0.0913  0.0653  0.1048
  629loPI   C1A10055   1.892   8.964   8.453 -0.0071  0.3325  0.1349
  629loPI   C2A10056   2.197   8.657   8.312  0.1927 -0.4997  0.2631
  629loPI   C3A10057   2.326   8.537   7.849  0.3446  0.2210  0.0307
  629loPI   C4A10058   2.268   8.379   7.348 -0.0368 -0.0702  0.2433
  629loPI   C5A10059   2.367   8.280   7.020 -0.1179  0.1324  0.0774
  629loPI   C6A10060   2.696   8.331   6.734  0.1734  0.1955 -0.1344
  629loPI   C1B10061   1.480   9.397   8.309  0.1592  0.0950  0.1071
  629loPI   C2B10062   1.340   9.613   7.944 -0.0537 -0.1676  0.0317
  629loPI   C3B10063   1.495   9.715   7.583 -0.1694 -0.0761 -0.1905
  629loPI   C4B10064   1.492   9.674   7.128 -0.0453  0.2019  0.2467
  630loPI    C110065   7.426   1.045  10.473  0.1375  0.1201  0.0821
  630loPI    C210066   7.306   0.667  10.525  0.1534  0.0753 -0.1925
  630loPI    C310067   7.239   0.939  10.810 -0.2071 -0.0468 -0.1557
  630loPI   PO410068   7.338   1.158  10.191 -0.1335  0.1356 -0.1886
  630loPI   GL110069   7.158   0.988   9.919 -0.0573 -0.0234  0.1922
  630loPI   GL210070   7.355   1.169   9.593  0.1762 -0.0545  0.2452
  630loPI   C1A10071   6.882   1.174   9.663 -0.0400  0.1542 -0.2036
  630loPI   C2A10072   6.919   1.080   9.183 -0.0524 -0.2227 -0.1109
  630loPI   C3A10073   6.898   1.118   8.772  0.2472  0.0966  0.5385
  630loPI   C4A10074   6.989   1.111   8.267  0.1521  0.0032 -0.0246
  630loPI   C5A10075   6.995   1.096   7.851  0.3906 -0.2615  0.2193
  630loPI   C6A10076   6.797   0.877   7.466  0.1444  0.0780  0.0129
  630loPI   C1B10077   7.484   1.112   9.264  0.1903 -0.0864 -0.1164
  630loPI   C2B10078   7.420   1.118   8.792 -0.2713 -0.3003  0.0032
  630loPI   C3B10079   7.420   1.276   8.445  0.2257  0.1773  0.2114
  630loPI   C4B10080   7.484   1.212   7.976  0.0815 -0.4390  0.1754
  631loPI    C110081   8.025   9.197  10.069 -0.3211 -0.1485 -0.1387
  631loPI    C210082   8.066   9.591  10.014 -0.0638 -0.1296  0.1604
  631loPI    C310083   7.796   9.453  10.275 -0.0087 -0.1419  0.2111
  631loPI   PO410084   8.017   9.092   9.803 -0.2271  0.0055 -0.2024
  631loPI   GL110085   8.140   9.203   9.322  0.0049  0.4414 -0.2112
  631loPI   GL210086   8.192   8.907   9.139  0.1707  0.1746 -0.3074
  631loPI   C1A10087   8.190   9.393   8.893 -0.0194  0.3072 -0.0401
  631loPI   C2A10088   8.073   9.694   8.700  0.0750 -0.1282 -0.2252
  631loPI   C3A10089   7.861   9.823   8.374 -0.1647  0.3577 -0.1052
  631loPI   C4A10090   7.994   9.926   8.028  0.1999 -0.0692 -0.0345
  631loPI   C5A10091   7.768  10.070   7.613 -0.1754  0.1332 -0.2304
  631loPI   C6A10092   7.533  10.099   7.240 -0.1697  0.0765  0.3352
  631loPI   C1B10093   8.049   8.955   8.736 -0.0865 -0.0462  0.3003
  631loPI   C2B10094   8.129   8.906   8.377  0.1594  0.0130  0.1154
  631loPI   C3B10095   8.413   8.861   8.205 -0.0517 -0.3241  0.2914
  631loPI   C4B10096   8.676   8.487   8.019 -0.0070  0.0144 -0.0078
  632loPI    C110097  18.912  17.270   9.742 -0.1186  0.1124 -0.0180
  632loPI    C210098  18.543  17.146   9.835 -0.2135  0.2655 -0.1840
  632loPI    C310099  18.719  17.433  10.052 -0.1172  0.0640  0.0084
  632loPI   PO410100  19.086  17.161   9.480  0.0295  0.2998  0.1300
  632loPI   GL110101  19.084  17.217   8.991 -0.2171  0.1449 -0.2961
  632loPI   GL210102  19.298  16.951   9.106 -0.1753  0.0180  0.0973
  632loPI   C1A10103  18.870  17.484   8.846 -0.1267 -0.3326  0.1206
  632loPI   C2A10104  18.841  17.618   8.257 -0.1733  0.1040 -0.1312
  632loPI   C3A10105  18.768  17.582   7.833 -0.0657 -0.2111  0.1465
  632loPI   C4A10106  19.141  17.415   7.564  0.2124 -0.0621  0.1188
  632loPI   C5A10107  19.247  17.037   7.404 -0.0952  0.1083  0.3007
  632loPI   C6A10108  19.048  16.720   7.096  0.0041 -0.1987 -0.1152
  632loPI   C1B10109  19.427  16.876   8.681  0.2025 -0.0651  0.0041
  632loPI   C2B10110  19.588  16.787   8.269  0.2113  0.3171 -0.2761
  632loPI   C3B10111  19.513  16.759   7.848 -0.0096  0.2224  0.3770
  632loPI   C4B10112  19.455  16.565   7.426 -0.0300 -0.0859  0.1884
  633loPI    C110113   5.795   8.906   9.718 -0.1087 -0.1772 -0.2382
  633loPI    C210114   6.093   8.796   9.960 -0.1403 -0.0133 -0.1225
  633loPI    C310115   5.833   8.523   9.825 -0.1126 -0.1084  0.0145
  633loPI   PO410116   5.970   9.119   9.572 -0.1344 -0.1669 -0.0642
  633loPI   GL110117   6.026   9.273   9.188  0.1442  0.1608  0.0257
  633loPI   GL210118   6.246   8.999   9.064 -0.1919  0.0293 -0.1494
  633loPI   C1A10119   6.004   9.306   8.753 -0.0943 -0.1186 -0.0770
  633loPI   C2A10120   6.174   9.380   8.359 -0.0086  0.0476  0.1996
  633loPI   C3A10121   6.356   9.068   8.136  0.2155 -0.1170  0.1799
  633loPI   C4A10122   6.627   8.998   7.753 -0.1531  0.1179 -0.0161
  633loPI   C5A10123   6.662   8.833   7.246 -0.1535  0.2761  0.1845
  633loPI   C6A10124   6.664   8.477   7.052 -0.0772 -0.0493 -0.0716
  633loPI   C1B10125   6.169   8.884   8.620  0.3338  0.1032  0.0132
  633loPI   C2B10126   5.958   8.652   8.404 -0.2623  0.3183 -0.2706
  633loPI   C3B10127   5.657   8.499   8.575 -0.1478  0.1960  0.1907
  633loPI   C4B10128   5.569   8.352   8.891 -0.1400 -0.0938 -0.1884
  634loPI    C110129  16.755   4.015  10.108 -0.1622  0.1879  0.0299
  634loPI    C210130  17.084   3.878  10.289 -0.3538 -0.0148  0.2321
  634loPI    C310131  16.901   4.205  10.428 -0.0638  0.2848 -0.0718
  634loPI   PO410132  16.768   4.030   9.748  0.0324  0.1348  0.0841
  634loPI   GL110133  16.733   4.276   9.505  0.1324  0.0224  0.0943
  634loPI   GL210134  17.064   4.342   9.471 -0.0605  0.0928  0.0212
  634loPI   C1A10135  16.615   4.581   9.156 -0.2139 -0.2832 -0.0371
  634loPI   C2A10136  16.926   4.623   8.793 -0.1450 -0.1372  0.0791
  634loPI   C3A10137  17.032   4.597   8.400  0.1186  0.1889  0.4367
  634loPI   C4A10138  17.071   4.708   7.936  0.1783  0.2518 -0.1765
  634loPI   C5A10139  17.224   4.825   7.442  0.1023  0.3225  0.3738
  634loPI   C6A10140  17.106   5.018   7.053 -0.0849  0.1297 -0.2295
  634loPI   C1B10141  17.318   4.398   9.152 -0.2884 -0.0910  0.0951
  634loPI   C2B10142  17.454   4.400   8.711 -0.2901  0.1762 -0.3458
  634loPI   C3B10143  17.439   4.420   8.310 -0.2338  0.1660 -0.0431
  634loPI   C4B10144  17.597   4.801   8.087 -0.0417  0.0932 -0.1072
  635loPI    C110145  16.448  13.129  10.032  0.0744 -0.3829 -0.2140
  635loPI    C210146  16.183  12.939  10.264 -0.1316  0.3372  0.1693
  635loPI    C310147  16.514  13.095  10.425  0.0890  0.2154 -0.1558
  635loPI   PO410148  16.360  13.226   9.849  0.1098 -0.2575 -0.2278
  635loPI   GL110149  16.431  13.171   9.510  0.0679  0.0610 -0.0921
  635loPI   GL210150  16.613  13.389   9.407  0.4008  0.0333 -0.0507
  635loPI   C1A10151  16.294  13.210   9.096  0.2833  0.0291 -0.0429
  635loPI   C2A10152  16.252  13.179   8.694  0.1001 -0.2835  0.0813
  635loPI   C3A10153  16.067  13.111   8.231  0.1161 -0.2569 -0.2055
  635loPI   C4A10154  16.039  13.082   7.762  0.3115 -0.1118 -0.0601
  635loPI   C5A10155  15.819  12.752   7.393  0.2433 -0.1221  0.1494
  635loPI   C6A10156  15.359  12.611   7.243  0.0495 -0.1410  0.0241
  635loPI   C1B10157  16.943  13.300   9.165  0.0594  0.0554 -0.0089
  635loPI   C2B10158  16.823  13.261   8.704  0.0441 -0.0213 -0.1590
  635loPI   C3B10159  16.605  13.326   8.308 -0.2314  0.2660 -0.1434
  635loPI   C4B10160  16.268  13.466   7.995  0.1385 -0.0670  0.0312
  636loPI    C110161   0.511  11.144   9.284 -0.1370 -0.1026  0.0871
  636loPI    C210162   0.904  11.108   9.352 -0.0225 -0.0594 -0.5012
  636loPI    C310163   0.661  10.797   9.414  0.0716 -0.0355  0.0298
  636loPI   PO410164   0.519  11.309   9.087 -0.1677  0.0794  0.1446
  636loPI   GL110165   0.422  11.559   8.746  0.0322 -0.2241  0.1760
  636loPI   GL210166   0.635  11.736   8.775  0.0627 -0.2246 -0.3093
  636loPI   C1A10167   0.726  11.614   8.304  0.1148 -0.1385 -0.1700
  636loPI   C2A10168   0.905  11.567   7.940  0.0042  0.0075  0.1562
  636loPI   C3A10169   0.793  11.702   7.546  0.0281  0.0394  0.1011
  636loPI   C4A10170   0.435  11.947   7.242  0.0840 -0.2664  0.0999
  636loPI   C5A10171   0.064  11.857   7.028  0.0033  0.1377  0.0440
  636loPI   C6A10172  -0.392  11.938   7.031  0.0881 -0.1566 -0.0465
  636loPI   C1B10173   0.617  12.085   8.368 -0.3302 -0.1762  0.2453
  636loPI   C2B10174   0.635  12.066   7.951  0.0123 -0.1029 -0.0445
  636loPI   C3B10175   0.487  12.308   7.520 -0.1080 -0.0094 -0.0288
  636loPI   C4B10176   0.668  12.388   7.043  0.1073  0.0796  0.0290
  637loPI    C110177   2.897  11.214   9.481 -0.1334 -0.2372 -0.0661
  637loPI    C210178   2.694  11.263   9.821 -0.0389  0.0064 -0.0433
  637loPI    C310179   3.075  11.381   9.797 -0.0065 -0.1263 -0.1949
  637loPI   PO410180   2.744  10.978   9.395 -0.0208  0.1547  0.1262
  637loPI   GL110181   2.816  10.712   9.031  0.1423 -0.1343  0.2383
  637loPI   GL210182   2.971  10.918   8.832  0.3020  0.2488 -0.0079
  637loPI   C1A10183   2.573  10.612   8.630 -0.4494  0.0634 -0.0621
  637loPI   C2A10184   2.464  10.643   8.178  0.0213  0.1287 -0.0194
  637loPI   C3A10185   2.386  11.036   7.846  0.1499  0.1712 -0.0420
  637loPI   C4A10186   2.235  11.017   7.393  0.0828 -0.2091 -0.2450
  637loPI   C5A10187   2.106  11.400   7.049 -0.0197  0.0668  0.3889
  637loPI   C6A10188   1.885  11.548   6.704  0.1140 -0.2679 -0.0441
  637loPI   C1B10189   3.112  10.963   8.414  0.2076  0.1950  0.0507
  637loPI   C2B10190   3.387  10.991   8.092  0.6576  0.1212 -0.3185
  637loPI   C3B10191   3.206  10.750   7.727  0.0204 -0.1599 -0.0941
  637loPI   C4B10192   2.866  10.837   7.453  0.1531  0.0100 -0.1931
  638loPI    C110193  11.878  15.571  10.212 -0.2102  0.0201  0.1536
  638loPI    C210194  11.937  15.965  10.249  0.3092 -0.0412  0.0514
  638loPI    C310195  12.013  15.721  10.557 -0.2620 -0.0428  0.2016
  638loPI   PO410196  11.828  15.569   9.907 -0.0706 -0.2058 -0.0815
  638loPI   GL110197  11.842  15.327   9.567  0.1228  0.1904 -0.3776
  638loPI   GL210198  11.709  15.572   9.380 -0.2880  0.2102  0.2046
  638loPI   C1A10199  11.625  15.098   9.237  0.1212  0.2384  0.1127
  638loPI   C2A10200  11.559  15.016   8.888 -0.0782 -0.0479  0.1054
  638loPI   C3A10201  11.533  15.167   8.427  0.0205 -0.2858 -0.0276
  638loPI   C4A10202  11.526  15.139   8.055  0.2791 -0.2564 -0.1887
  638loPI   C5A10203  11.511  15.287   7.618 -0.0258  0.0143 -0.0692
  638loPI   C6A10204  11.805  15.463   7.240 -0.1326  0.3601  0.1837
  638loPI   C1B10205  11.840  15.468   8.985 -0.1663  0.1347  0.1757
  638loPI   C2B10206  11.652  15.705   8.667 -0.2534 -0.2072  0.0411
  638loPI   C3B10207  11.485  15.644   8.239  0.3927 -0.0931 -0.0941
  638loPI   C4B10208  11.254  15.639   7.804  0.1981  0.0504 -0.2601
  639loPI    C110209  12.626   0.918  10.120 -0.1286  0.0488  0.2905
  639loPI    C210210  12.984   0.865   9.950 -0.1727 -0.0622  0.2311
  639loPI    C310211  12.950   0.866  10.349 -0.1219 -0.1576  0.2360
  639loPI   PO410212  12.548   1.119   9.884 -0.2309  0.0662  0.0108
  639loPI   GL110213  12.683   1.056   9.441 -0.1256  0.0996 -0.0463
  639loPI   GL210214  12.406   0.851   9.438 -0.1669  0.0694 -0.1013
  639loPI   C1A10215  13.066   1.217   9.274  0.3180  0.0235  0.1485
  639loPI   C2A10216  13.224   1.412   8.848 -0.0427  0.0035 -0.0652
  639loPI   C3A10217  13.556   1.404   8.505 -0.0174  0.1405 -0.2211
  639loPI   C4A10218  13.499   1.545   8.007  0.0294 -0.3679 -0.3027
  639loPI   C5A10219  13.371   1.252   7.720  0.1471 -0.2995 -0.3020
  639loPI   C6A10220  13.252   0.860   7.546 -0.0264  0.1221 -0.1574
  639loPI   C1B10221  12.401   0.778   8.995 -0.0141 -0.0192 -0.2109
  639loPI   C2B10222  12.357   0.954   8.530 -0.0592  0.0673  0.1201
  639loPI   C3B10223  12.709   1.022   8.307  0.2147  0.0307 -0.2493
  639loPI   C4B10224  13.158   1.290   8.235  0.1596  0.2132  0.1879
  640loPI    C110225  18.665  13.845   9.803 -0.2306  0.1413  0.0619
  640loPI    C210226  18.627  14.028  10.156 -0.0230  0.1993  0.0556
  640loPI    C310227  18.925  13.768  10.097 -0.0833  0.1565 -0.0630
  640loPI   PO410228  18.452  14.027   9.656  0.0883  0.2266 -0.1411
  640loPI   GL110229  18.531  14.382   9.307  0.2727  0.1946 -0.0867
  640loPI   GL210230  18.791  14.447   9.100  0.2673  0.0314  0.1197
  640loPI   C1A10231  18.225  14.231   9.043  0.0941  0.0609 -0.0993
  640loPI   C2A10232  18.188  14.375   8.629  0.2284 -0.0829  0.2358
  640loPI   C3A10233  18.324  14.574   8.262 -0.1804 -0.1026 -0.0954
  640loPI   C4A10234  18.558  14.553   7.934  0.1696 -0.1135  0.1439
  640loPI   C5A10235  18.664  14.382   7.513  0.0323 -0.1767  0.1748
  640loPI   C6A10236  18.717  14.277   7.205 -0.2525 -0.1703 -0.0309
  640loPI   C1B10237  18.701  14.444   8.659 -0.1006 -0.0909  0.0826
  640loPI   C2B10238  18.877  14.581   8.332  0.0181  0.0523  0.3962
  640loPI   C3B10239  19.116  15.001   8.113  0.0825 -0.3903 -0.2628
  640loPI   C4B10240  19.091  15.316   7.763  0.1169  0.0673  0.1303
  641loPI    C110241  18.104  14.958  10.369 -0.1206 -0.1619 -0.0031
  641loPI    C210242  18.009  15.341  10.302  0.2550 -0.0914 -0.1558
  641loPI    C310243  18.228  15.242  10.622 -0.0411 -0.2111  0.0134
  641loPI   PO410244  18.247  14.900  10.029 -0.1592  0.1272 -0.0382
  641loPI   GL110245  18.275  14.988   9.631  0.0803 -0.0648 -0.0213
  641loPI   GL210246  18.177  15.277   9.454 -0.0008 -0.0994  0.0781
  641loPI   C1A10247  18.520  14.872   9.332 -0.3440 -0.1045 -0.0138
  641loPI   C2A10248  18.499  14.844   8.883 -0.0766 -0.1326  0.1452
  641loPI   C3A10249  18.242  15.131   8.593  0.0533  0.1490 -0.0624
  641loPI   C4A10250  18.023  15.105   8.239 -0.3367  0.1318 -0.0648
  641loPI   C5A10251  18.178  14.978   7.797  0.5179  0.0594 -0.1019
  641loPI   C6A10252  18.317  14.829   7.388 -0.1519 -0.2129  0.0732
  641loPI   C1B10253  18.218  15.539   9.124 -0.1222  0.0177  0.2347
  641loPI   C2B10254  17.996  15.602   8.730 -0.0616 -0.3568  0.4659
  641loPI   C3B10255  17.706  15.549   8.311 -0.0997 -0.1191 -0.1047
  641loPI   C4B10256  17.397  15.531   8.008  0.1871 -0.2380  0.0864
  642loPI    C110257  12.386   7.457  10.139  0.0953 -0.0768 -0.0788
  642loPI    C210258  12.120   7.308  10.398 -0.1850 -0.0134 -0.3245
  642loPI    C310259  12.478   7.432  10.527 -0.1829 -0.3181 -0.0251
  642loPI   PO410260  12.395   7.289   9.908  0.0543 -0.1683 -0.1885
  642loPI   GL110261  12.592   7.107   9.451 -0.0955  0.3319  0.2014
  642loPI   GL210262  12.980   6.888   9.538  0.0146 -0.0448  0.1006
  642loPI   C1A10263  12.585   7.251   9.085  0.1075 -0.0641 -0.1265
  642loPI   C2A10264  12.697   7.576   8.740  0.1515  0.0152  0.0636
  642loPI   C3A10265  12.734   7.703   8.324  0.0022  0.1734 -0.2356
  642loPI   C4A10266  12.839   7.565   7.932  0.1729 -0.1098  0.2257
  642loPI   C5A10267  12.714   7.349   7.510  0.0312 -0.4184  0.0094
  642loPI   C6A10268  12.731   7.512   7.032 -0.0561  0.0283 -0.1984
  642loPI   C1B10269  12.811   6.782   9.198  0.0461 -0.0467 -0.1583
  642loPI   C2B10270  12.529   6.725   8.829 -0.3977 -0.3242  0.0801
  642loPI   C3B10271  12.155   6.826   8.786 -0.1557  0.0368 -0.0308
  642loPI   C4B10272  11.765   7.076   8.713 -0.0183 -0.0142  0.1027
  643loPI    C110273  17.125   2.186   9.635 -0.1276  0.0121 -0.2425
  643loPI    C210274  17.008   2.508   9.842 -0.0932  0.0884 -0.3412
  643loPI    C310275  17.351   2.516   9.637  0.0381 -0.1009 -0.1322
  643loPI   PO410276  16.989   2.131   9.407  0.0359  0.2007 -0.0980
  643loPI   GL110277  17.061   2.351   9.155 -0.3287 -0.1998  0.2811
  643loPI   GL210278  16.830   2.143   8.966  0.0812 -0.1400 -0.0736
  643loPI   C1A10279  16.735   2.664   8.943 -0.3966  0.1049  0.0567
  643loPI   C2A10280  16.489   2.694   8.544 -0.0336 -0.2424  0.1508
  643loPI   C3A10281  16.283   2.846   8.223 -0.0841 -0.3742  0.2250
  643loPI   C4A10282  15.940   2.830   8.062 -0.0847 -0.0409 -0.1318
  643loPI   C5A10283  15.577   2.953   7.785  0.0404  0.0788  0.0280
  643loPI   C6A10284  15.230   2.875   7.389  0.0636 -0.1725  0.0880
  643loPI   C1B10285  16.760   1.979   8.605 -0.5507 -0.0886  0.1375
  643loPI   C2B10286  16.840   1.950   8.178  0.1723  0.0444  0.2191
  643loPI   C3B10287  16.729   1.815   7.881 -0.2769 -0.2619 -0.1792
  643loPI   C4B10288  16.645   1.798   7.507  0.2507 -0.2216 -0.1600
  644loPI    C110289  19.377  13.717   9.711  0.2372 -0.0729 -0.0781
  644loPI    C210290  19.547  13.356   9.744  0.1987 -0.0885 -0.0500
  644loPI    C310291  19.331  13.504  10.047  0.3294  0.0176 -0.0078
  644loPI   PO410292  19.308  13.716   9.409 -0.1051 -0.1176  0.2105
  644loPI   GL110293  19.538  13.744   9.002 -0.0539 -0.0749 -0.0068
  644loPI   GL210294  19.253  13.671   8.941  0.0073  0.4052 -0.0429
  644loPI   C1A10295  19.583  13.913   8.630 -0.0180 -0.1774  0.1982
  644loPI   C2A10296  19.578  13.898   8.107  0.1321  0.0501 -0.1602
  644loPI   C3A10297  19.720  14.012   7.753 -0.3575  0.1874 -0.1088
  644loPI   C4A10298  19.705  14.079   7.359  0.0412  0.0982  0.0818
  644loPI   C5A10299  19.623  14.478   7.079 -0.0221  0.2292  0.0383
  644loPI   C6A10300  19.384  14.833   6.890  0.3367 -0.0816  0.1796
  644loPI   C1B10301  19.024  13.932   8.580  0.0492  0.0951 -0.1946
  644loPI   C2B10302  18.831  14.079   8.268 -0.1037 -0.3391  0.1900
  644loPI   C3B10303  19.003  14.214   7.830  0.1951 -0.1796  0.0888
  644loPI   C4B10304  19.036  14.652   7.795 -0.1502  0.2923  0.0774
  645loPI    C110305   8.603   7.197   9.981 -0.0512 -0.0662 -0.0804
  645loPI    C210306   8.752   6.965  10.271  0.1167  0.2009  0.0503
  645loPI    C310307   8.356   6.991  10.219  0.0864  0.1318  0.2401
  645loPI   PO410308   8.805   7.342   9.974  0.0890  0.0513  0.0989
  645loPI   GL110309   8.768   7.576   9.653 -0.1198 -0.0685  0.0821
  645loPI   GL210310   8.697   7.826   9.391  0.1204 -0.4374 -0.2517
  645loPI   C1A10311   9.126   7.500   9.352  0.1290  0.2426  0.1732
  645loPI   C2A10312   9.312   7.472   9.008 -0.0517 -0.4774 -0.3589
  645loPI   C3A10313   9.313   7.517   8.518  0.2357  0.3070  0.2780
  645loPI   C4A10314   9.152   7.264   8.046 -0.0244  0.0912 -0.2233
  645loPI   C5A10315   9.141   7.344   7.577 -0.0138  0.1104  0.0974
  645loPI   C6A10316   8.900   7.172   7.213  0.2019 -0.2705  0.0685
  645loPI   C1B10317   8.686   7.838   9.065  0.0137 -0.0287  0.1549
  645loPI   C2B10318   8.609   7.852   8.612  0.2533 -0.1546 -0.0994
  645loPI   C3B10319   8.505   8.274   8.469 -0.0133  0.0489 -0.0208
  645loPI   C4B10320   8.553   8.746   8.644 -0.0919 -0.2169 -0.3534
  646loPI    C110321   3.272  16.366   9.924  0.0009 -0.0381  0.1933
  646loPI    C210322   3.446  16.534  10.242 -0.1941 -0.0102  0.2863
  646loPI    C310323   3.111  16.691  10.091 -0.0892 -0.0090  0.0514
  646loPI   PO410324   3.422  16.334   9.760 -0.0899  0.0166  0.1060
  646loPI   GL110325   3.472  16.443   9.340  0.1369  0.3029  0.2150
  646loPI   GL210326   3.713  16.645   9.338 -0.4017  0.2426 -0.0870
  646loPI   C1A10327   3.629  16.333   9.007 -0.0217 -0.0399 -0.1293
  646loPI   C2A10328   3.700  16.406   8.653  0.0682 -0.3453  0.1043
  646loPI   C3A10329   3.522  16.611   8.304 -0.1512  0.0361 -0.1000
  646loPI   C4A10330   3.394  16.567   7.904 -0.2432 -0.1682 -0.0979
  646loPI   C5A10331   3.451  16.949   7.717 -0.0097  0.2696  0.2039
  646loPI   C6A10332   3.144  17.310   7.618  0.2937  0.1266 -0.4618
  646loPI   C1B10333   3.849  16.851   8.988  0.0427  0.2259 -0.1123
  646loPI   C2B10334   3.942  16.828   8.519  0.0117  0.1659  0.2160
  646loPI   C3B10335   3.923  16.776   8.041 -0.3161 -0.2736 -0.0600
  646loPI   C4B10336   3.964  16.819   7.630  0.0646 -0.0835 -0.1105
  647loPI    C110337  18.955  12.041   9.676  0.1202 -0.2759 -0.2035
  647loPI    C210338  18.921  11.836  10.019  0.0103 -0.1099 -0.1140
  647loPI    C310339  19.228  12.088   9.965  0.0275 -0.1360 -0.1378
  647loPI   PO410340  18.848  11.837   9.457  0.0119 -0.2438  0.0451
  647loPI   GL110341  18.583  11.701   9.135  0.2725 -0.2278  0.3047
  647loPI   GL210342  18.603  11.365   8.955  0.2103  0.0000 -0.2011
  647loPI   C1A10343  18.515  11.800   8.770 -0.0036  0.3591 -0.1424
  647loPI   C2A10344  18.319  11.893   8.398  0.0858 -0.1392  0.3669
  647loPI   C3A10345  18.112  11.968   8.062  0.1170 -0.0057 -0.0518
  647loPI   C4A10346  17.951  11.945   7.637 -0.0426 -0.0441 -0.0608
  647loPI   C5A10347  17.614  12.147   7.415 -0.0581 -0.0032 -0.0988
  647loPI   C6A10348  17.428  12.134   6.952 -0.1602 -0.0149 -0.0173
  647loPI   C1B10349  18.775  11.368   8.582  0.1484 -0.3918 -0.0874
  647loPI   C2B10350  18.931  11.698   8.375 -0.2690  0.5024  0.0852
  647loPI   C3B10351  19.247  12.034   8.243 -0.4859 -0.1578 -0.0177
  647loPI   C4B10352  19.615  12.164   7.973  0.2751 -0.2671 -0.0189
  648loPI    C110353   4.375   3.621  10.030 -0.2641 -0.0223  0.1895
  648loPI    C210354   4.610   3.414  10.279 -0.0410  0.1783  0.1500
  648loPI    C310355   4.388   3.716  10.418 -0.0987  0.1377  0.1464
  648loPI   PO410356   4.519   3.671   9.808  0.3731  0.1023  0.2064
  648loPI   GL110357   4.528   3.708   9.458 -0.1197 -0.1196  0.1862
  648loPI   GL210358   4.851   3.586   9.395  0.0183  0.2570 -0.0016
  648loPI   C1A10359   4.363   3.757   9.025 -0.2577  0.0395  0.2932
  648loPI   C2A10360   4.340   3.748   8.550  0.0376  0.1676  0.1107
  648loPI   C3A10361   4.292   3.705   8.127  0.3283  0.0680  0.1861
  648loPI   C4A10362   4.339   3.509   7.668  0.0780 -0.0965 -0.1886
  648loPI   C5A10363   4.274   3.691   7.264 -0.1400  0.1956 -0.0446
  648loPI   C6A10364   4.580   3.988   7.200  0.0486 -0.2831 -0.0397
  648loPI   C1B10365   4.900   3.704   8.995 -0.0423 -0.0702 -0.1801
  648loPI   C2B10366   4.945   3.691   8.605  0.3249 -0.0466  0.0936
  648loPI   C3B10367   4.789   3.763   8.205  0.0262  0.0285  0.3304
  648loPI   C4B10368   4.880   3.867   7.758 -0.0870  0.1006 -0.0705
  649loPI    C110369  18.396   8.363   9.634  0.0505  0.2204 -0.2270
  649loPI    C210370  18.783   8.434   9.704  0.0425  0.1096 -0.0659
  649loPI    C310371  18.627   8.075   9.788 -0.1063  0.1698 -0.0826
  649loPI   PO410372  18.345   8.465   9.497 -0.0066  0.0847  0.1546
  649loPI   GL110373  18.343   8.516   9.030 -0.2932 -0.2462 -0.1584
  649loPI   GL210374  18.044   8.265   9.015  0.0415  0.1995 -0.1898
  649loPI   C1A10375  18.185   8.659   8.645 -0.1701  0.0390 -0.3379
  649loPI   C2A10376  18.121   8.949   8.365 -0.0829 -0.0766 -0.0987
  649loPI   C3A10377  18.101   8.953   7.924 -0.3350  0.1291  0.0200
  649loPI   C4A10378  18.136   8.799   7.573  0.0546 -0.2051  0.0348
  649loPI   C5A10379  18.009   8.609   7.235  0.3034 -0.1995  0.1903
  649loPI   C6A10380  17.538   8.647   7.147  0.2724 -0.2856 -0.2290
  649loPI   C1B10381  18.359   8.079   8.680 -0.3709  0.1176 -0.0267
  649loPI   C2B10382  18.317   8.046   8.201 -0.2570  0.2584  0.0849
  649loPI   C3B10383  18.574   8.012   7.880  0.2824 -0.5098 -0.3535
  649loPI   C4B10384  18.784   7.896   7.481  0.0549 -0.0732 -0.1219
  650loPI    C110385  11.404  13.941  10.109 -0.0791  0.1375 -0.1734
  650loPI    C210386  11.626  14.171   9.868  0.0617  0.0108 -0.1660
  650loPI    C310387  11.669  14.197  10.264  0.1217 -0.0713 -0.1669
  650loPI   PO410388  11.156  13.988   9.954 -0.2195 -0.0331  0.2692
  650loPI   GL110389  11.163  14.088   9.498  0.1340 -0.2740 -0.1457
  650loPI   GL210390  11.387  14.337   9.394  0.1011 -0.0456  0.1905
  650loPI   C1A10391  10.990  14.163   9.131 -0.0904  0.0859 -0.1575
  650loPI   C2A10392  10.843  14.101   8.744  0.1171  0.1021 -0.1374
  650loPI   C3A10393  10.714  14.114   8.322 -0.0738 -0.0059 -0.2407
  650loPI   C4A10394  10.810  14.225   7.854 -0.0102 -0.0585  0.0582
  650loPI   C5A10395  10.880  14.606   7.816  0.0034  0.3905 -0.0758
  650loPI   C6A10396  11.324  14.772   7.690  0.0624  0.4209  0.0389
  650loPI   C1B10397  11.332  14.541   8.968 -0.0121 -0.2246 -0.0550
  650loPI   C2B10398  11.156  14.759   8.613 -0.0070 -0.2261  0.0823
  650loPI   C3B10399  11.048  14.908   8.154  0.1065  0.2751  0.2576
  650loPI   C4B10400  11.047  15.173   7.814  0.6282  0.0779 -0.4137
  651loPI    C110401   3.996  17.042  10.001  0.2626  0.0705  0.1355
  651loPI    C210402   4.031  17.065  10.399  0.0120  0.1253  0.1558
  651loPI    C310403   3.884  16.734  10.231  0.0755  0.1194  0.1114
  651loPI   PO410404   4.067  17.256   9.923 -0.1128  0.1760 -0.1171
  651loPI   GL110405   3.954  17.476   9.594 -0.3683  0.1446 -0.1067
  651loPI   GL210406   3.862  17.109   9.502 -0.1691 -0.3421  0.1143
  651loPI   C1A10407   4.328  17.634   9.314  0.0513  0.2822  0.0205
  651loPI   C2A10408   4.412  17.723   8.836  0.1054  0.0462  0.0328
  651loPI   C3A10409   4.398  17.817   8.503  0.0142  0.2040 -0.1786
  651loPI   C4A10410   4.354  17.807   8.098 -0.3202  0.2891  0.0539
  651loPI   C5A10411   4.571  17.585   7.783 -0.1615  0.2216  0.0273
  651loPI   C6A10412   4.914  17.614   7.440  0.0378  0.1970 -0.1539
  651loPI   C1B10413   3.677  17.264   9.169 -0.2136  0.0105 -0.0014
  651loPI   C2B10414   3.662  17.329   8.692 -0.2181  0.3547 -0.4343
  651loPI   C3B10415   3.431  17.584   8.454  0.1872 -0.0505 -0.0315
  651loPI   C4B10416   3.098  17.849   8.383  0.1398  0.0764 -0.0469
  652loPI    C110417  10.362  14.987   9.840 -0.1257 -0.1666 -0.1290
  652loPI    C210418  10.408  15.228  10.156 -0.1204 -0.0059 -0.2510
  652loPI    C310419  10.116  14.955  10.154  0.0111 -0.1525 -0.0193
  652loPI   PO410420  10.387  15.078   9.644 -0.0456 -0.2454 -0.0984
  652loPI   GL110421  10.221  15.356   9.345  0.1936 -0.1366 -0.0857
  652loPI   GL210422  10.276  15.625   9.023  0.1572  0.2355  0.1581
  652loPI   C1A10423  10.004  15.096   9.052 -0.3651 -0.5001 -0.0430
  652loPI   C2A10424   9.814  15.084   8.742  0.0628 -0.0118 -0.0930
  652loPI   C3A10425   9.587  15.074   8.230 -0.1217  0.0415 -0.1340
  652loPI   C4A10426   9.349  15.186   7.751  0.0446 -0.0641  0.3879
  652loPI   C5A10427   8.985  15.358   7.567  0.1214  0.2795  0.2367
  652loPI   C6A10428   8.838  15.000   7.774 -0.0942  0.1027 -0.0410
  652loPI   C1B10429  10.176  15.451   8.693  0.0670  0.3252  0.4106
  652loPI   C2B10430  10.066  15.272   8.299  0.2022 -0.1142  0.0792
  652loPI   C3B10431  10.004  15.128   7.858 -0.0164  0.2245 -0.0413
  652loPI   C4B10432  10.142  15.372   7.501 -0.1364 -0.4771  0.2517
  653loPI    C110433  10.171  11.140  10.093  0.0694 -0.0586  0.0429
  653loPI    C210434  10.458  10.962  10.308  0.2185  0.1246 -0.0017
  653loPI    C310435  10.281  11.294  10.445 -0.0507 -0.0479  0.0761
  653loPI   PO410436  10.279  11.020   9.835  0.1891  0.0668 -0.0613
  653loPI   GL110437  10.316  10.875   9.354  0.2418  0.0124  0.0409
  653loPI   GL210438  10.664  10.961   9.369 -0.2284 -0.1532 -0.2278
  653loPI   C1A10439  10.359  11.085   8.967 -0.0849 -0.0716 -0.1544
  653loPI   C2A10440  10.175  11.287   8.681  0.2734 -0.0760 -0.0720
  653loPI   C3A10441  10.134  11.442   8.226 -0.2305  0.1972  0.3349
  653loPI   C4A10442  10.090  11.343   7.860  0.0196 -0.0574 -0.1633
  653loPI   C5A10443  10.210  11.109   7.568 -0.2472  0.0731  0.0277
  653loPI   C6A10444  10.244  10.728   7.302  0.1647 -0.1916  0.2408
  653loPI   C1B10445  10.847  11.023   8.895  0.2224  0.5572 -0.3894
  653loPI   C2B10446  10.686  11.042   8.550  0.2378  0.1108 -0.3730
  653loPI   C3B10447  11.142  11.014   8.193  0.2281 -0.1386 -0.2695
  653loPI   C4B10448  11.167  11.022   7.763 -0.3483 -0.0974  0.1321
  654loPI    C110449   8.534   9.020  10.189 -0.0240 -0.0427 -0.0326
  654loPI    C210450   8.279   8.773  10.374 -0.0098 -0.2206 -0.2453
  654loPI    C310451   8.629   8.865  10.545 -0.0836 -0.2205 -0.0925
  654loPI   PO410452   8.602   8.976   9.865 -0.1776 -0.2218 -0.1232
  654loPI   GL110453   8.636   8.858   9.314 -0.2250 -0.2329 -0.4850
  654loPI   GL210454   8.886   8.665   9.243  0.1233  0.0819 -0.1160
  654loPI   C1A10455   8.627   9.076   8.968  0.3837 -0.1060  0.3073
  654loPI   C2A10456   8.506   9.227   8.510 -0.2830  0.0679 -0.0024
  654loPI   C3A10457   8.644   9.315   8.124 -0.2842 -0.1360  0.2041
  654loPI   C4A10458   8.519   9.128   7.803 -0.1680 -0.1457  0.2965
  654loPI   C5A10459   8.614   8.782   7.484  0.0218 -0.1021 -0.0633
  654loPI   C6A10460   8.785   8.422   7.513  0.1891  0.0798  0.0017
  654loPI   C1B10461   9.166   8.489   8.997  0.0860 -0.1389  0.0088
  654loPI   C2B10462   9.507   8.446   8.600 -0.1333  0.1695  0.0417
  654loPI   C3B10463   9.376   8.111   8.346  0.1110  0.0796 -0.2624
  654loPI   C4B10464   9.310   7.763   8.074  0.1158 -0.1266  0.0089
  655loPI    C110465  11.035  11.419   9.909 -0.0458  0.3799  0.1713
  655loPI    C210466  10.713  11.365  10.141 -0.2292 -0.1057 -0.1799
  655loPI    C310467  11.042  11.146  10.201 -0.1031  0.1096 -0.0754
  655loPI   PO410468  10.914  11.429   9.678  0.4015 -0.1333 -0.2586
  655loPI   GL110469  10.824  11.425   9.284  0.1947 -0.3080 -0.2213
  655loPI   GL210470  11.121  11.349   9.200 -0.1813  0.2631 -0.1305
  655loPI   C1A10471  10.666  11.560   8.876 -0.0618  0.2775  0.0451
  655loPI   C2A10472  10.507  11.681   8.467 -0.2152  0.2805  0.2463
  655loPI   C3A10473  10.566  11.720   8.087  0.1479 -0.2342 -0.0440
  655loPI   C4A10474  10.550  11.541   7.703 -0.1968 -0.2354  0.0754
  655loPI   C5A10475  10.355  11.639   7.281  0.0047 -0.0680 -0.1424
  655loPI   C6A10476  10.014  11.744   6.954  0.3467 -0.0630 -0.2555
  655loPI   C1B10477  11.204  11.417   8.777  0.2419 -0.1027  0.2269
  655loPI   C2B10478  10.987  11.442   8.397  0.2448 -0.2442  0.2000
  655loPI   C3B10479  11.068  11.481   7.896 -0.2017  0.0764  0.1500
  655loPI   C4B10480  11.020  11.607   7.491 -0.0121 -0.0712 -0.0740
  656loPI    C110481  13.319  13.692   9.915  0.0641 -0.1960  0.2506
  656loPI    C210482  13.660  13.494   9.846  0.1799  0.1602 -0.2637
  656loPI    C310483  13.670  13.858  10.011  0.0299  0.0926 -0.1016
  656loPI   PO410484  13.185  13.685   9.726 -0.0928  0.0859 -0.1438
  656loPI   GL110485  13.046  13.925   9.481 -0.1141  0.1408 -0.0677
  656loPI   GL210486  12.685  13.935   9.303  0.0481  0.0811 -0.1960
  656loPI   C1A10487  13.249  13.941   9.051  0.1729 -0.0408  0.0585
  656loPI   C2A10488  13.294  13.668   8.672 -0.2722  0.4682 -0.2491
  656loPI   C3A10489  13.452  13.581   8.220 -0.1221 -0.2287  0.1102
  656loPI   C4A10490  13.523  13.488   7.854  0.1786 -0.0279 -0.3553
  656loPI   C5A10491  13.310  13.460   7.486 -0.0311  0.1197 -0.0044
  656loPI   C6A10492  12.947  13.380   7.273  0.0591 -0.1694 -0.0482
  656loPI   C1B10493  12.544  14.016   8.798  0.4257  0.0454 -0.2034
  656loPI   C2B10494  12.570  14.041   8.408 -0.1953  0.3376  0.1166
  656loPI   C3B10495  12.561  13.919   8.049 -0.2110 -0.0017  0.1319
  656loPI   C4B10496  12.796  13.715   7.668 -0.0039 -0.1139  0.1049
  657loPI    C110497  13.753  18.071  10.299  0.0069 -0.1827  0.1498
  657loPI    C210498  13.892  17.833  10.589 -0.1633 -0.1934  0.2233
  657loPI    C310499  13.655  18.142  10.680 -0.1316 -0.1339  0.1055
  657loPI   PO410500  13.881  18.012  10.075  0.2977  0.1011 -0.0887
  657loPI   GL110501  14.044  17.874   9.784  0.2805  0.0348 -0.0913
  657loPI   GL210502  13.722  17.724   9.622 -0.1969  0.1577  0.1622
  657loPI   C1A10503  14.322  17.938   9.478 -0.0931  0.2040  0.2007
  657loPI   C2A10504  14.487  17.948   9.002  0.0602 -0.1020  0.2645
  657loPI   C3A10505  14.670  17.841   8.637  0.0934 -0.1318 -0.1017
  657loPI   C4A10506  14.801  17.863   8.192  0.0555  0.1412 -0.1204
  657loPI   C5A10507  14.469  17.872   7.803 -0.2150  0.2339  0.4107
  657loPI   C6A10508  14.153  17.627   7.605  0.4169  0.1205  0.2401
  657loPI   C1B10509  13.823  17.637   9.169 -0.1106  0.0706  0.0745
  657loPI   C2B10510  14.136  17.690   8.822  0.2852 -0.2138  0.1923
  657loPI   C3B10511  14.241  17.759   8.410 -0.0456  0.1083 -0.1294
  657loPI   C4B10512  14.085  17.530   8.073 -0.1361  0.1277 -0.0558
  658loPI    C110513  16.571  12.049   9.810  0.0252  0.0973 -0.2318
  658loPI    C210514  16.962  11.966   9.838 -0.0417 -0.1112  0.1694
  658loPI    C310515  16.768  12.123  10.151 -0.2106  0.3190 -0.1407
  658loPI   PO410516  16.423  11.795   9.703 -0.0797  0.3569  0.2012
  658loPI   GL110517  16.231  11.754   9.355 -0.1481 -0.0239 -0.0212
  658loPI   GL210518  16.405  11.528   9.299  0.4213 -0.1839 -0.0707
  658loPI   C1A10519  16.213  12.015   8.918  0.1043 -0.0873 -0.1205
  658loPI   C2A10520  16.059  12.115   8.484 -0.0633  0.2560 -0.3722
  658loPI   C3A10521  15.731  12.284   8.336 -0.0187 -0.1536  0.2316
  658loPI   C4A10522  15.529  12.082   8.062  0.0534 -0.0056 -0.0500
  658loPI   C5A10523  15.340  12.010   7.707 -0.0490  0.2241  0.1104
  658loPI   C6A10524  14.962  11.952   7.617  0.0921 -0.1775 -0.0202
  658loPI   C1B10525  16.561  11.595   8.965 -0.1715  0.0331 -0.1044
  658loPI   C2B10526  16.667  11.914   8.667 -0.3921  0.2162  0.0756
  658loPI   C3B10527  16.974  12.149   8.443 -0.0920 -0.1789 -0.2142
  658loPI   C4B10528  17.337  12.190   8.446  0.1073 -0.2567 -0.0644
  659loPI    C110529   8.997   0.709  10.417 -0.0889 -0.0307 -0.0294
  659loPI    C210530   8.734   0.543  10.669  0.0360 -0.1671  0.0131
  659loPI    C310531   9.090   0.665  10.804 -0.0351  0.0926 -0.0279
  659loPI   PO410532   8.908   0.528  10.111 -0.1119  0.0130 -0.0321
  659loPI   GL110533   8.824   0.542   9.740  0.2523 -0.0550 -0.0110
  659loPI   GL210534   9.052   0.426   9.580  0.1808  0.0047 -0.0128
  659loPI   C1A10535   8.855   0.753   9.230 -0.3628  0.3404 -0.0533
  659loPI   C2A10536   8.795   0.745   8.869  0.2822  0.0973 -0.3742
  659loPI   C3A10537   8.911   0.561   8.482 -0.1797 -0.2125  0.0464
  659loPI   C4A10538   8.788   0.593   8.071 -0.0508  0.0354  0.2462
  659loPI   C5A10539   8.663   0.496   7.610 -0.1813  0.1883  0.0328
  659loPI   C6A10540   8.218   0.596   7.536 -0.1494  0.2536  0.0291
  659loPI   C1B10541   9.142   0.418   9.131 -0.0659  0.2893  0.3709
  659loPI   C2B10542   9.160   0.155   8.725 -0.0083  0.3017 -0.4161
  659loPI   C3B10543   9.508  -0.008   8.611  0.2235  0.2442  0.0167
  659loPI   C4B10544   9.848  -0.115   8.419 -0.0068  0.2490 -0.1292
  660loPI    C110545  15.004  15.362  10.466  0.1207  0.3333  0.0726
  660loPI    C210546  15.031  15.188  10.825 -0.2210 -0.0932 -0.0989
  660loPI    C310547  14.971  15.582  10.799  0.3920  0.0408  0.2992
  660loPI   PO410548  14.908  15.181  10.232  0.4297  0.0829  0.0958
  660loPI   GL110549  15.046  15.027   9.873  0.1723  0.2272  0.3199
  660loPI   GL210550  15.169  14.737   9.759  0.2836  0.0463 -0.1008
  660loPI   C1A10551  15.042  15.178   9.468 -0.3102  0.2272  0.1724
  660loPI   C2A10552  14.882  15.072   8.983  0.0917 -0.2669 -0.0224
  660loPI   C3A10553  14.881  14.986   8.455  0.0511 -0.0398 -0.2868
  660loPI   C4A10554  15.064  15.036   8.030 -0.2615 -0.2899 -0.0349
  660loPI   C5A10555  14.815  15.410   7.830  0.2338 -0.1676 -0.0182
  660loPI   C6A10556  14.485  15.531   7.499  0.1610 -0.1083  0.3825
  660loPI   C1B10557  15.295  14.729   9.371  0.1861 -0.3300 -0.1756
  660loPI   C2B10558  15.180  14.668   8.926 -0.3080  0.1472 -0.0499
  660loPI   C3B10559  15.104  14.514   8.502  0.2431 -0.2916 -0.0981
  660loPI   C4B10560  15.083  14.503   8.074 -0.0482 -0.1598 -0.1904
  661loPI    C110561   4.833   6.315  10.160  0.1719  0.1599 -0.1618
  661loPI    C210562   4.491   6.265  10.362  0.0965 -0.2209 -0.3764
  661loPI    C310563   4.835   6.308  10.560 -0.0332 -0.1572 -0.1625
  661loPI   PO410564   4.755   6.395   9.963 -0.3352  0.1525  0.2154
  661loPI   GL110565   4.595   6.472   9.635 -0.1283 -0.0627 -0.0450
  661loPI   GL210566   4.675   6.167   9.527  0.1471 -0.0283 -0.2896
  661loPI   C1A10567   4.611   6.510   9.128  0.2255  0.1328  0.5150
  661loPI   C2A10568   4.735   6.472   8.677 -0.1029  0.1219  0.1520
  661loPI   C3A10569   4.618   6.432   8.210 -0.0933  0.0420 -0.1938
  661loPI   C4A10570   4.754   6.280   7.747  0.2898 -0.1118  0.0212
  661loPI   C5A10571   5.010   6.126   7.412  0.2899 -0.2185 -0.2191
  661loPI   C6A10572   4.974   5.754   7.352 -0.0215  0.2320 -0.0156
  661loPI   C1B10573   4.819   6.048   9.159  0.2041 -0.1417 -0.0935
  661loPI   C2B10574   4.937   6.013   8.734  0.0652 -0.1017  0.0133
  661loPI   C3B10575   4.964   6.029   8.260 -0.0542 -0.1945 -0.0091
  661loPI   C4B10576   5.003   5.792   7.835  0.2028 -0.1158 -0.0638
  662loPI    C110577  11.564   7.902   9.966  0.0617  0.2180  0.1781
  662loPI    C210578  11.441   8.016  10.329  0.3029  0.0843  0.3035
  662loPI    C310579  11.706   7.718  10.291  0.1483 -0.0196  0.0087
  662loPI   PO410580  11.471   8.068   9.784  0.1134 -0.2544  0.0326
  662loPI   GL110581  11.138   8.022   9.514 -0.1703  0.1071 -0.1459
  662loPI   GL210582  10.849   8.066   9.535 -0.1748 -0.2031  0.1023
  662loPI   C1A10583  11.352   7.974   9.084 -0.0420 -0.0668 -0.3434
  662loPI   C2A10584  11.229   7.906   8.621  0.0141  0.0653 -0.1422
  662loPI   C3A10585  11.360   7.997   8.196  0.0515 -0.2931  0.2111
  662loPI   C4A10586  11.486   7.996   7.831  0.1079 -0.0314 -0.0056
  662loPI   C5A10587  11.529   7.915   7.474  0.0448  0.1011  0.1659
  662loPI   C6A10588  11.528   7.699   7.098 -0.0830 -0.0495 -0.2188
  662loPI   C1B10589  10.830   8.139   9.062  0.2061 -0.2515 -0.1207
  662loPI   C2B10590  10.817   8.180   8.668  0.1401  0.1691 -0.4181
  662loPI   C3B10591  10.837   8.005   8.253 -0.0414 -0.0910  0.0509
  662loPI   C4B10592  10.725   7.669   7.995 -0.0786  0.0276 -0.0745
  663loPI    C110593  15.723   4.817  10.222 -0.1814  0.0726 -0.1454
  663loPI    C210594  15.523   5.044  10.484 -0.2808 -0.2371  0.0524
  663loPI    C310595  15.646   4.678  10.590  0.0710 -0.1931 -0.1893
  663loPI   PO410596  15.521   4.862   9.994  0.0170  0.0339 -0.0134
  663loPI   GL110597  15.366   4.623   9.493  0.0384  0.0554 -0.3184
  663loPI   GL210598  15.593   4.753   9.427  0.1897  0.2222 -0.0390
  663loPI   C1A10599  15.087   4.662   9.227 -0.0177 -0.2349 -0.3136
  663loPI   C2A10600  15.105   4.654   8.815  0.2832  0.0213 -0.2065
  663loPI   C3A10601  15.215   4.542   8.445  0.1841 -0.1284 -0.3487
  663loPI   C4A10602  15.039   4.538   8.083  0.1456  0.2123  0.1908
  663loPI   C5A10603  14.878   4.679   7.716  0.0773 -0.0451 -0.1027
  663loPI   C6A10604  14.968   4.988   7.424  0.1503 -0.1991  0.0231
  663loPI   C1B10605  15.521   4.860   8.978 -0.2162 -0.3424  0.1119
  663loPI   C2B10606  15.606   4.854   8.498  0.0626  0.0503  0.1868
  663loPI   C3B10607  15.447   4.864   8.113 -0.0932 -0.0539  0.1392
  663loPI   C4B10608  15.363   4.861   7.700  0.1923  0.1467  0.2885
  664loPI    C110609   3.328  17.486  10.295  0.2006 -0.1914 -0.0843
  664loPI    C210610   3.518  17.137  10.257  0.2892 -0.1142 -0.3780
  664loPI    C310611   3.723  17.467  10.353  0.1792 -0.1705  0.0732
  664loPI   PO410612   3.084  17.413  10.068  0.3648  0.1339  0.1528
  664loPI   GL110613   3.117  17.118   9.763  0.0213  0.2631  0.1942
  664loPI   GL210614   3.160  16.745   9.569 -0.2456 -0.0224 -0.2632
  664loPI   C1A10615   3.078  17.318   9.371 -0.2464  0.0946 -0.1359
  664loPI   C2A10616   2.884  17.719   9.104  0.0472 -0.1363 -0.2789
  664loPI   C3A10617   2.778  17.631   8.723  0.0771  0.0646  0.0145
  664loPI   C4A10618   2.630  17.552   8.423 -0.1256  0.0671  0.1264
  664loPI   C5A10619   2.606  17.848   8.104  0.1316 -0.0617  0.2049
  664loPI   C6A10620   2.261  18.127   7.852  0.2253  0.1029 -0.0495
  664loPI   C1B10621   3.163  16.787   9.194  0.0990 -0.0771 -0.1767
  664loPI   C2B10622   3.286  16.852   8.744 -0.1229 -0.1153 -0.0088
  664loPI   C3B10623   3.327  17.037   8.426  0.3300 -0.3373 -0.1893
  664loPI   C4B10624   3.640  17.131   8.139  0.0863 -0.3450 -0.0978
  665loPI    C110625   3.065   8.106   9.788 -0.1215  0.0689  0.0392
  665loPI    C210626   2.738   7.999   9.994 -0.1688  0.0654 -0.0374
  665loPI    C310627   2.704   8.131   9.618 -0.0814  0.0603 -0.0475
  665loPI   PO410628   3.211   7.905   9.889  0.1301 -0.2758 -0.3877
  665loPI   GL110629   3.362   7.615   9.570  0.1765 -0.3220 -0.0247
  665loPI   GL210630   3.308   7.885   9.291 -0.5027 -0.0895  0.2192
  665loPI   C1A10631   3.358   7.261   9.160  0.0157 -0.2722  0.0602
  665loPI   C2A10632   3.462   7.196   8.746 -0.0832  0.1867 -0.2107
  665loPI   C3A10633   3.386   7.213   8.370 -0.0082  0.0143 -0.1654
  665loPI   C4A10634   3.534   7.118   7.987 -0.2468 -0.0543 -0.0361
  665loPI   C5A10635   3.425   7.174   7.570 -0.2410  0.0129 -0.1785
  665loPI   C6A10636   3.229   7.564   7.594  0.1798  0.0460  0.0790
  665loPI   C1B10637   3.269   7.665   8.956  0.3561 -0.4265  0.1093
  665loPI   C2B10638   3.143   7.628   8.563  0.1131  0.4284  0.3120
  665loPI   C3B10639   2.965   7.841   8.262  0.1801 -0.0059  0.1745
  665loPI   C4B10640   2.638   7.560   7.880  0.0314  0.2435  0.2196
  666loPI    C110641  13.372  16.331   9.969 -0.0253  0.0251 -0.1884
  666loPI    C210642  13.493  16.414  10.341  0.1069 -0.3688 -0.1386
  666loPI    C310643  13.125  16.272  10.278 -0.0014 -0.0744 -0.1881
  666loPI   PO410644  13.374  16.506   9.823  0.0152  0.0926 -0.3901
  666loPI   GL110645  13.413  16.771   9.483  0.0766 -0.1798 -0.1709
  666loPI   GL210646  13.121  16.573   9.422  0.1310 -0.2545 -0.1450
  666loPI   C1A10647  13.486  16.365   9.166 -0.0823  0.0511 -0.0534
  666loPI   C2A10648  13.850  16.176   8.963 -0.1173  0.1132 -0.0952
  666loPI   C3A10649  14.151  16.194   8.629  0.1782  0.3280  0.1360
  666loPI   C4A10650  14.307  16.143   8.212  0.1255  0.0246 -0.1561
  666loPI   C5A10651  14.231  16.062   7.831  0.1451 -0.1706 -0.2666
  666loPI   C6A10652  14.267  16.303   7.430 -0.2855 -0.0018  0.1531
  666loPI   C1B10653  13.163  16.819   9.038  0.1322  0.2997 -0.0814
  666loPI   C2B10654  13.310  16.746   8.651  0.0409 -0.1859  0.0457
  666loPI   C3B10655  13.384  16.507   8.217 -0.0144 -0.0447  0.1753
  666loPI   C4B10656  13.495  16.866   7.817 -0.4718  0.0076  0.0977
  667loPI    C110657  15.948   0.854  10.305 -0.0548 -0.0942 -0.0790
  667loPI    C210658  16.078   1.061  10.621  0.1241 -0.0663 -0.1697
  667loPI    C310659  15.692   1.078  10.515  0.0860  0.0126 -0.0205
  667loPI   PO410660  16.145   0.878  10.096 -0.1019  0.2030  0.1548
  667loPI   GL110661  16.330   0.898   9.642  0.4062 -0.1740 -0.2072
  667loPI   GL210662  16.557   1.029   9.485  0.2206 -0.0549  0.4045
  667loPI   C1A10663  16.275   0.631   9.204  0.2452 -0.0593  0.0501
  667loPI   C2A10664  16.182   0.597   8.801 -0.3459 -0.1255 -0.0016
  667loPI   C3A10665  16.312   0.423   8.417 -0.2345 -0.1263 -0.0868
  667loPI   C4A10666  16.487   0.468   8.118  0.0959 -0.2156 -0.0632
  667loPI   C5A10667  16.559   0.643   7.748 -0.1020 -0.0494  0.1287
  667loPI   C6A10668  16.611   0.611   7.241 -0.0586  0.1217 -0.0652
  667loPI   C1B10669  16.658   1.053   9.083 -0.0600  0.0194 -0.2078
  667loPI   C2B10670  16.456   0.985   8.626  0.1253 -0.0367  0.0852
  667loPI   C3B10671  16.674   0.900   8.251  0.0403 -0.1262 -0.2224
  667loPI   C4B10672  16.978   0.643   7.990  0.2904 -0.2209 -0.2083
  668loPI    C110673   0.952  12.846   9.091 -0.0362  0.0219  0.1060
  668loPI    C210674   1.250  12.608   9.212  0.0517 -0.0230 -0.1918
  668loPI    C310675   1.106  12.888   9.458  0.4226  0.0811 -0.0858
  668loPI   PO410676   0.978  12.983   8.873  0.1553 -0.0697  0.1182
  668loPI   GL110677   1.166  13.189   8.612  0.1874 -0.1138  0.2079
  668loPI   GL210678   1.037  13.494   8.699  0.0411  0.0693 -0.3110
  668loPI   C1A10679   1.027  12.939   8.174  0.1564 -0.2222 -0.1835
  668loPI   C2A10680   1.094  12.893   7.828 -0.0383  0.0815 -0.1374
  668loPI   C3A10681   1.086  13.025   7.428  0.1116 -0.1407 -0.3977
  668loPI   C4A10682   1.305  13.172   7.110  0.1667  0.0411  0.1114
  668loPI   C5A10683   1.688  13.440   7.093  0.0318 -0.0670  0.1987
  668loPI   C6A10684   2.096  13.513   7.012  0.0591  0.3052 -0.0391
  668loPI   C1B10685   0.897  13.424   8.295 -0.0357  0.0441  0.1911
  668loPI   C2B10686   0.763  13.351   7.809  0.1574  0.0122  0.1172
  668loPI   C3B10687   0.500  13.143   7.507 -0.1003 -0.3002  0.1642
  668loPI   C4B10688   0.664  12.934   7.184 -0.2952  0.0595  0.1890
  669loPI    C110689   6.358  19.377  10.540  0.0359 -0.0670 -0.0177
  669loPI    C210690   6.285  19.034  10.731  0.3558 -0.1915 -0.1120
  669loPI    C310691   6.557  19.289  10.876 -0.0268  0.1229  0.0706
  669loPI   PO410692   6.190  19.342  10.258 -0.1772  0.1585  0.0328
  669loPI   GL110693   6.148  19.493   9.880  0.1732 -0.0619  0.0907
  669loPI   GL210694   5.917  19.756   9.792  0.2636 -0.1894 -0.1885
  669loPI   C1A10695   6.225  19.106   9.574  0.0761 -0.0997 -0.2392
  669loPI   C2A10696   6.210  19.116   9.142  0.1861  0.0824 -0.0311
  669loPI   C3A10697   6.171  19.145   8.711  0.0609 -0.0720 -0.1379
  669loPI   C4A10698   6.253  19.193   8.275  0.2096  0.0020  0.1684
  669loPI   C5A10699   6.183  19.090   7.784 -0.1008  0.0560 -0.0764
  669loPI   C6A10700   6.021  19.236   7.406  0.1937  0.1566 -0.0241
  669loPI   C1B10701   5.924  19.515   9.412  0.0054 -0.0123 -0.0372
  669loPI   C2B10702   5.916  19.614   8.982  0.0210  0.1141 -0.2384
  669loPI   C3B10703   5.921  19.554   8.488  0.0748 -0.2299  0.3223
  669loPI   C4B10704   5.974  19.588   8.071  0.2007  0.1893 -0.1664
  670loPI    C110705   4.142  15.938  10.002  0.1377  0.1325 -0.0585
  670loPI    C210706   4.131  16.202  10.303  0.2215  0.1696 -0.0875
  670loPI    C310707   3.796  16.112  10.103  0.1653  0.1437  0.0174
  670loPI   PO410708   4.294  16.038   9.792  0.0346 -0.3741  0.3697
  670loPI   GL110709   4.371  16.336   9.510  0.0394  0.4110  0.1529
  670loPI   GL210710   4.659  16.495   9.681  0.0128 -0.3414 -0.1418
  670loPI   C1A10711   4.671  16.257   9.194  0.0725  0.3039  0.1499
  670loPI   C2A10712   4.749  16.299   8.782  0.0195  0.2059  0.2617
  670loPI   C3A10713   4.656  16.326   8.376  0.1467  0.2132  0.2711
  670loPI   C4A10714   4.759  16.471   7.980 -0.0599  0.1053 -0.2164
  670loPI   C5A10715   4.761  16.474   7.509 -0.1345  0.0881 -0.0687
  670loPI   C6A10716   4.892  16.226   7.247 -0.0070 -0.0004 -0.0954
  670loPI   C1B10717   4.841  16.802   9.350 -0.1448 -0.2609 -0.1316
  670loPI   C2B10718   4.754  17.198   9.106  0.2180 -0.2453 -0.1522
  670loPI   C3B10719   4.596  17.306   8.680  0.0253  0.2032  0.2718
  670loPI   C4B10720   4.617  17.423   8.264 -0.0817 -0.0316 -0.1405
  671loPI    C110721   0.579  16.804   9.829 -0.1267 -0.0028 -0.0544
  671loPI    C210722   0.473  16.422   9.883 -0.2495  0.0258 -0.0911
  671loPI    C310723   0.283  16.712  10.082 -0.1253  0.0644 -0.0284
  671loPI   PO410724   0.734  16.764   9.546  0.1366 -0.1521 -0.1522
  671loPI   GL110725   1.097  16.945   9.337  0.0772  0.0542  0.4099
  671loPI   GL210726   1.460  16.908   9.202 -0.1700  0.0980 -0.0273
  671loPI   C1A10727   0.974  17.066   8.966 -0.0038 -0.1431  0.0403
  671loPI   C2A10728   0.876  16.962   8.666  0.1864  0.0527  0.0272
  671loPI   C3A10729   0.901  17.006   8.176 -0.0241 -0.0353  0.1376
  671loPI   C4A10730   0.563  17.059   7.829  0.2568 -0.2383 -0.4000
  671loPI   C5A10731   0.231  17.228   7.595 -0.1156 -0.1154 -0.2722
  671loPI   C6A10732   0.094  17.421   7.212 -0.0008 -0.1088  0.5659
  671loPI   C1B10733   1.281  16.684   8.912 -0.0647  0.0818 -0.0371
  671loPI   C2B10734   1.001  16.508   8.641 -0.2929  0.0084  0.0847
  671loPI   C3B10735   1.065  16.558   8.147  0.3672 -0.0272 -0.1587
  671loPI   C4B10736   0.890  16.316   7.683  0.3128 -0.1776  0.2715
  672loPI    C110737   3.010   3.066  10.436  0.1482  0.1826  0.2180
  672loPI    C210738   3.325   2.860  10.572  0.0469 -0.1709 -0.0674
  672loPI    C310739   2.972   2.833  10.759  0.0862 -0.0873  0.0196
  672loPI   PO410740   3.090   3.058  10.158 -0.3625 -0.0824  0.3062
  672loPI   GL110741   2.808   3.304   9.877  0.2918 -0.0873  0.0427
  672loPI   GL210742   2.880   2.970   9.745  0.0345  0.0710 -0.1117
  672loPI   C1A10743   2.566   3.270   9.524 -0.2248  0.0765 -0.1277
  672loPI   C2A10744   2.576   3.288   9.075  0.1585  0.3161  0.1583
  672loPI   C3A10745   2.458   3.179   8.614 -0.0889  0.1923 -0.2726
  672loPI   C4A10746   2.481   3.372   8.192 -0.3328 -0.0187  0.5262
  672loPI   C5A10747   2.758   3.543   7.762 -0.0613  0.0740 -0.2259
  672loPI   C6A10748   2.875   3.851   7.436  0.0015  0.3261  0.2031
  672loPI   C1B10749   2.841   2.886   9.323  0.0999  0.1895 -0.1621
  672loPI   C2B10750   2.815   2.875   8.923  0.1743 -0.1610  0.1830
  672loPI   C3B10751   2.803   2.726   8.516  0.0257  0.1975 -0.2071
  672loPI   C4B10752   2.737   2.845   8.102  0.1198  0.0694 -0.1931
  673loPI    C110753   2.517  12.161   9.221 -0.1331  0.2338 -0.0198
  673loPI    C210754   2.879  12.205   9.386 -0.0528  0.2368 -0.1947
  673loPI    C310755   2.605  12.494   9.425 -0.1371  0.1107  0.1856
  673loPI   PO410756   2.496  11.916   9.253  0.3901 -0.1601 -0.0075
  673loPI   GL110757   2.415  11.729   8.972  0.3067 -0.0026 -0.1800
  673loPI   GL210758   2.047  11.876   9.007 -0.1990  0.0632 -0.3169
  673loPI   C1A10759   2.520  11.702   8.534 -0.0094  0.3549 -0.1532
  673loPI   C2A10760   2.331  11.498   8.226 -0.2089 -0.1461  0.0286
  673loPI   C3A10761   2.300  11.588   7.734  0.1691  0.0781 -0.3443
  673loPI   C4A10762   1.992  11.717   7.420  0.2179  0.1163 -0.3834
  673loPI   C5A10763   1.617  11.504   7.116  0.0407 -0.2429 -0.4573
  673loPI   C6A10764   1.432  11.687   6.894 -0.1138 -0.1472  0.1664
  673loPI   C1B10765   2.138  11.963   8.527  0.1515 -0.1909  0.0405
  673loPI   C2B10766   2.116  11.981   8.082 -0.1602 -0.0507 -0.0500
  673loPI   C3B10767   2.176  12.148   7.586  0.0705 -0.1668  0.0425
  673loPI   C4B10768   2.480  12.332   7.414 -0.0955  0.0760  0.1512
  674loPI    C110769   6.217  14.885  10.029 -0.0591 -0.0557  0.1135
  674loPI    C210770   6.345  14.710  10.365  0.1659 -0.0865  0.0136
  674loPI    C310771   6.255  15.100  10.365  0.0882 -0.1039  0.1286
  674loPI   PO410772   6.399  14.756   9.779  0.3700  0.0131 -0.0029
  674loPI   GL110773   6.413  15.002   9.407 -0.2935  0.0993  0.1302
  674loPI   GL210774   6.230  14.732   9.202 -0.0828  0.3032 -0.1165
  674loPI   C1A10775   6.123  15.233   9.272 -0.0031  0.1256  0.2661
  674loPI   C2A10776   5.897  15.393   8.970  0.0598 -0.1837  0.1727
  674loPI   C3A10777   5.896  15.813   8.685  0.1543 -0.0517  0.2206
  674loPI   C4A10778   6.080  16.011   8.306  0.2382 -0.0098  0.1377
  674loPI   C5A10779   6.113  15.875   7.881 -0.1566 -0.1021  0.2994
  674loPI   C6A10780   6.308  15.873   7.459 -0.3052 -0.1102  0.0386
  674loPI   C1B10781   6.282  14.432   8.863 -0.0873 -0.1213 -0.1674
  674loPI   C2B10782   6.320  14.450   8.392  0.1172  0.0336 -0.0573
  674loPI   C3B10783   6.200  14.708   8.161  0.2073  0.1990  0.1373
  674loPI   C4B10784   5.891  14.926   8.297 -0.2799 -0.0885 -0.2809
  675loPI    C110785   2.700   6.230   9.834  0.1657  0.1853 -0.0492
  675loPI    C210786   2.968   6.362  10.100  0.2350 -0.2714  0.1168
  675loPI    C310787   2.577   6.386  10.181  0.2452 -0.1371  0.1283
  675loPI   PO410788   2.677   5.942   9.808 -0.2391  0.2967 -0.1228
  675loPI   GL110789   2.623   5.598   9.487 -0.1939 -0.0864  0.0418
  675loPI   GL210790   2.480   5.273   9.478 -0.0293 -0.1112 -0.1565
  675loPI   C1A10791   2.242   5.822   9.158  0.1329  0.3483 -0.0446
  675loPI   C2A10792   2.362   5.942   8.814  0.0097 -0.3579  0.2273
  675loPI   C3A10793   2.476   5.872   8.440  0.0838 -0.1310 -0.0140
  675loPI   C4A10794   2.514   5.805   8.033  0.1411  0.0356  0.2493
  675loPI   C5A10795   2.712   5.981   7.598  0.1943  0.1962 -0.0140
  675loPI   C6A10796   3.081   5.836   7.349  0.2851 -0.0371 -0.0762
  675loPI   C1B10797   2.639   5.473   9.004 -0.1849  0.0092  0.1331
  675loPI   C2B10798   2.668   5.410   8.615 -0.0490 -0.1428  0.1982
  675loPI   C3B10799   2.744   5.335   8.147  0.2531 -0.0216 -0.1517
  675loPI   C4B10800   2.703   4.990   8.030  0.1252  0.0193  0.4178
  676loPI    C110801  17.114  13.783  10.141  0.2648  0.4247 -0.0207
  676loPI    C210802  16.915  14.084  10.312  0.1293  0.3817 -0.1012
  676loPI    C310803  16.765  13.714  10.322  0.1274  0.3763 -0.2993
  676loPI   PO410804  17.154  13.889   9.942 -0.0313  0.0676  0.0498
  676loPI   GL110805  17.091  13.853   9.526 -0.5047  0.1035  0.0956
  676loPI   GL210806  17.282  14.105   9.405 -0.2452  0.3041 -0.3381
  676loPI   C1A10807  16.944  13.816   9.173  0.0917  0.3554  0.3587
  676loPI   C2A10808  16.795  13.805   8.834 -0.0221  0.2399  0.2747
  676loPI   C3A10809  16.980  13.743   8.443  0.0384 -0.3457 -0.0406
  676loPI   C4A10810  17.002  13.640   7.969  0.0776  0.1687  0.2478
  676loPI   C5A10811  17.220  13.852   7.639  0.1289  0.0866 -0.0787
  676loPI   C6A10812  17.533  13.738   7.285  0.0616 -0.2206 -0.1305
  676loPI   C1B10813  17.300  14.023   8.890 -0.1550 -0.0002 -0.3593
  676loPI   C2B10814  17.396  14.112   8.436  0.1286 -0.2168  0.0150
  676loPI   C3B10815  17.506  14.247   8.068 -0.0940 -0.2449  0.0662
  676loPI   C4B10816  17.515  14.562   7.715 -0.0966  0.0078 -0.1013
  677loPI    C110817  16.005  19.364   4.309 -0.0663  0.1201  0.1473
  677loPI    C210818  16.009  18.965   4.332 -0.0171  0.0979 -0.1910
  677loPI    C310819  15.785  19.147   4.055 -0.1518  0.3125  0.0547
  677loPI   PO410820  15.943  19.415   4.612  0.0155  0.0223  0.1134
  677loPI   GL110821  16.105  19.175   5.007  0.0768  0.1842 -0.0233
  677loPI   GL210822  16.440  19.176   5.195  0.1457 -0.0165  0.1888
  677loPI   C1A10823  16.054  19.025   5.466 -0.1260  0.0526  0.2048
  677loPI   C2A10824  16.094  18.950   5.850  0.1614 -0.0578 -0.2515
  677loPI   C3A10825  16.188  18.905   6.301  0.0655 -0.1598  0.1564
  677loPI   C4A10826  16.159  18.765   6.789 -0.0958  0.1080 -0.0443
  677loPI   C5A10827  16.170  18.481   7.167  0.0326 -0.3536 -0.1250
  677loPI   C6A10828  16.149  18.133   7.311  0.5605 -0.2170  0.0180
  677loPI   C1B10829  16.340  19.530   5.391  0.3313 -0.0059 -0.1415
  677loPI   C2B10830  16.580  19.867   5.571  0.0580  0.3627  0.2453
  677loPI   C3B10831  16.713  20.097   5.842 -0.1536  0.0855 -0.1389
  677loPI   C4B10832  16.567  20.004   6.210  0.2114  0.2436  0.0098
  678loPI    C110833   1.964   2.455   4.666  0.0824 -0.0277 -0.1461
  678loPI    C210834   1.840   2.798   4.502 -0.1071 -0.0531 -0.0589
  678loPI    C310835   1.735   2.449   4.338 -0.0275 -0.0725 -0.0692
  678loPI   PO410836   1.883   2.557   4.955  0.0622 -0.2454 -0.0266
  678loPI   GL110837   1.541   2.727   5.360 -0.0827 -0.1173  0.0253
  678loPI   GL210838   1.840   2.717   5.414  0.3272 -0.0239 -0.0927
  678loPI   C1A10839   1.405   2.444   5.675 -0.0026 -0.0127  0.5650
  678loPI   C2A10840   1.174   2.519   6.047  0.2272 -0.3731  0.3572
  678loPI   C3A10841   1.108   2.615   6.466  0.2505  0.2077  0.1665
  678loPI   C4A10842   1.045   2.851   6.875  0.0459 -0.3230  0.1391
  678loPI   C5A10843   0.979   3.280   7.128 -0.1213  0.0134  0.2146
  678loPI   C6A10844   1.071   3.667   7.385  0.0624 -0.1946  0.2594
  678loPI   C1B10845   1.616   3.063   5.680 -0.1335 -0.2177 -0.2271
  678loPI   C2B10846   1.422   3.109   6.115  0.1805 -0.1128 -0.1027
  678loPI   C3B10847   1.360   3.189   6.637  0.3232  0.1482  0.2259
  678loPI   C4B10848   1.479   3.179   7.047 -0.2096  0.2379  0.4963
  679loPI    C110849   1.425   2.431   4.727 -0.0779 -0.1220 -0.0241
  679loPI    C210850   1.252   2.386   4.370 -0.0610 -0.0376 -0.0432
  679loPI    C310851   1.306   2.752   4.521 -0.0365 -0.0714  0.0304
  679loPI   PO410852   1.359   2.347   4.939 -0.0272  0.0927  0.4628
  679loPI   GL110853   1.356   2.084   5.193  0.0392  0.1809 -0.1916
  679loPI   GL210854   1.151   1.816   5.037  0.3053  0.4377  0.2613
  679loPI   C1A10855   1.372   1.977   5.604 -0.0326  0.1250 -0.1013
  679loPI   C2A10856   1.345   2.003   5.990 -0.0920 -0.1794  0.1491
  679loPI   C3A10857   1.543   2.230   6.306  0.0300 -0.0962  0.2501
  679loPI   C4A10858   1.456   2.254   6.703 -0.0753  0.2213  0.0700
  679loPI   C5A10859   1.480   1.977   7.099 -0.0601  0.0551  0.0088
  679loPI   C6A10860   1.871   1.893   7.438 -0.0694  0.0282  0.0378
  679loPI   C1B10861   1.132   1.549   5.473 -0.1291 -0.1916  0.1223
  679loPI   C2B10862   1.013   1.612   5.880 -0.2710  0.1017  0.0171
  679loPI   C3B10863   1.149   1.586   6.358 -0.1434  0.2725  0.2565
  679loPI   C4B10864   1.235   1.836   6.641  0.3193  0.0508  0.1544
  680loPI    C110865   6.192  11.328   4.782  0.2494  0.0705  0.0710
  680loPI    C210866   6.389  11.401   4.441 -0.1244  0.0364 -0.1589
  680loPI    C310867   6.399  11.036   4.604  0.0740  0.0588 -0.1184
  680loPI   PO410868   6.273  11.460   4.946 -0.1453  0.2961 -0.2401
  680loPI   GL110869   6.121  11.911   5.133 -0.0060 -0.1505 -0.0658
  680loPI   GL210870   5.980  12.200   5.217 -0.0086 -0.0254  0.5798
  680loPI   C1A10871   5.991  11.691   5.636 -0.0193 -0.3798  0.3583
  680loPI   C2A10872   6.064  11.539   6.054 -0.2881 -0.0514 -0.0453
  680loPI   C3A10873   6.319  11.316   6.278 -0.1909  0.0258  0.2264
  680loPI   C4A10874   6.315  11.206   6.708  0.2075  0.0100 -0.0107
  680loPI   C5A10875   6.505  11.489   7.056 -0.0642 -0.1951 -0.1597
  680loPI   C6A10876   6.686  11.842   7.020  0.0299  0.0446  0.0983
  680loPI   C1B10877   6.283  12.199   5.542  0.1571  0.1695 -0.0335
  680loPI   C2B10878   6.279  11.954   5.980  0.1658 -0.2806  0.0531
  680loPI   C3B10879   6.361  11.874   6.376 -0.0384  0.1439 -0.0216
  680loPI   C4B10880   6.713  11.628   6.537  0.1738 -0.2357 -0.2357
  681loPI    C110881  14.853   9.011   4.115 -0.0439  0.2588  0.2964
  681loPI    C210882  15.106   9.241   3.908  0.1025  0.0254  0.2121
  681loPI    C310883  14.864   8.988   3.715 -0.0791  0.1282  0.3024
  681loPI   PO410884  14.659   9.125   4.257 -0.0691  0.0328 -0.3176
  681loPI   GL110885  14.707   9.070   4.677  0.1546 -0.3007  0.0425
  681loPI   GL210886  14.930   8.771   4.775 -0.0136 -0.0653 -0.0266
  681loPI   C1A10887  14.718   9.360   5.074 -0.0128 -0.2337  0.1267
  681loPI   C2A10888  14.767   9.437   5.605  0.1300  0.2318 -0.1711
  681loPI   C3A10889  14.760   9.445   5.980  0.2194 -0.1638 -0.1302
  681loPI   C4A10890  14.754   9.368   6.414  0.0326 -0.0535 -0.0588
  681loPI   C5A10891  14.780   9.301   6.821  0.2409  0.0701  0.0952
  681loPI   C6A10892  14.936   9.337   7.172 -0.2470 -0.1173 -0.1170
  681loPI   C1B10893  14.904   8.910   5.192 -0.1833  0.3204  0.0736
  681loPI   C2B10894  14.993   8.844   5.681 -0.1746  0.0299  0.1047
  681loPI   C3B10895  14.904   8.857   6.096  0.0392 -0.1905 -0.1342
  681loPI   C4B10896  14.872   8.821   6.590  0.0506  0.0213 -0.0608
  682loPI    C110897   1.117  14.378   4.576  0.0186 -0.0550  0.0104
  682loPI    C210898   1.445  14.308   4.793  0.0690  0.0266 -0.0388
  682loPI    C310899   1.299  14.023   4.553  0.2571  0.0779 -0.2173
  682loPI   PO410900   0.997  14.592   4.749 -0.1385  0.1360  0.2247
  682loPI   GL110901   0.887  14.674   5.216  0.0882  0.0824  0.0870
  682loPI   GL210902   0.538  14.633   5.239 -0.0665  0.0196 -0.1918
  682loPI   C1A10903   1.023  14.727   5.731 -0.4026  0.0556  0.2253
  682loPI   C2A10904   1.119  15.039   6.062  0.1088 -0.2184  0.2602
  682loPI   C3A10905   1.272  15.330   6.449  0.1893 -0.0413 -0.2573
  682loPI   C4A10906   1.102  15.512   6.861  0.0888 -0.1879 -0.3561
  682loPI   C5A10907   0.787  15.409   7.087  0.2149 -0.0058 -0.0247
  682loPI   C6A10908   0.469  15.000   7.071  0.1950 -0.2558 -0.0429
  682loPI   C1B10909   0.542  14.232   5.467 -0.1051 -0.0222  0.2838
  682loPI   C2B10910   0.362  13.990   5.743  0.4319  0.1116  0.0209
  682loPI   C3B10911   0.266  13.911   6.135 -0.2156  0.2772 -0.1528
  682loPI   C4B10912   0.587  13.774   6.388  0.2371  0.1017 -0.1946
  683loPI    C110913  10.416   9.716   4.543  0.1561  0.0188 -0.1126
  683loPI    C210914  10.802   9.690   4.438  0.1182 -0.1430 -0.2159
  683loPI    C310915  10.519   9.544   4.196 -0.0042 -0.0804 -0.1116
  683loPI   PO410916  10.476   9.752   4.844  0.0455 -0.0242  0.3760
  683loPI   GL110917  10.497  10.174   5.159  0.0993  0.0533 -0.2249
  683loPI   GL210918  10.685  10.356   5.030  0.0316  0.3971 -0.0932
  683loPI   C1A10919  10.555  10.145   5.605  0.2123 -0.0640 -0.2164
  683loPI   C2A10920  10.683  10.032   6.043  0.2816 -0.0720 -0.0944
  683loPI   C3A10921  10.779  10.281   6.507  0.3873  0.0804  0.3357
  683loPI   C4A10922  10.917  10.419   6.988 -0.1433  0.0597  0.1715
  683loPI   C5A10923  10.842  10.811   7.035  0.2448 -0.0476  0.1675
  683loPI   C6A10924  10.438  11.109   7.067 -0.0150  0.2558 -0.0970
  683loPI   C1B10925  10.934  10.527   5.352 -0.0030  0.0648  0.1828
  683loPI   C2B10926  10.804  10.763   5.705  0.2484 -0.0895 -0.0461
  683loPI   C3B10927  10.566  10.814   6.075  0.1203  0.3230  0.0108
  683loPI   C4B10928  10.395  10.992   6.381 -0.0299 -0.0167  0.0223
  684loPI    C110929  18.931   9.151   3.934 -0.2671  0.0340 -0.2459
  684loPI    C210930  18.653   9.074   3.657 -0.1066 -0.3545 -0.3054
  684loPI    C310931  19.040   9.025   3.570 -0.0280 -0.0244 -0.1559
  684loPI   PO410932  18.850   9.208   4.148  0.0517 -0.0008  0.0362
  684loPI   GL110933  18.939   9.092   4.605 -0.0478 -0.2550  0.3230
  684loPI   GL210934  18.639   9.120   4.678 -0.0184 -0.2729  0.0835
  684loPI   C1A10935  18.922   8.893   5.031  0.0346  0.1407 -0.1059
  684loPI   C2A10936  18.856   8.939   5.516 -0.0432 -0.0020 -0.1287
  684loPI   C3A10937  18.916   8.890   5.840 -0.2036  0.2765 -0.2263
  684loPI   C4A10938  18.924   8.900   6.353 -0.2732  0.0458 -0.1472
  684loPI   C5A10939  18.927   8.994   6.794  0.2010  0.2691 -0.0576
  684loPI   C6A10940  19.064   9.356   6.960  0.3853 -0.2148  0.0318
  684loPI   C1B10941  18.478   9.082   5.110  0.1377 -0.3004 -0.2878
  684loPI   C2B10942  18.398   9.025   5.626  0.1318  0.1497 -0.1377
  684loPI   C3B10943  18.422   9.007   6.058 -0.0131 -0.2537 -0.2375
  684loPI   C4B10944  18.194   9.081   6.471 -0.0014 -0.2404  0.0201
  685loPI    C110945   7.261  16.572   4.126  0.0300  0.0121  0.0837
  685loPI    C210946   7.433  16.275   4.331 -0.0969  0.0004  0.1741
  685loPI    C310947   7.332  16.220   3.948  0.0513 -0.0099  0.1358
  685loPI   PO410948   7.266  16.830   4.293  0.0382  0.0222 -0.0559
  685loPI   GL110949   7.362  16.870   4.714  0.2314  0.1155  0.0420
  685loPI   GL210950   7.427  16.617   4.734 -0.1006 -0.4674 -0.2828
  685loPI   C1A10951   7.493  17.062   5.138  0.1660  0.0396 -0.1228
  685loPI   C2A10952   7.453  17.269   5.628  0.0224  0.1081  0.1360
  685loPI   C3A10953   7.636  17.167   6.104  0.1297  0.1725 -0.0162
  685loPI   C4A10954   7.842  17.288   6.452 -0.1069 -0.1936  0.2013
  685loPI   C5A10955   7.807  17.125   6.790  0.2778 -0.1383 -0.1430
  685loPI   C6A10956   7.908  16.802   7.094 -0.0224  0.1453  0.2722
  685loPI   C1B10957   7.455  16.542   5.117  0.1590 -0.2592 -0.1340
  685loPI   C2B10958   7.699  16.724   5.441 -0.0151  0.0678  0.0524
  685loPI   C3B10959   7.872  16.912   5.684  0.0508 -0.2057  0.1972
  685loPI   C4B10960   7.999  17.310   5.848  0.2990 -0.4260 -0.1663
  686loPI    C110961   0.196   0.388   4.626 -0.3718  0.1402  0.0392
  686loPI    C210962  -0.038   0.673   4.471 -0.0863  0.3248 -0.0595
  686loPI    C310963   0.231   0.488   4.240 -0.0715  0.1773  0.0740
  686loPI   PO410964  -0.003   0.378   4.850 -0.0121 -0.0620 -0.0956
  686loPI   GL110965  -0.166   0.682   5.219 -0.1641  0.1848 -0.3491
  686loPI   GL210966  -0.405   0.864   5.337  0.0551 -0.0535  0.1716
  686loPI   C1A10967   0.080   0.826   5.528 -0.0426  0.0401 -0.1143
  686loPI   C2A10968   0.052   0.739   6.046  0.1352 -0.1559  0.0242
  686loPI   C3A10969   0.101   0.767   6.568 -0.0733 -0.2331  0.0864
  686loPI   C4A10970   0.282   0.845   6.971  0.2902  0.0773 -0.1340
  686loPI   C5A10971   0.376   1.047   7.311 -0.0112  0.1859  0.1076
  686loPI   C6A10972   0.526   1.180   7.751 -0.1479 -0.0733 -0.0576
  686loPI   C1B10973  -0.477   0.640   5.702 -0.1834  0.0114 -0.0855
  686loPI   C2B10974  -0.354   0.469   6.070 -0.0820  0.2417 -0.1901
  686loPI   C3B10975  -0.447   0.567   6.485  0.1838  0.1165 -0.0671
  686loPI   C4B10976  -0.305   0.811   6.801 -0.3149  0.0877 -0.0487
  687loPI    C110977  16.286   7.744   4.471  0.1257 -0.0362 -0.1695
  687loPI    C210978  16.300   7.845   4.085  0.1868 -0.2387 -0.2219
  687loPI    C310979  16.579   7.981   4.337 -0.1016  0.2569 -0.1565
  687loPI   PO410980  15.990   7.850   4.492  0.1467 -0.2323 -0.3027
  687loPI   GL110981  16.012   8.072   4.893 -0.1983  0.2132  0.0951
  687loPI   GL210982  15.985   7.715   4.948 -0.1325  0.4615 -0.2084
  687loPI   C1A10983  15.960   8.111   5.351  0.0594  0.1599  0.1310
  687loPI   C2A10984  15.966   8.124   5.741 -0.0705  0.2912  0.2103
  687loPI   C3A10985  16.001   7.974   6.212  0.4008 -0.2558 -0.1390
  687loPI   C4A10986  15.877   8.077   6.684 -0.0800 -0.1301 -0.0658
  687loPI   C5A10987  15.728   8.459   6.914  0.2029 -0.2748  0.1310
  687loPI   C6A10988  15.505   8.854   7.045 -0.1409 -0.0846  0.0730
  687loPI   C1B10989  16.079   7.646   5.324  0.0268  0.0441  0.0261
  687loPI   C2B10990  16.030   7.539   5.752 -0.3640 -0.1587  0.0168
  687loPI   C3B10991  16.142   7.469   6.201 -0.1182 -0.2474  0.2561
  687loPI   C4B10992  16.088   7.519   6.673  0.2279 -0.2976  0.1774
  688loPI    C110993  13.283   0.876   5.158 -0.0369 -0.2845  0.1455
  688loPI    C210994  13.394   0.712   4.811 -0.0745 -0.0320  0.0121
  688loPI    C310995  13.031   0.878   4.847  0.0292  0.1819  0.0877
  688loPI   PO410996  13.482   0.965   5.268  0.1219 -0.0933 -0.1840
  688loPI   GL110997  13.394   0.741   5.659  0.1526 -0.2230 -0.2394
  688loPI   GL210998  13.736   0.663   5.669  0.0053  0.0398  0.0502
  688loPI   C1A10999  13.495   0.753   6.098 -0.2509  0.1312  0.0333
  688loPI   C2A11000  13.482   0.838   6.485  0.1971  0.2271 -0.0989
  688loPI   C3A11001  13.306   0.759   6.815  0.3521  0.1069 -0.0436
  688loPI   C4A11002  13.360   0.525   7.217 -0.1003 -0.1060  0.5260
  688loPI   C5A11003  13.225   0.126   7.325 -0.1232  0.0754  0.0694
  688loPI   C6A11004  12.900  -0.040   7.629 -0.3207  0.0369  0.1626
  688loPI   C1B11005  14.003   0.823   5.994 -0.6608  0.0741 -0.0712
  688loPI   C2B11006  14.230   0.751   6.296  0.0347 -0.2295  0.3472
  688loPI   C3B11007  14.425   0.590   6.644  0.2306  0.2633 -0.0440
  688loPI   C4B11008  14.727   0.373   7.027 -0.0930 -0.1116 -0.2304
  689loPI    C111009  15.131  15.233   4.625 -0.1282  0.0278  0.0076
  689loPI    C211010  15.480  15.384   4.500 -0.0368 -0.0867  0.1206
  689loPI    C311011  15.437  14.989   4.542 -0.2656 -0.0938 -0.1465
  689loPI   PO411012  15.051  15.272   4.868 -0.1980 -0.3247  0.1138
  689loPI   GL111013  14.762  15.177   5.188  0.0361  0.0355  0.0022
  689loPI   GL211014  14.874  15.413   5.450  0.0196 -0.0744  0.0729
  689loPI   C1A11015  14.709  14.976   5.625 -0.2605  0.0143  0.1922
  689loPI   C2A11016  14.796  14.949   6.071  0.2089  0.2769 -0.2399
  689loPI   C3A11017  14.755  14.899   6.449 -0.0530  0.0832  0.2651
  689loPI   C4A11018  14.843  14.794   6.936 -0.0782 -0.1430  0.1119
  689loPI   C5A11019  14.988  14.496   7.333 -0.0250 -0.1184 -0.0153
  689loPI   C6A11020  15.208  14.147   7.501 -0.1919  0.0841 -0.4903
  689loPI   C1B11021  15.158  15.241   5.745 -0.1538 -0.3081 -0.3266
  689loPI   C2B11022  15.121  15.337   6.235 -0.0345 -0.0423 -0.4078
  689loPI   C3B11023  14.898  15.370   6.447  0.0822 -0.3062 -0.3400
  689loPI   C4B11024  14.697  15.213   6.886  0.0311 -0.4353  0.0281
  690loPI    C111025   2.917   7.063   4.632 -0.1944  0.0272 -0.0647
  690loPI    C211026   2.878   6.738   4.402  0.1128 -0.1713  0.1554
  690loPI    C311027   2.996   7.084   4.240  0.1681 -0.2677 -0.0131
  690loPI   PO411028   2.695   7.065   4.802 -0.4363 -0.2932  0.0937
  690loPI   GL111029   2.622   7.241   5.145 -0.1037  0.3232 -0.0235
  690loPI   GL211030   2.692   6.956   5.370  0.0250  0.1253 -0.1067
  690loPI   C1A11031   2.360   7.416   5.408  0.0818  0.0870 -0.2314
  690loPI   C2A11032   2.159   7.509   5.712 -0.1948 -0.0610 -0.0392
  690loPI   C3A11033   1.952   7.518   6.118 -0.2754 -0.1503 -0.3591
  690loPI   C4A11034   2.017   7.424   6.478  0.0480 -0.3762  0.2129
  690loPI   C5A11035   2.089   7.060   6.818  0.1733  0.1626 -0.1105
  690loPI   C6A11036   1.801   6.808   7.039 -0.0463  0.0012  0.1150
  690loPI   C1B11037   2.544   6.740   5.824 -0.0334 -0.1915  0.0839
  690loPI   C2B11038   2.311   6.507   6.015 -0.0793  0.1523  0.2893
  690loPI   C3B11039   2.126   6.485   6.432  0.4304 -0.0618 -0.1545
  690loPI   C4B11040   1.888   6.177   6.648 -0.3063 -0.0383 -0.3719
  691loPI    C111041  10.982  16.459   4.530  0.3007 -0.1298 -0.0286
  691loPI    C211042  10.741  16.155   4.433 -0.3011  0.3422 -0.0729
  691loPI    C311043  10.998  16.301   4.163 -0.0796 -0.0529 -0.0827
  691loPI   PO411044  11.046  16.502   4.847  0.0224  0.2052  0.0854
  691loPI   GL111045  11.222  16.324   5.130 -0.2782 -0.1471 -0.1340
  691loPI   GL211046  11.307  16.528   5.401  0.0125  0.1338  0.1341
  691loPI   C1A11047  11.484  16.072   5.432 -0.0580  0.1078 -0.0780
  691loPI   C2A11048  11.459  15.994   5.733  0.2412  0.0483 -0.1184
  691loPI   C3A11049  11.354  15.749   6.003  0.1772  0.1147 -0.1437
  691loPI   C4A11050  11.169  15.451   6.301 -0.0461  0.0572 -0.0357
  691loPI   C5A11051  10.884  15.302   6.657 -0.1827 -0.0622 -0.2763
  691loPI   C6A11052  10.623  15.480   6.997 -0.3664 -0.1197 -0.0602
  691loPI   C1B11053  11.068  16.290   5.771 -0.1289 -0.0580 -0.1424
  691loPI   C2B11054  11.107  16.149   6.131  0.1975 -0.0913 -0.1214
  691loPI   C3B11055  11.183  15.958   6.517  0.2739  0.0773  0.1107
  691loPI   C4B11056  10.974  15.780   6.709 -0.3925 -0.1395 -0.0368
  692loPI    C111057  15.394   8.689   4.296  0.0924  0.2515  0.0990
  692loPI    C211058  15.373   8.787   3.909 -0.1600 -0.0145  0.0417
  692loPI    C311059  15.451   8.410   4.016 -0.2315  0.0279  0.2496
  692loPI   PO411060  15.227   8.865   4.421  0.1669  0.0339  0.0857
  692loPI   GL111061  15.261   9.117   4.850  0.0615 -0.0890  0.2953
  692loPI   GL211062  15.523   9.162   4.649 -0.0407 -0.2113 -0.2035
  692loPI   C1A11063  15.198   9.305   5.348  0.3165 -0.0380  0.2347
  692loPI   C2A11064  15.249   9.283   5.810  0.2742 -0.1563 -0.1106
  692loPI   C3A11065  15.287   9.105   6.313 -0.1680 -0.1415 -0.0892
  692loPI   C4A11066  15.270   9.192   6.814  0.0892  0.2562 -0.0808
  692loPI   C5A11067  15.507   9.380   7.235  0.0102 -0.5290 -0.0139
  692loPI   C6A11068  15.686   9.168   7.376 -0.0654 -0.1043  0.1326
  692loPI   C1B11069  15.684   9.176   5.182  0.0303  0.2155 -0.0187
  692loPI   C2B11070  15.697   9.081   5.530 -0.1019  0.1931 -0.0293
  692loPI   C3B11071  15.752   9.071   5.923  0.1100 -0.0505 -0.0819
  692loPI   C4B11072  15.839   9.111   6.377 -0.1087  0.1793 -0.2304
  693loPI    C111073  18.776   2.920   4.783 -0.2975  0.0538  0.1884
  693loPI    C211074  18.564   2.586   4.723 -0.2109  0.0043  0.1572
  693loPI    C311075  18.399   2.943   4.650 -0.1504 -0.0481 -0.2663
  693loPI   PO411076  18.850   2.942   4.970 -0.2492  0.0350 -0.1320
  693loPI   GL111077  19.112   3.234   5.221  0.4471  0.1122  0.0390
  693loPI   GL211078  18.841   2.951   5.445 -0.1639 -0.4728  0.0428
  693loPI   C1A11079  19.197   3.203   5.645  0.1665  0.0479 -0.0533
  693loPI   C2A11080  19.233   3.024   5.992  0.1449  0.0473  0.0009
  693loPI   C3A11081  19.282   3.091   6.438 -0.1821  0.2341 -0.2188
  693loPI   C4A11082  19.401   3.112   6.863  0.2503  0.1226 -0.0453
  693loPI   C5A11083  19.615   3.288   7.203 -0.1389  0.1838 -0.1462
  693loPI   C6A11084  19.962   3.399   7.404  0.0300 -0.1185  0.0419
  693loPI   C1B11085  18.715   2.949   5.859 -0.3036  0.0946 -0.0649
  693loPI   C2B11086  18.790   3.105   6.287 -0.1581  0.1759 -0.0668
  693loPI   C3B11087  18.765   3.173   6.687 -0.0332 -0.2533 -0.1919
  693loPI   C4B11088  18.409   3.290   6.919  0.1791 -0.1588 -0.0851
  694loPI    C111089  11.555  15.496   4.345 -0.2326  0.2112  0.1548
  694loPI    C211090  11.276  15.760   4.232 -0.1684  0.1619 -0.1275
  694loPI    C311091  11.649  15.789   4.089 -0.1400 -0.0330 -0.0960
  694loPI   PO411092  11.453  15.515   4.690  0.0203  0.0013 -0.1779
  694loPI   GL111093  11.186  15.655   5.091  0.1391  0.3368 -0.1011
  694loPI   GL211094  11.504  15.415   5.159  0.3356 -0.3020 -0.1985
  694loPI   C1A11095  11.014  15.854   5.465  0.1161  0.3779  0.0909
  694loPI   C2A11096  10.857  15.711   5.799  0.3570  0.2043  0.0114
  694loPI   C3A11097  10.746  15.799   6.271 -0.2157  0.1750  0.1984
  694loPI   C4A11098  10.541  15.858   6.635 -0.2263  0.1706  0.1977
  694loPI   C5A11099  10.340  15.887   6.962  0.0684 -0.3663  0.1782
  694loPI   C6A11100   9.987  15.633   7.094  0.1003 -0.1024  0.2188
  694loPI   C1B11101  11.591  15.487   5.549 -0.0539  0.0747  0.1441
  694loPI   C2B11102  11.804  15.661   5.922 -0.1706 -0.0010  0.1210
  694loPI   C3B11103  11.956  15.636   6.334  0.0175 -0.1068  0.1607
  694loPI   C4B11104  11.976  15.633   6.757 -0.1259 -0.1414 -0.2078
  695loPI    C111105   5.537   5.878   4.555  0.1455 -0.1336 -0.1480
  695loPI    C211106   5.457   5.487   4.580 -0.1279 -0.0689  0.0278
  695loPI    C311107   5.357   5.691   4.251  0.0954 -0.1624 -0.1006
  695loPI   PO411108   5.791   5.885   4.714  0.0678 -0.3158 -0.1440
  695loPI   GL111109   5.935   6.022   5.037  0.0543 -0.0698  0.2435
  695loPI   GL211110   6.194   5.970   4.989  0.2375 -0.4428 -0.0330
  695loPI   C1A11111   5.966   5.971   5.443  0.1404  0.0798 -0.1316
  695loPI   C2A11112   5.589   6.007   5.665 -0.1948  0.0880  0.0058
  695loPI   C3A11113   5.395   5.835   6.106  0.0712 -0.0255 -0.1055
  695loPI   C4A11114   5.286   5.840   6.532 -0.3419 -0.1504 -0.0260
  695loPI   C5A11115   5.334   5.896   7.000 -0.0641 -0.2749 -0.0760
  695loPI   C6A11116   5.564   6.051   7.260 -0.5148 -0.0492 -0.1041
  695loPI   C1B11117   6.387   5.791   5.288  0.1028  0.1340  0.1555
  695loPI   C2B11118   6.407   5.728   5.732  0.0602  0.2249 -0.0881
  695loPI   C3B11119   6.343   5.790   6.184  0.1622  0.3703  0.4251
  695loPI   C4B11120   6.198   5.763   6.595  0.1250 -0.0527 -0.1307
  696loPI    C111121   8.395  17.005   4.506 -0.1815  0.0080  0.0833
  696loPI    C211122   8.265  16.764   4.215  0.1115  0.1620 -0.1817
  696loPI    C311123   8.318  17.153   4.143  0.0540  0.2285  0.1201
  696loPI   PO411124   8.286  16.996   4.661 -0.0806 -0.3346 -0.1231
  696loPI   GL111125   8.215  16.923   5.081 -0.2389 -0.2375  0.3253
  696loPI   GL211126   8.168  16.723   5.189  0.0538  0.0179 -0.1174
  696loPI   C1A11127   8.380  16.980   5.532 -0.0651  0.1142  0.2567
  696loPI   C2A11128   8.658  16.922   5.857 -0.3552 -0.0165 -0.1275
  696loPI   C3A11129   8.573  16.765   6.267  0.0043  0.1769 -0.1256
  696loPI   C4A11130   8.161  16.793   6.387 -0.2097 -0.3706  0.0375
  696loPI   C5A11131   8.019  16.489   6.695 -0.0373  0.3427 -0.0659
  696loPI   C6A11132   8.093  16.218   6.833 -0.1889 -0.2484  0.2316
  696loPI   C1B11133   8.238  16.437   5.449 -0.0713  0.2764 -0.1790
  696loPI   C2B11134   8.444  16.447   5.738 -0.2486 -0.1687 -0.0560
  696loPI   C3B11135   8.763  16.312   6.148 -0.1602 -0.3555 -0.2745
  696loPI   C4B11136   9.021  16.510   6.506 -0.2753 -0.0221  0.0151
  697loPI    C111137  16.863  10.811   3.977  0.0847 -0.2863  0.1637
  697loPI    C211138  16.590  10.589   3.786  0.0377  0.0831 -0.2142
  697loPI    C311139  16.964  10.612   3.644  0.1649 -0.1070  0.0793
  697loPI   PO411140  16.877  10.747   4.279  0.2692  0.2173  0.3314
  697loPI   GL111141  16.665  10.618   4.681 -0.1505 -0.2672  0.2628
  697loPI   GL211142  16.433  10.799   4.810 -0.0821  0.2435  0.0583
  697loPI   C1A11143  16.929  10.484   4.963 -0.0466  0.2861 -0.0424
  697loPI   C2A11144  17.210  10.457   5.308  0.1006  0.0518  0.0200
  697loPI   C3A11145  17.318  10.399   5.735  0.2171  0.0593 -0.1668
  697loPI   C4A11146  17.304  10.524   6.130  0.0316 -0.0963 -0.0692
  697loPI   C5A11147  17.271  10.874   6.310 -0.4574  0.4179  0.1480
  697loPI   C6A11148  17.468  11.277   6.429  0.2460  0.0575  0.0291
  697loPI   C1B11149  16.378  10.790   5.140 -0.2322  0.2658 -0.1490
  697loPI   C2B11150  16.238  10.783   5.601  0.1887 -0.4446  0.0966
  697loPI   C3B11151  16.295  10.677   6.055 -0.0377  0.0877  0.1504
  697loPI   C4B11152  16.408  10.733   6.538 -0.0446 -0.1765 -0.3140
  698loPI    C111153   7.748   8.006   4.666 -0.2211 -0.0553  0.0240
  698loPI    C211154   7.583   8.047   4.304 -0.2216  0.0623  0.0371
  698loPI    C311155   7.686   8.371   4.515  0.1924 -0.0096 -0.0463
  698loPI   PO411156   7.456   7.798   4.834  0.2528 -0.0574 -0.1571
  698loPI   GL111157   7.251   7.654   5.157  0.2424 -0.0569 -0.0192
  698loPI   GL211158   7.480   7.618   5.336 -0.1053  0.4335 -0.2266
  698loPI   C1A11159   7.004   7.441   5.579 -0.1012 -0.4544  0.0461
  698loPI   C2A11160   6.759   7.628   5.824 -0.0301  0.0547  0.0111
  698loPI   C3A11161   6.492   7.894   6.093 -0.4659 -0.0266  0.1356
  698loPI   C4A11162   6.242   8.229   6.377  0.0544 -0.0146  0.0556
  698loPI   C5A11163   6.218   8.410   6.824 -0.0585 -0.2776 -0.0939
  698loPI   C6A11164   6.146   8.403   7.309 -0.2815 -0.2783  0.2767
  698loPI   C1B11165   7.486   7.675   5.756 -0.0731 -0.2731  0.1010
  698loPI   C2B11166   7.565   8.008   6.069 -0.0751  0.2764 -0.0445
  698loPI   C3B11167   7.981   8.012   6.305  0.1636  0.3114 -0.1157
  698loPI   C4B11168   8.337   8.062   6.493 -0.0364  0.1692 -0.0391
  699loPI    C111169  15.211  17.205   4.725 -0.0182 -0.0054  0.0151
  699loPI    C211170  15.101  16.864   4.902  0.1914 -0.0365  0.0880
  699loPI    C311171  15.102  16.890   4.503  0.1740 -0.1209  0.0822
  699loPI   PO411172  15.473  17.271   5.022 -0.0727 -0.2733 -0.0920
  699loPI   GL111173  15.688  17.242   5.314  0.0449 -0.2765 -0.0517
  699loPI   GL211174  15.423  17.495   5.429 -0.0146 -0.3614 -0.2756
  699loPI   C1A11175  15.764  17.072   5.701 -0.1265  0.0106  0.2039
  699loPI   C2A11176  15.508  16.859   5.995 -0.1388 -0.2253 -0.2280
  699loPI   C3A11177  15.275  16.761   6.328  0.1077 -0.2340 -0.2267
  699loPI   C4A11178  15.084  16.679   6.759 -0.0828 -0.0937 -0.2853
  699loPI   C5A11179  15.244  16.515   7.135  0.0965 -0.5274  0.1204
  699loPI   C6A11180  15.216  16.671   7.536 -0.1339 -0.0240  0.2271
  699loPI   C1B11181  15.587  17.488   5.845  0.2323 -0.1059 -0.2915
  699loPI   C2B11182  15.575  17.302   6.224 -0.0394 -0.2767 -0.1204
  699loPI   C3B11183  15.358  17.095   6.635 -0.1706  0.1022  0.2070
  699loPI   C4B11184  15.394  17.027   7.122 -0.1399  0.1236 -0.1451
  700loPI    C111185   9.291   7.221   4.850 -0.1435  0.1574  0.3693
  700loPI    C211186   9.431   7.078   5.196  0.2400  0.0402  0.1722
  700loPI    C311187   9.655   7.327   4.977 -0.0851  0.2828  0.1064
  700loPI   PO411188   9.019   7.270   4.911 -0.2785  0.0408 -0.0802
  700loPI   GL111189   8.937   7.232   5.246 -0.0558  0.1968 -0.3242
  700loPI   GL211190   8.727   7.411   5.315 -0.2866  0.3347  0.1819
  700loPI   C1A11191   9.083   7.114   5.593 -0.0437  0.4212  0.1501
  700loPI   C2A11192   8.982   7.261   6.014 -0.1828 -0.1144 -0.1783
  700loPI   C3A11193   8.760   7.306   6.345  0.1940  0.0095 -0.1076
  700loPI   C4A11194   8.615   7.361   6.690 -0.0506  0.2950  0.1483
  700loPI   C5A11195   8.407   7.327   7.033  0.0396 -0.4126  0.0599
  700loPI   C6A11196   8.099   7.447   7.407  0.0157 -0.1857  0.2866
  700loPI   C1B11197   8.584   7.449   5.790  0.0879  0.1601 -0.1006
  700loPI   C2B11198   8.359   7.577   6.202 -0.0054  0.0737  0.3257
  700loPI   C3B11199   8.150   7.552   6.533 -0.2604 -0.1225 -0.1234
  700loPI   C4B11200   8.063   7.776   7.032 -0.0555 -0.2371 -0.0058
  701loPI    C111201   8.661  10.803   4.100 -0.0266 -0.1261  0.0633
  701loPI    C211202   8.290  10.885   3.975  0.1842  0.6566 -0.0990
  701loPI    C311203   8.586  10.841   3.709  0.2090 -0.0256  0.0261
  701loPI   PO411204   8.700  10.906   4.373 -0.0061 -0.0570  0.1947
  701loPI   GL111205   8.574  11.034   4.638 -0.1638  0.1749 -0.2969
  701loPI   GL211206   8.235  11.056   4.593  0.2023 -0.1640 -0.2847
  701loPI   C1A11207   8.754  10.895   5.045  0.1624  0.2201 -0.0219
  701loPI   C2A11208   8.843  11.091   5.369  0.2092  0.0242 -0.2425
  701loPI   C3A11209   8.774  11.012   5.756  0.4196 -0.0939  0.3703
  701loPI   C4A11210   8.527  11.220   6.046 -0.0059 -0.1413  0.1346
  701loPI   C5A11211   8.314  11.189   6.493  0.1340  0.1379  0.1728
  701loPI   C6A11212   8.081  11.079   6.876  0.1518  0.1575 -0.3682
  701loPI   C1B11213   8.360  11.129   5.079 -0.1735  0.1375  0.2022
  701loPI   C2B11214   8.404  10.817   5.401  0.0984 -0.1841  0.2818
  701loPI   C3B11215   8.192  10.789   5.783 -0.0650 -0.1177  0.3467
  701loPI   C4B11216   8.256  10.775   6.198 -0.0150 -0.1204 -0.0891
  702loPI    C111217   1.232  16.241   5.198 -0.2124 -0.1369 -0.3590
  702loPI    C211218   0.835  16.245   5.150 -0.2554  0.2675 -0.0196
  702loPI    C311219   1.027  16.578   5.262  0.1103 -0.0586  0.3578
  702loPI   PO411220   1.317  16.153   4.970 -0.0071 -0.0591  0.2073
  702loPI   GL111221   1.514  15.772   5.055  0.1625 -0.1250  0.2575
  702loPI   GL211222   1.595  15.477   4.981  0.2081 -0.1924  0.0411
  702loPI   C1A11223   1.264  15.651   5.363  0.0329  0.1034 -0.1368
  702loPI   C2A11224   1.424  15.388   5.734 -0.1288 -0.2837 -0.2481
  702loPI   C3A11225   1.641  15.332   6.083  0.1924  0.3597 -0.2257
  702loPI   C4A11226   1.787  15.485   6.448  0.0564  0.0752  0.0220
  702loPI   C5A11227   1.570  15.713   6.745 -0.3670 -0.0924 -0.0546
  702loPI   C6A11228   1.380  16.186   6.734 -0.1164  0.0838  0.1178
  702loPI   C1B11229   1.569  15.160   5.300  0.0274 -0.2150 -0.2899
  702loPI   C2B11230   1.450  14.888   5.684 -0.2265  0.2365  0.2467
  702loPI   C3B11231   1.492  14.702   6.109  0.1135 -0.1207  0.3019
  702loPI   C4B11232   1.650  14.935   6.432  0.1308 -0.2728 -0.2112
  703loPI    C111233   5.760   3.094   4.688  0.0175  0.0181  0.3670
  703loPI    C211234   5.585   2.761   4.553  0.2525 -0.0084  0.1170
  703loPI    C311235   5.366   3.088   4.623  0.0788 -0.0937 -0.0210
  703loPI   PO411236   5.880   3.042   4.906 -0.1633 -0.0247  0.1650
  703loPI   GL111237   5.828   3.043   5.340  0.1518  0.0588  0.0833
  703loPI   GL211238   5.692   3.355   5.266  0.0672  0.0574 -0.0891
  703loPI   C1A11239   5.750   3.209   5.722  0.2702 -0.0418  0.3857
  703loPI   C2A11240   5.953   3.149   6.025 -0.0264 -0.0114  0.0179
  703loPI   C3A11241   6.119   3.206   6.388 -0.1560  0.2143  0.3741
  703loPI   C4A11242   6.373   3.087   6.720  0.2840 -0.2974 -0.1407
  703loPI   C5A11243   6.442   3.456   6.919 -0.0707  0.1464  0.0953
  703loPI   C6A11244   6.338   3.772   7.123 -0.2711 -0.0620  0.1890
  703loPI   C1B11245   5.584   3.621   5.561  0.2539  0.2911 -0.1352
  703loPI   C2B11246   5.380   3.598   5.954  0.2376  0.0704  0.1061
  703loPI   C3B11247   5.466   3.267   6.310 -0.1779 -0.3024  0.2792
  703loPI   C4B11248   5.703   3.072   6.556  0.0197  0.4014 -0.0007
  704loPI    C111249   6.865   4.408   4.234 -0.0766 -0.1269 -0.1300
  704loPI    C211250   7.060   4.608   3.948 -0.0471 -0.0226 -0.0380
  704loPI    C311251   6.989   4.216   3.906  0.0060 -0.0195 -0.1621
  704loPI   PO411252   6.943   4.380   4.514 -0.0423 -0.0587 -0.0276
  704loPI   GL111253   6.987   4.518   5.035  0.1790 -0.1529 -0.1951
  704loPI   GL211254   6.849   4.750   4.887 -0.0308 -0.0637  0.1090
  704loPI   C1A11255   7.032   4.407   5.545  0.1911  0.0504  0.1489
  704loPI   C2A11256   6.986   4.183   5.914 -0.0031 -0.0523  0.2836
  704loPI   C3A11257   7.072   4.193   6.453  0.1455  0.3066  0.0819
  704loPI   C4A11258   7.478   4.283   6.775  0.0745 -0.1673 -0.1191
  704loPI   C5A11259   7.633   4.362   7.200 -0.2197 -0.3352 -0.1302
  704loPI   C6A11260   7.994   4.513   7.549  0.0124 -0.1949  0.0636
  704loPI   C1B11261   6.978   4.895   5.331  0.1423 -0.2238  0.1163
  704loPI   C2B11262   6.913   4.918   5.723 -0.3068  0.0647 -0.1247
  704loPI   C3B11263   6.722   4.997   6.062 -0.0163 -0.1503  0.2813
  704loPI   C4B11264   6.418   5.288   6.234  0.0403  0.1017 -0.2747
  705loPI    C111265  11.448   7.613   4.604  0.1623 -0.0534 -0.0690
  705loPI    C211266  11.787   7.798   4.499  0.2411 -0.2158 -0.1028
  705loPI    C311267  11.593   7.569   4.234  0.0162  0.0066 -0.1346
  705loPI   PO411268  11.399   7.693   4.900  0.1138  0.1129 -0.2327
  705loPI   GL111269  11.531   7.506   5.346 -0.0813  0.0308 -0.3366
  705loPI   GL211270  11.270   7.257   5.534  0.0752 -0.0420 -0.1037
  705loPI   C1A11271  11.557   7.516   5.813 -0.2180  0.2445  0.0026
  705loPI   C2A11272  11.709   7.671   6.296  0.0896  0.3268  0.1523
  705loPI   C3A11273  11.992   7.879   6.531  0.0791 -0.0432 -0.1843
  705loPI   C4A11274  12.210   8.289   6.718  0.3432 -0.2678  0.0739
  705loPI   C5A11275  12.274   8.540   7.061  0.0212 -0.3322 -0.0431
  705loPI   C6A11276  12.153   8.636   7.482 -0.0064  0.0163  0.1465
  705loPI   C1B11277  11.119   7.375   5.821  0.1444 -0.0238  0.2340
  705loPI   C2B11278  11.286   7.426   6.284 -0.1930 -0.1949  0.2316
  705loPI   C3B11279  11.513   7.321   6.626  0.2030 -0.3289 -0.0940
  705loPI   C4B11280  11.900   7.502   6.891 -0.0151  0.2414  0.0609
  706loPI    C111281   4.839   3.979   4.742  0.1350  0.1015  0.2028
  706loPI    C211282   5.222   3.957   4.630  0.0385  0.2527 -0.1725
  706loPI    C311283   4.933   3.848   4.376 -0.1691  0.1194  0.1152
  706loPI   PO411284   4.800   3.892   5.033 -0.3569 -0.1437  0.2916
  706loPI   GL111285   4.728   3.994   5.434  0.2441  0.0060  0.0305
  706loPI   GL211286   4.991   3.903   5.537  0.0281 -0.1782 -0.1838
  706loPI   C1A11287   4.685   4.130   5.913  0.2006  0.1577  0.0609
  706loPI   C2A11288   4.907   4.066   6.266 -0.0306 -0.0818 -0.2001
  706loPI   C3A11289   4.976   4.396   6.443 -0.0808  0.1503 -0.2445
  706loPI   C4A11290   5.044   4.781   6.629  0.0765 -0.1931  0.0590
  706loPI   C5A11291   5.352   4.923   6.983  0.0412  0.1403 -0.0928
  706loPI   C6A11292   5.550   5.012   7.315  0.1001  0.3442  0.1951
  706loPI   C1B11293   4.875   3.669   5.802  0.2144  0.0985 -0.0473
  706loPI   C2B11294   4.627   3.687   6.205  0.1684  0.0119  0.0407
  706loPI   C3B11295   4.564   3.602   6.643  0.2617  0.3137  0.0053
  706loPI   C4B11296   4.113   3.470   6.832  0.1500  0.1417  0.0155
  707loPI    C111297   0.523   6.339   4.432  0.2003 -0.1072  0.0440
  707loPI    C211298   0.780   6.410   4.133 -0.0796  0.0373 -0.1676
  707loPI    C311299   0.393   6.346   4.054 -0.2099  0.3525  0.1822
  707loPI   PO411300   0.619   6.404   4.645 -0.3016 -0.1078  0.0844
  707loPI   GL111301   0.625   6.051   5.021 -0.1821 -0.0591 -0.4659
  707loPI   GL211302   0.961   6.277   4.971  0.3995 -0.0981 -0.1612
  707loPI   C1A11303   0.510   6.205   5.394 -0.1023 -0.3623 -0.0739
  707loPI   C2A11304   0.581   6.219   5.843  0.2182 -0.0855  0.0867
  707loPI   C3A11305   0.540   6.187   6.306 -0.0484  0.1087 -0.2581
  707loPI   C4A11306   0.552   6.055   6.698 -0.6198  0.0098 -0.0799
  707loPI   C5A11307   0.235   5.732   6.939  0.2080  0.1214  0.1138
  707loPI   C6A11308   0.065   5.500   7.147  0.0088  0.0659 -0.0241
  707loPI   C1B11309   0.989   6.472   5.389 -0.3064 -0.1340  0.0751
  707loPI   C2B11310   0.908   6.618   5.742 -0.1793  0.4650  0.0453
  707loPI   C3B11311   0.828   6.543   6.160  0.3209  0.2325 -0.0666
  707loPI   C4B11312   0.914   6.457   6.540  0.1462  0.0848 -0.3818
  708loPI    C111313   0.639  16.725   4.809  0.0561  0.0707 -0.1129
  708loPI    C211314   0.957  16.487   4.764  0.1735  0.2433 -0.2058
  708loPI    C311315   0.756  16.615   4.443  0.2680  0.4782 -0.1737
  708loPI   PO411316   0.482  16.594   5.015 -0.1958  0.1908 -0.0462
  708loPI   GL111317   0.546  16.588   5.446  0.2385 -0.0767  0.1907
  708loPI   GL211318   0.477  16.339   5.458  0.0254  0.2559 -0.1361
  708loPI   C1A11319   0.641  16.537   5.884 -0.1488 -0.0213 -0.2424
  708loPI   C2A11320   0.687  16.563   6.327 -0.4753 -0.1731 -0.2015
  708loPI   C3A11321   0.681  16.715   6.803 -0.1584 -0.1776  0.2108
  708loPI   C4A11322   0.826  16.492   7.142 -0.2636  0.2647  0.0350
  708loPI   C5A11323   1.195  16.282   7.163  0.1620  0.2314  0.0897
  708loPI   C6A11324   1.378  15.892   7.167  0.0433 -0.1169  0.1776
  708loPI   C1B11325   0.088  16.353   5.771  0.2174  0.2924  0.1054
  708loPI   C2B11326  -0.098  15.992   5.933 -0.1779  0.0476 -0.1342
  708loPI   C3B11327  -0.096  15.917   6.422  0.1328  0.2579 -0.2333
  708loPI   C4B11328  -0.270  15.751   6.755  0.1933  0.0320 -0.0620
  709loPI    C111329  11.230  12.146   4.522  0.3845  0.3756  0.3967
  709loPI    C211330  11.453  12.130   4.190 -0.1577  0.1185  0.0297
  709loPI    C311331  11.494  11.850   4.473  0.0454  0.1263  0.0096
  709loPI   PO411332  11.279  12.358   4.649  0.3289 -0.0820 -0.0031
  709loPI   GL111333  11.068  12.529   4.983  0.0382 -0.4076 -0.1324
  709loPI   GL211334  10.825  12.501   5.153  0.1571 -0.4029 -0.2656
  709loPI   C1A11335  11.312  12.494   5.288  0.0321  0.1444 -0.0821
  709loPI   C2A11336  11.511  12.391   5.589  0.0063 -0.0224  0.0149
  709loPI   C3A11337  11.620  12.487   6.046 -0.2200  0.0628 -0.1103
  709loPI   C4A11338  11.590  12.422   6.466 -0.1151  0.2468  0.0880
  709loPI   C5A11339  11.278  12.578   6.796  0.1648 -0.1470  0.2096
  709loPI   C6A11340  11.165  12.541   7.129 -0.2343 -0.2538  0.1100
  709loPI   C1B11341  10.790  12.222   5.549  0.2036 -0.2655  0.2270
  709loPI   C2B11342  10.708  12.071   6.019  0.1894 -0.3533 -0.1863
  709loPI   C3B11343  10.590  12.003   6.494 -0.0285  0.3020 -0.2577
  709loPI   C4B11344  10.537  11.763   6.762  0.0701 -0.1042  0.2403
  710loPI    C111345  10.631  12.643   4.525 -0.0010 -0.0488  0.0277
  710loPI    C211346  10.685  12.989   4.331  0.2907 -0.0619  0.0803
  710loPI    C311347  10.732  12.642   4.138 -0.0037 -0.0752  0.0271
  710loPI   PO411348  10.422  12.622   4.655  0.3261 -0.0261  0.1472
  710loPI   GL111349  10.164  12.807   5.046  0.0555  0.1123  0.0027
  710loPI   GL211350  10.230  13.061   5.227 -0.2135 -0.1837  0.2646
  710loPI   C1A11351  10.334  12.531   5.334 -0.0159  0.2522  0.2100
  710loPI   C2A11352  10.546  12.551   5.810 -0.0780 -0.2453 -0.0899
  710loPI   C3A11353  10.756  12.510   6.252 -0.3633  0.2511 -0.0900
  710loPI   C4A11354  10.979  12.346   6.509  0.1646  0.1465  0.1625
  710loPI   C5A11355  10.964  12.178   6.852 -0.1782 -0.0930  0.1035
  710loPI   C6A11356  10.913  11.916   7.095 -0.1114 -0.0888  0.3234
  710loPI   C1B11357  10.629  12.950   5.309 -0.1154  0.0770  0.1084
  710loPI   C2B11358  11.005  12.748   5.526  0.1192  0.2957  0.0819
  710loPI   C3B11359  11.092  12.459   5.857 -0.0036  0.0350 -0.3367
  710loPI   C4B11360  11.189  12.178   6.097  0.0659  0.1093  0.1129
  711loPI    C111361  19.531   5.764   4.227  0.0174 -0.2639  0.2042
  711loPI    C211362  19.134   5.810   4.207  0.1006  0.4244 -0.1604
  711loPI    C311363  19.332   5.635   3.906  0.0870  0.1403 -0.0077
  711loPI   PO411364  19.550   6.076   4.365  0.0384  0.0363  0.3235
  711loPI   GL111365  19.606   6.181   4.868  0.0063  0.1099  0.0315
  711loPI   GL211366  19.503   5.849   4.770  0.2132 -0.0868  0.0840
  711loPI   C1A11367  19.426   6.420   5.316 -0.0457 -0.0683 -0.1242
  711loPI   C2A11368  19.551   6.326   5.769  0.1293 -0.1363  0.0782
  711loPI   C3A11369  19.508   6.395   6.196  0.1864 -0.2772  0.1901
  711loPI   C4A11370  19.597   6.381   6.659 -0.0892  0.1898  0.1135
  711loPI   C5A11371  19.536   6.241   7.065 -0.3286  0.2531 -0.0216
  711loPI   C6A11372  19.405   6.247   7.448 -0.3481  0.1602 -0.0797
  711loPI   C1B11373  19.605   5.798   5.218  0.0544  0.2268  0.2852
  711loPI   C2B11374  19.670   5.817   5.655 -0.0942 -0.0695 -0.0823
  711loPI   C3B11375  19.682   5.842   6.035 -0.0860  0.1312 -0.1428
  711loPI   C4B11376  19.621   5.846   6.428  0.0744 -0.0219  0.2910
  712loPI    C111377  10.369   8.001   4.733  0.0788  0.2476 -0.0419
  712loPI    C211378  10.473   7.820   4.392  0.1166  0.1571  0.0174
  712loPI    C311379  10.159   8.067   4.400 -0.0323 -0.0284 -0.0290
  712loPI   PO411380  10.561   8.152   4.860  0.0294  0.2056 -0.1134
  712loPI   GL111381  10.586   8.373   5.277  0.1203 -0.2161 -0.2774
  712loPI   GL211382  10.979   8.507   5.258 -0.1656 -0.1665 -0.1369
  712loPI   C1A11383  10.439   8.184   5.674  0.3140  0.3362 -0.5376
  712loPI   C2A11384  10.296   8.164   6.131  0.0360  0.3035 -0.4358
  712loPI   C3A11385  10.231   8.384   6.601  0.1967  0.1092  0.0972
  712loPI   C4A11386  10.213   8.352   7.080 -0.0327 -0.3440  0.1528
  712loPI   C5A11387  10.324   8.579   7.467  0.2119 -0.0115 -0.0743
  712loPI   C6A11388  10.128   8.493   7.919 -0.0970  0.1573 -0.0681
  712loPI   C1B11389  10.822   8.552   5.674  0.1181  0.1557  0.0649
  712loPI   C2B11390  10.518   8.628   6.044  0.1276  0.1604 -0.2085
  712loPI   C3B11391  10.595   8.868   6.388  0.1370 -0.1152 -0.1223
  712loPI   C4B11392  10.541   8.962   6.907  0.0650  0.0960  0.0046
  713loPI    C111393  15.982  11.205   4.537  0.1330 -0.0978  0.1903
  713loPI    C211394  16.131  11.384   4.211 -0.0875 -0.2105  0.0255
  713loPI    C311395  15.735  11.343   4.254 -0.0779  0.0853  0.4584
  713loPI   PO411396  16.104  11.325   4.797  0.0433 -0.1333 -0.0221
  713loPI   GL111397  15.933  11.538   5.043 -0.1856 -0.2991 -0.1607
  713loPI   GL211398  15.701  11.799   5.111 -0.1038 -0.0028  0.2793
  713loPI   C1A11399  15.872  11.560   5.530  0.1190 -0.2251 -0.0309
  713loPI   C2A11400  15.799  11.640   5.912 -0.1840  0.3571 -0.2311
  713loPI   C3A11401  15.889  11.483   6.319  0.0457 -0.2482 -0.0746
  713loPI   C4A11402  15.737  11.210   6.525  0.0173  0.3279 -0.0594
  713loPI   C5A11403  15.484  10.919   6.781 -0.0290 -0.2243  0.2679
  713loPI   C6A11404  15.574  10.550   6.921 -0.1648  0.0797  0.2063
  713loPI   C1B11405  15.514  11.965   5.417 -0.2209  0.1262  0.0615
  713loPI   C2B11406  15.313  12.145   5.827 -0.0713  0.0515  0.1631
  713loPI   C3B11407  15.380  12.099   6.183  0.2686 -0.1303  0.3568
  713loPI   C4B11408  15.710  12.176   6.486  0.0106 -0.0595 -0.0733
  714loPI    C111409   1.320  18.132   4.630 -0.0026 -0.2157 -0.1464
  714loPI    C211410   0.962  18.180   4.457 -0.0446 -0.1793 -0.0501
  714loPI    C311411   1.280  18.377   4.316 -0.1507  0.1338  0.1376
  714loPI   PO411412   1.113  18.013   4.953 -0.1942  0.2850 -0.2527
  714loPI   GL111413   1.034  18.120   5.314 -0.3932  0.0168 -0.0375
  714loPI   GL211414   1.295  17.837   5.387  0.1802 -0.2185 -0.0550
  714loPI   C1A11415   0.982  18.134   5.721 -0.1743 -0.0956  0.0917
  714loPI   C2A11416   0.732  18.021   6.045  0.1686  0.2908 -0.1618
  714loPI   C3A11417   0.574  18.089   6.361 -0.2996 -0.2658  0.4778
  714loPI   C4A11418   0.692  17.977   6.840 -0.3592  0.2161 -0.0105
  714loPI   C5A11419   0.558  17.609   7.219 -0.2231  0.1391 -0.4009
  714loPI   C6A11420   0.749  17.207   7.412 -0.2591 -0.4449  0.0564
  714loPI   C1B11421   1.144  17.680   5.737 -0.1282  0.0059  0.1478
  714loPI   C2B11422   1.128  17.543   6.147  0.2484  0.1022 -0.4377
  714loPI   C3B11423   1.348  17.563   6.529 -0.2593 -0.2522  0.3895
  714loPI   C4B11424   1.422  17.624   6.842 -0.1023  0.0449  0.0755
  715loPI    C111425   9.637  18.057   4.691  0.1217  0.1495 -0.2205
  715loPI    C211426   9.760  17.759   4.454  0.2930  0.1637 -0.1506
  715loPI    C311427   9.381  17.884   4.437  0.1953 -0.1200 -0.1150
  715loPI   PO411428   9.714  18.089   4.971 -0.0653 -0.2652 -0.1217
  715loPI   GL111429   9.646  18.260   5.463 -0.1302 -0.2921 -0.1556
  715loPI   GL211430   9.335  18.146   5.482 -0.1059  0.0535 -0.0011
  715loPI   C1A11431   9.976  18.362   5.760  0.1499  0.2190  0.0892
  715loPI   C2A11432   9.905  18.712   6.076  0.1778 -0.4205 -0.0161
  715loPI   C3A11433   9.762  18.994   6.494 -0.0597  0.2348 -0.2262
  715loPI   C4A11434   9.696  18.728   6.927  0.1606 -0.1638 -0.1057
  715loPI   C5A11435   9.844  18.411   7.079 -0.0253  0.0722  0.3544
  715loPI   C6A11436   9.692  18.085   7.325 -0.2357 -0.0007  0.0934
  715loPI   C1B11437   9.300  18.208   5.970 -0.3039 -0.0044 -0.2351
  715loPI   C2B11438   8.954  18.296   6.213  0.1210 -0.0286 -0.1546
  715loPI   C3B11439   8.911  18.332   6.606  0.1953 -0.0705 -0.0053
  715loPI   C4B11440   8.900  18.079   6.897 -0.0168  0.1784  0.3431
  716loPI    C111441  17.820  12.306   4.274  0.1059 -0.1118  0.1868
  716loPI    C211442  17.843  12.669   4.440 -0.0025  0.0611 -0.1681
  716loPI    C311443  18.172  12.446   4.401  0.0775  0.1515 -0.0172
  716loPI   PO411444  17.705  12.139   4.448  0.0730 -0.0116 -0.1760
  716loPI   GL111445  17.881  11.836   4.814 -0.4226  0.3701 -0.1628
  716loPI   GL211446  17.921  12.237   4.892  0.0730  0.1310  0.0007
  716loPI   C1A11447  18.240  11.975   5.122 -0.1103 -0.1140 -0.1732
  716loPI   C2A11448  18.261  12.087   5.558 -0.3014 -0.0992 -0.0524
  716loPI   C3A11449  18.242  12.057   5.953 -0.1637 -0.1513 -0.1910
  716loPI   C4A11450  18.271  11.825   6.336  0.1862 -0.0306  0.1308
  716loPI   C5A11451  18.277  11.772   6.795 -0.1848  0.0598  0.1893
  716loPI   C6A11452  18.440  11.842   7.250  0.3310 -0.1656 -0.1643
  716loPI   C1B11453  17.802  12.133   5.364 -0.3728  0.4288 -0.0089
  716loPI   C2B11454  17.740  12.089   5.722 -0.2837 -0.2035 -0.0819
  716loPI   C3B11455  17.801  12.025   6.230 -0.1541  0.0232  0.2907
  716loPI   C4B11456  17.872  12.061   6.682 -0.0657  0.4036 -0.2097
  717loPI    C111457  14.802  18.205   5.022 -0.0826 -0.1437 -0.0846
  717loPI    C211458  15.142  18.092   4.843  0.0259  0.0428  0.0008
  717loPI    C311459  14.803  18.118   4.631  0.0296 -0.2957 -0.0513
  717loPI   PO411460  14.878  18.180   5.259  0.1456 -0.0225  0.1398
  717loPI   GL111461  14.857  18.042   5.622 -0.1944 -0.0586 -0.0227
  717loPI   GL211462  14.623  18.306   5.671 -0.0300  0.3152 -0.0057
  717loPI   C1A11463  15.194  18.269   5.811 -0.0256 -0.1095 -0.0374
  717loPI   C2A11464  15.540  18.113   5.778 -0.0007 -0.1467  0.1704
  717loPI   C3A11465  15.878  17.965   5.990 -0.0891 -0.1779 -0.1444
  717loPI   C4A11466  15.918  17.673   6.327 -0.2554 -0.3898  0.1110
  717loPI   C5A11467  15.684  17.515   6.721  0.1836  0.3868  0.0517
  717loPI   C6A11468  15.791  17.275   7.094 -0.1843  0.1423  0.1160
  717loPI   C1B11469  14.752  18.035   6.093 -0.1680  0.1254  0.0609
  717loPI   C2B11470  14.992  18.149   6.397  0.1917 -0.4671 -0.0743
  717loPI   C3B11471  15.086  18.132   6.827  0.0626 -0.1145  0.1803
  717loPI   C4B11472  15.307  18.020   7.080 -0.1092 -0.0582 -0.0629
  718loPI    C111473  15.634  16.915   4.642 -0.0743  0.1683  0.2331
  718loPI    C211474  15.914  17.156   4.796  0.1805  0.1221 -0.1437
  718loPI    C311475  15.797  17.203   4.417 -0.1748  0.0059 -0.0524
  718loPI   PO411476  15.627  16.719   4.807  0.2597  0.3274 -0.1260
  718loPI   GL111477  15.528  16.691   5.185 -0.1003  0.0866  0.0452
  718loPI   GL211478  15.370  16.862   5.301  0.0605  0.1472 -0.0925
  718loPI   C1A11479  15.308  16.528   5.642  0.1897 -0.0048 -0.1676
  718loPI   C2A11480  15.221  16.386   6.015 -0.1754 -0.1384 -0.1793
  718loPI   C3A11481  15.198  16.286   6.396 -0.1915  0.1793  0.5456
  718loPI   C4A11482  15.270  16.208   6.813  0.0194  0.0105  0.0401
  718loPI   C5A11483  15.579  16.212   7.164 -0.1626  0.1561  0.0681
  718loPI   C6A11484  16.030  16.220   7.377 -0.0844  0.0302 -0.0957
  718loPI   C1B11485  15.239  17.045   5.651 -0.1895  0.0456  0.2685
  718loPI   C2B11486  15.044  17.054   6.066  0.0460  0.1022  0.1435
  718loPI   C3B11487  14.876  17.105   6.458 -0.1768 -0.1516  0.0742
  718loPI   C4B11488  14.914  17.221   6.880 -0.4620  0.1215 -0.1625
  719loPI    C111489   2.940   8.900   4.201 -0.0428 -0.1403 -0.2922
  719loPI    C211490   3.308   8.980   4.334 -0.1489 -0.1208 -0.0016
  719loPI    C311491   3.249   8.678   4.079  0.0646 -0.1342 -0.0377
  719loPI   PO411492   2.754   8.904   4.466 -0.0144 -0.1281 -0.1165
  719loPI   GL111493   2.635   8.976   4.821  0.3028 -0.0020  0.2340
  719loPI   GL211494   2.889   9.117   5.062 -0.1011 -0.3496 -0.2269
  719loPI   C1A11495   2.306   8.923   5.072  0.1485  0.1310  0.2097
  719loPI   C2A11496   2.331   8.748   5.541  0.2632  0.1792  0.1986
  719loPI   C3A11497   2.294   9.163   5.704  0.1350 -0.1156 -0.0093
  719loPI   C4A11498   2.335   9.457   6.035 -0.1002  0.0510 -0.1877
  719loPI   C5A11499   2.398   9.757   6.398 -0.0337 -0.1503  0.1830
  719loPI   C6A11500   2.567  10.103   6.713 -0.2468 -0.1415  0.1645
  719loPI   C1B11501   2.611   9.264   5.321  0.2314  0.0286 -0.0228
  719loPI   C2B11502   2.438   9.628   5.540  0.0793 -0.1077 -0.2070
  719loPI   C3B11503   2.306   9.946   5.837 -0.0088  0.0215 -0.1759
  719loPI   C4B11504   2.626  10.148   6.229  0.1105 -0.0105  0.0339
  720loPI    C111505  10.906  13.708   4.631 -0.2886  0.0579  0.0042
  720loPI    C211506  11.003  13.360   4.459 -0.3399  0.0287  0.0345
  720loPI    C311507  11.203  13.692   4.363 -0.1796 -0.0392  0.1298
  720loPI   PO411508  10.940  13.556   4.928 -0.0320 -0.1786 -0.1284
  720loPI   GL111509  11.055  13.284   5.283 -0.2289 -0.1970  0.2750
  720loPI   GL211510  10.887  13.554   5.456  0.2361  0.1606  0.0293
  720loPI   C1A11511  11.260  13.430   5.723  0.0823  0.0711 -0.0050
  720loPI   C2A11512  11.391  13.727   6.036  0.2552  0.0431 -0.0304
  720loPI   C3A11513  11.331  13.994   6.465 -0.1696 -0.1714 -0.0846
  720loPI   C4A11514  11.269  14.128   6.988 -0.2520 -0.0387  0.0412
  720loPI   C5A11515  11.453  14.123   7.440  0.1411 -0.1831  0.0643
  720loPI   C6A11516  11.320  14.189   7.826 -0.2356 -0.2159 -0.2258
  720loPI   C1B11517  10.862  13.623   5.922  0.0106  0.1828 -0.0252
  720loPI   C2B11518  10.847  13.736   6.339 -0.1081 -0.0894 -0.4338
  720loPI   C3B11519  10.504  13.844   6.662 -0.1911  0.2154 -0.0770
  720loPI   C4B11520  10.329  14.006   7.083 -0.0640  0.2939 -0.5020
  721loPI    C111521   1.666   1.532   4.727  0.1550  0.3676 -0.1632
  721loPI    C211522   2.064   1.545   4.764  0.1673  0.0136 -0.1348
  721loPI    C311523   1.900   1.450   4.412  0.1085  0.0676 -0.1222
  721loPI   PO411524   1.607   1.601   4.965  0.0515 -0.3137  0.3554
  721loPI   GL111525   1.740   1.678   5.326  0.2617 -0.2469 -0.1145
  721loPI   GL211526   2.050   1.734   5.240  0.0500 -0.3733  0.1809
  721loPI   C1A11527   1.934   1.753   5.763  0.2238  0.0749 -0.1375
  721loPI   C2A11528   2.115   1.751   6.209 -0.1576  0.2543  0.1447
  721loPI   C3A11529   2.120   1.949   6.649  0.0759  0.2744 -0.0961
  721loPI   C4A11530   2.193   1.960   7.052  0.1645  0.2375  0.0370
  721loPI   C5A11531   2.216   2.249   7.359  0.1127  0.1201 -0.2190
  721loPI   C6A11532   1.969   2.480   7.519 -0.0554  0.1158  0.0580
  721loPI   C1B11533   2.367   1.638   5.566  0.0564  0.1964 -0.0288
  721loPI   C2B11534   2.568   1.605   5.999 -0.2206  0.0120  0.1868
  721loPI   C3B11535   2.438   1.264   6.231  0.2624  0.0666  0.3507
  721loPI   C4B11536   2.759   0.920   6.227 -0.3078 -0.2016 -0.2799
  722loPI    C111537   4.433  11.436   4.648 -0.0712 -0.0470  0.0451
  722loPI    C211538   4.486  11.829   4.599  0.0508 -0.0906 -0.1888
  722loPI    C311539   4.117  11.675   4.600 -0.0044  0.0382  0.0270
  722loPI   PO411540   4.524  11.399   4.870  0.2420  0.0460  0.1168
  722loPI   GL111541   4.355  11.738   5.153  0.1779  0.1595  0.0042
  722loPI   GL211542   4.678  11.818   5.140  0.0414 -0.1102 -0.0695
  722loPI   C1A11543   4.140  11.728   5.506 -0.0321  0.3065 -0.0566
  722loPI   C2A11544   4.313  11.766   5.991  0.0871 -0.0751  0.1075
  722loPI   C3A11545   4.483  12.063   6.358  0.0478 -0.0746 -0.2364
  722loPI   C4A11546   4.497  12.236   6.733 -0.0984 -0.1433 -0.2716
  722loPI   C5A11547   4.655  12.578   7.051 -0.1979 -0.1030  0.0525
  722loPI   C6A11548   4.633  12.530   7.503  0.2134  0.2103  0.1428
  722loPI   C1B11549   4.554  11.955   5.548 -0.0509 -0.1340 -0.1841
  722loPI   C2B11550   4.742  12.151   5.941  0.2131 -0.1823 -0.0326
  722loPI   C3B11551   4.810  12.376   6.164 -0.0104 -0.0268 -0.1482
  722loPI   C4B11552   4.882  12.763   5.919  0.0046  0.2476 -0.2856
  723loPI    C111553  17.094   9.354   4.051  0.1326 -0.1977 -0.0265
  723loPI    C211554  16.745   9.174   3.974  0.0414 -0.1082  0.1689
  723loPI    C311555  17.073   9.073   3.768 -0.1655  0.0368 -0.2431
  723loPI   PO411556  17.112   9.304   4.328 -0.0890  0.2126  0.1574
  723loPI   GL111557  17.227   9.090   4.673 -0.0845  0.2189  0.0153
  723loPI   GL211558  16.990   9.433   4.759  0.0612 -0.1821 -0.2548
  723loPI   C1A11559  17.073   9.042   5.069 -0.2176  0.1759 -0.2137
  723loPI   C2A11560  17.024   9.099   5.526  0.0496 -0.0490  0.2052
  723loPI   C3A11561  17.168   9.020   5.786 -0.0427 -0.0826  0.0204
  723loPI   C4A11562  17.046   9.058   6.257  0.0518 -0.1496 -0.3595
  723loPI   C5A11563  16.792   9.310   6.626  0.0501  0.2478  0.1495
  723loPI   C6A11564  16.675   9.756   6.720 -0.0527  0.1667 -0.2139
  723loPI   C1B11565  16.648   9.232   5.177 -0.1917  0.3863 -0.2911
  723loPI   C2B11566  16.558   9.189   5.632 -0.1397 -0.2131 -0.2298
  723loPI   C3B11567  16.645   9.269   6.134  0.2141 -0.0574 -0.2327
  723loPI   C4B11568  16.516   9.646   6.260  0.1675 -0.0136 -0.0023
  724loPI    C111569  10.553   2.268   4.583  0.0178 -0.0838  0.0965
  724loPI    C211570  10.200   2.125   4.461  0.0942 -0.1283 -0.0756
  724loPI    C311571  10.372   2.428   4.264  0.0189  0.0840  0.1790
  724loPI   PO411572  10.548   2.333   4.820  0.0602  0.2330 -0.1737
  724loPI   GL111573  10.494   2.187   5.242 -0.0096  0.0877  0.4240
  724loPI   GL211574  10.761   2.416   5.351 -0.0919  0.1713  0.1431
  724loPI   C1A11575  10.429   2.013   5.699 -0.2996  0.1277 -0.0314
  724loPI   C2A11576  10.312   1.907   6.147  0.0169 -0.2846  0.1819
  724loPI   C3A11577  10.075   1.729   6.546  0.2138  0.0738  0.1814
  724loPI   C4A11578   9.748   1.496   6.841 -0.1314 -0.1525 -0.0205
  724loPI   C5A11579   9.312   1.448   7.018  0.0181  0.1993 -0.3056
  724loPI   C6A11580   8.955   1.579   7.353  0.2638 -0.2113  0.2335
  724loPI   C1B11581  10.818   2.546   5.797 -0.1279 -0.0463  0.0716
  724loPI   C2B11582  11.090   2.530   6.170 -0.1483  0.2211  0.2418
  724loPI   C3B11583  11.230   2.422   6.552 -0.3138  0.1471  0.0076
  724loPI   C4B11584  11.090   2.325   6.913 -0.1458  0.2157  0.0099
  725loPI    C111585  16.578  13.178   4.465 -0.2365  0.0984  0.0200
  725loPI    C211586  16.584  12.867   4.213  0.3438  0.1116  0.0049
  725loPI    C311587  16.390  13.203   4.112 -0.1373 -0.1745 -0.0544
  725loPI   PO411588  16.633  13.086   4.760  0.0879  0.0676  0.3125
  725loPI   GL111589  16.750  12.829   5.080  0.0877 -0.0457 -0.0297
  725loPI   GL211590  16.970  12.626   4.936 -0.0039  0.3594  0.3363
  725loPI   C1A11591  16.680  12.905   5.449  0.2002  0.1236 -0.1484
  725loPI   C2A11592  16.573  12.847   5.810  0.0529 -0.2031 -0.2979
  725loPI   C3A11593  16.460  12.749   6.246  0.4800 -0.0812  0.1492
  725loPI   C4A11594  16.307  12.918   6.584  0.4099 -0.1500 -0.1570
  725loPI   C5A11595  16.383  13.138   7.022 -0.2191  0.2763 -0.0396
  725loPI   C6A11596  16.708  13.087   7.271  0.1819  0.0549  0.2948
  725loPI   C1B11597  16.872  12.472   5.352  0.4134  0.1836 -0.3573
  725loPI   C2B11598  16.789  12.165   5.727 -0.0926  0.1658 -0.0426
  725loPI   C3B11599  16.936  11.801   5.766 -0.3859 -0.0923 -0.0652
  725loPI   C4B11600  16.710  11.486   5.824  0.4786  0.4672 -0.2313
  726loPI    C111601   7.140   0.065   4.886 -0.1147  0.0485 -0.0200
  726loPI    C211602   7.176   0.162   4.500  0.0798  0.0741  0.0036
  726loPI    C311603   6.865   0.298   4.712 -0.0219  0.0688 -0.1402
  726loPI   PO411604   7.332   0.142   4.961 -0.0673 -0.0850 -0.0275
  726loPI   GL111605   7.413   0.231   5.447  0.1262 -0.1235 -0.0629
  726loPI   GL211606   7.646  -0.064   5.387 -0.0956  0.1142 -0.0952
  726loPI   C1A11607   7.450   0.454   5.903  0.0444 -0.0558 -0.0257
  726loPI   C2A11608   7.573   0.496   6.348  0.1375  0.0215 -0.1498
  726loPI   C3A11609   7.454   0.513   6.835 -0.0645  0.0339 -0.1785
  726loPI   C4A11610   7.278   0.330   7.224  0.4193  0.3956 -0.0957
  726loPI   C5A11611   7.439   0.044   7.434 -0.1157 -0.0537  0.2248
  726loPI   C6A11612   7.588  -0.222   7.758  0.1375  0.3353 -0.3134
  726loPI   C1B11613   7.719   0.077   5.787  0.1686 -0.1563 -0.0237
  726loPI   C2B11614   7.507   0.066   6.183 -0.0044  0.0952  0.1891
  726loPI   C3B11615   7.350   0.083   6.613  0.2281 -0.0111 -0.0441
  726loPI   C4B11616   7.495  -0.036   6.928  0.3397  0.2187  0.0714
  727loPI    C111617   5.211   7.130   4.418 -0.0545  0.2327 -0.1943
  727loPI    C211618   5.270   7.218   4.033 -0.0637  0.0228 -0.2452
  727loPI    C311619   4.980   6.964   4.137 -0.0326  0.0448 -0.1028
  727loPI   PO411620   5.344   7.284   4.497 -0.0865 -0.1508 -0.1930
  727loPI   GL111621   5.291   7.497   4.859  0.2690 -0.1171  0.1346
  727loPI   GL211622   5.623   7.387   5.010 -0.0244  0.1301 -0.1381
  727loPI   C1A11623   5.273   7.479   5.348 -0.1358 -0.2773 -0.1351
  727loPI   C2A11624   5.294   7.399   5.880  0.2258  0.2337 -0.2138
  727loPI   C3A11625   5.226   7.338   6.345  0.0223  0.1367 -0.0004
  727loPI   C4A11626   5.446   7.081   6.661 -0.2548 -0.1626 -0.2557
  727loPI   C5A11627   5.380   6.973   7.056  0.0222 -0.1233  0.5740
  727loPI   C6A11628   5.551   6.623   7.149  0.0832  0.1119 -0.1672
  727loPI   C1B11629   5.616   7.050   5.329 -0.0423 -0.1120 -0.1047
  727loPI   C2B11630   5.715   6.735   5.685 -0.1375 -0.0301  0.0310
  727loPI   C3B11631   5.923   6.396   5.971 -0.1503 -0.2149  0.3103
  727loPI   C4B11632   5.994   6.085   6.014  0.1600  0.3664  0.2525
  728loPI    C111633  10.288   1.361   4.731  0.1114 -0.1237 -0.0474
  728loPI    C211634   9.904   1.353   4.617  0.1527 -0.1134 -0.1897
  728loPI    C311635  10.146   1.643   4.485  0.0872  0.1775  0.3028
  728loPI   PO411636  10.281   1.384   4.982  0.3293 -0.0554 -0.0175
  728loPI   GL111637  10.202   1.627   5.351  0.1535  0.3160 -0.3019
  728loPI   GL211638  10.039   1.688   5.704  0.1622  0.0273  0.1869
  728loPI   C1A11639  10.488   1.470   5.700 -0.0951 -0.1799 -0.0348
  728loPI   C2A11640  10.466   1.291   6.066  0.0042 -0.2248 -0.0659
  728loPI   C3A11641  10.661   1.438   6.489  0.2252  0.1118  0.0161
  728loPI   C4A11642  10.607   1.514   6.860  0.1579  0.0311 -0.1487
  728loPI   C5A11643  10.765   1.597   7.310  0.0328  0.0382  0.2048
  728loPI   C6A11644  10.646   1.773   7.665 -0.0622  0.1960  0.0352
  728loPI   C1B11645   9.764   1.729   6.132 -0.1251  0.1157  0.1501
  728loPI   C2B11646   9.520   1.406   6.394  0.0441 -0.1954 -0.0139
  728loPI   C3B11647   9.307   1.011   6.651  0.0860 -0.0973 -0.0496
  728loPI   C4B11648   9.090   0.730   6.910  0.0933  0.0645 -0.1135
  729loPI    C111649   5.223   9.210   4.597  0.0545 -0.1028  0.0120
  729loPI    C211650   4.946   9.100   4.331  0.0500 -0.1014  0.0160
  729loPI    C311651   5.309   9.211   4.206 -0.0343  0.1526 -0.0087
  729loPI   PO411652   5.041   9.232   4.847  0.0616 -0.0611  0.2284
  729loPI   GL111653   4.822   9.129   5.208 -0.0503  0.1717  0.2662
  729loPI   GL211654   5.117   9.022   5.305  0.1594  0.1553 -0.2613
  729loPI   C1A11655   4.848   9.236   5.720  0.1130 -0.1547  0.1083
  729loPI   C2A11656   4.765   9.430   6.153  0.2195 -0.4316  0.1227
  729loPI   C3A11657   4.702   9.222   6.549 -0.0155  0.0467  0.1757
  729loPI   C4A11658   4.416   9.013   6.879  0.2616  0.1214 -0.1018
  729loPI   C5A11659   4.579   8.686   7.267  0.0309 -0.0161  0.2023
  729loPI   C6A11660   4.807   8.568   7.674  0.1540 -0.1831 -0.1161
  729loPI   C1B11661   5.146   8.670   5.613 -0.1729  0.2244  0.0589
  729loPI   C2B11662   5.450   8.540   5.989  0.1174 -0.1982  0.1319
  729loPI   C3B11663   5.407   8.375   6.400  0.3762 -0.1122 -0.3234
  729loPI   C4B11664   5.183   8.237   6.790 -0.0417  0.1740  0.1308
  730loPI    C111665   4.556  14.453   4.600  0.1311 -0.1247 -0.0513
  730loPI    C211666   4.899  14.430   4.395  0.0321 -0.0150 -0.2318
  730loPI    C311667   4.703  14.778   4.418  0.1296  0.0173  0.1959
  730loPI   PO411668   4.539  14.380   4.768 -0.3125 -0.1788  0.1197
  730loPI   GL111669   4.680  14.242   5.129  0.2233  0.0944 -0.0900
  730loPI   GL211670   4.790  13.977   5.263 -0.0222 -0.3344 -0.0566
  730loPI   C1A11671   4.896  14.573   5.325 -0.1857  0.2318 -0.0935
  730loPI   C2A11672   4.832  14.639   5.761 -0.2189 -0.2093  0.0026
  730loPI   C3A11673   4.774  14.735   6.192  0.0686  0.1502  0.0155
  730loPI   C4A11674   4.850  14.904   6.617 -0.2393 -0.0775 -0.1348
  730loPI   C5A11675   5.009  14.955   7.071  0.0695 -0.3323 -0.1370
  730loPI   C6A11676   5.079  15.053   7.524 -0.1927  0.0717 -0.2279
  730loPI   C1B11677   5.081  14.168   5.556 -0.0139  0.0214  0.0602
  730loPI   C2B11678   5.012  14.195   6.025  0.0762 -0.0160 -0.0517
  730loPI   C3B11679   4.980  14.319   6.446  0.2726  0.1680 -0.1866
  730loPI   C4B11680   4.844  14.474   6.912 -0.1719  0.0612  0.0099
  731loPI    C111681   0.684   0.732   4.540  0.2286 -0.0080 -0.0829
  731loPI    C211682   0.380   0.988   4.495  0.2070 -0.0088  0.0541
  731loPI    C311683   0.757   1.123   4.494  0.1991  0.0132  0.0489
  731loPI   PO411684   0.674   0.606   4.874  0.2784  0.0186  0.0611
  731loPI   GL111685   1.005   0.620   5.277  0.0788  0.2479 -0.2080
  731loPI   GL211686   1.095   0.866   5.381  0.4099 -0.0155  0.2168
  731loPI   C1A11687   1.371   0.560   5.632  0.2334 -0.0800 -0.2327
  731loPI   C2A11688   1.458   0.524   6.021 -0.0368  0.2163 -0.1651
  731loPI   C3A11689   1.460   0.422   6.417 -0.0195 -0.3143 -0.2254
  731loPI   C4A11690   1.246   0.314   6.732  0.0154  0.1384  0.3398
  731loPI   C5A11691   0.901   0.387   7.006  0.1210  0.1403  0.1220
  731loPI   C6A11692   0.452   0.386   7.100  0.1212 -0.0944  0.0510
  731loPI   C1B11693   1.222   0.965   5.865  0.1380  0.0685  0.2103
  731loPI   C2B11694   1.314   1.100   6.302 -0.1639 -0.0526 -0.2952
  731loPI   C3B11695   1.509   1.225   6.690 -0.0320 -0.1319 -0.0197
  731loPI   C4B11696   1.903   1.074   6.852 -0.0830 -0.0679  0.2381
  732loPI    C111697  17.824  19.225   4.354  0.1304  0.3014 -0.1901
  732loPI    C211698  18.009  19.580   4.351  0.1595  0.2870 -0.1291
  732loPI    C311699  18.074  19.318   4.055  0.3507  0.2238 -0.0331
  732loPI   PO411700  17.784  19.237   4.668  0.1694 -0.0568 -0.2235
  732loPI   GL111701  17.780  19.340   5.170  0.1832 -0.0139  0.2720
  732loPI   GL211702  17.917  18.977   5.134  0.0502  0.0735 -0.1363
  732loPI   C1A11703  17.747  19.320   5.628 -0.0761  0.1229  0.0024
  732loPI   C2A11704  17.534  19.405   6.014  0.1218  0.0665 -0.1539
  732loPI   C3A11705  17.409  19.566   6.373  0.0190 -0.1215 -0.1521
  732loPI   C4A11706  17.269  19.536   6.746  0.2333 -0.0483 -0.3011
  732loPI   C5A11707  16.994  19.149   6.897  0.0125 -0.0343 -0.2580
  732loPI   C6A11708  16.668  18.867   7.063  0.0056  0.1468 -0.2027
  732loPI   C1B11709  18.107  18.973   5.614  0.0319  0.0784 -0.1485
  732loPI   C2B11710  18.077  18.832   6.030 -0.0955  0.1885 -0.4653
  732loPI   C3B11711  18.144  18.808   6.485 -0.0359  0.0775  0.0923
  732loPI   C4B11712  18.560  18.896   6.736  0.1890 -0.0304  0.3694
  733loPI    C111713   3.275  10.930   4.400 -0.0187  0.2232 -0.0766
  733loPI    C211714   3.522  10.827   4.102  0.1310  0.0378  0.1082
  733loPI    C311715   3.543  11.194   4.262  0.0988  0.1137 -0.0600
  733loPI   PO411716   2.987  10.849   4.320  0.2695 -0.2102  0.4728
  733loPI   GL111717   2.728  10.777   4.662  0.0588 -0.2280 -0.1190
  733loPI   GL211718   2.941  10.713   4.925  0.0234 -0.1685  0.1840
  733loPI   C1A11719   2.492  10.939   4.989  0.0458 -0.4430  0.0380
  733loPI   C2A11720   2.356  11.138   5.349 -0.1927  0.0283 -0.0521
  733loPI   C3A11721   2.680  11.183   5.782 -0.0869  0.0937  0.1964
  733loPI   C4A11722   3.042  11.247   5.839  0.2144 -0.1622  0.0638
  733loPI   C5A11723   3.211  11.109   6.144  0.2737 -0.2408 -0.0656
  733loPI   C6A11724   3.348  10.726   6.325 -0.1791 -0.2517  0.0646
  733loPI   C1B11725   2.865  10.784   5.342 -0.0216 -0.1703  0.0745
  733loPI   C2B11726   2.957  10.753   5.750  0.1191  0.4868  0.2394
  733loPI   C3B11727   2.806  10.882   6.181 -0.0365 -0.1747  0.1340
  733loPI   C4B11728   2.571  10.927   6.562 -0.0804 -0.0138  0.1490
  734loPI    C111729  13.657  13.098   4.890  0.0562 -0.1882  0.0690
  734loPI    C211730  13.848  13.444   4.831  0.1473 -0.2443  0.0322
  734loPI    C311731  13.681  13.253   4.522 -0.2059 -0.0598  0.1037
  734loPI   PO411732  13.868  12.997   5.050  0.0204  0.1790 -0.1320
  734loPI   GL111733  14.101  12.804   5.432 -0.1252 -0.2855  0.0572
  734loPI   GL211734  13.754  12.632   5.335  0.0399  0.2817 -0.1743
  734loPI   C1A11735  14.226  13.003   5.802 -0.0966 -0.1379  0.2996
  734loPI   C2A11736  14.360  13.192   6.240  0.0552  0.0397  0.0231
  734loPI   C3A11737  14.536  13.532   6.598 -0.0513  0.0130 -0.1362
  734loPI   C4A11738  14.476  13.575   6.996 -0.4167 -0.0355 -0.0658
  734loPI   C5A11739  14.260  13.486   7.333  0.1727 -0.1802 -0.1935
  734loPI   C6A11740  14.119  13.515   7.757 -0.3347  0.1827 -0.1190
  734loPI   C1B11741  13.643  12.710   5.786  0.0801  0.0536 -0.0854
  734loPI   C2B11742  13.383  12.720   6.240 -0.1077  0.0948 -0.1033
  734loPI   C3B11743  13.566  12.601   6.633  0.0155  0.0135  0.0114
  734loPI   C4B11744  13.629  12.608   7.041 -0.0412 -0.0352  0.0098
  735loPI    C111745  11.782  12.501   4.361  0.0988  0.1718  0.1543
  735loPI    C211746  11.595  12.789   4.566 -0.1858  0.0156  0.1200
  735loPI    C311747  11.686  12.845   4.181 -0.0744  0.1288  0.1622
  735loPI   PO411748  11.777  12.286   4.568  0.0607 -0.1418 -0.0938
  735loPI   GL111749  11.668  12.194   4.927  0.4723 -0.1404  0.2782
  735loPI   GL211750  11.762  12.490   5.064 -0.1697 -0.2709 -0.0217
  735loPI   C1A11751  11.870  12.055   5.390  0.0585  0.0187  0.0320
  735loPI   C2A11752  11.974  12.194   5.759 -0.0903 -0.2417  0.0145
  735loPI   C3A11753  12.068  12.290   6.234  0.1779  0.1892  0.0194
  735loPI   C4A11754  12.130  12.324   6.679  0.0434 -0.0854 -0.2432
  735loPI   C5A11755  12.429  12.098   7.017  0.1478  0.2488 -0.1398
  735loPI   C6A11756  12.827  12.139   7.222 -0.0224  0.1292  0.1442
  735loPI   C1B11757  12.021  12.494   5.418 -0.0304 -0.0508  0.1726
  735loPI   C2B11758  12.379  12.680   5.625  0.1778 -0.0951 -0.3757
  735loPI   C3B11759  12.406  12.634   6.028  0.1633  0.3187  0.0304
  735loPI   C4B11760  12.535  12.555   6.378 -0.3585 -0.2416  0.1679
  736loPI    C111761  10.890  18.213   4.783 -0.0493  0.2737  0.0253
  736loPI    C211762  11.047  18.000   4.483 -0.1148  0.1633  0.0686
  736loPI    C311763  10.650  18.009   4.536 -0.1174  0.3537  0.0247
  736loPI   PO411764  10.979  18.138   4.978 -0.0718 -0.0263 -0.2728
  736loPI   GL111765  10.936  17.815   5.274 -0.2882 -0.0990 -0.0008
  736loPI   GL211766  11.047  18.033   5.586  0.4425  0.2637  0.0397
  736loPI   C1A11767  10.710  17.693   5.630  0.1213 -0.2530  0.2880
  736loPI   C2A11768  10.827  17.580   6.002  0.0091  0.3790  0.0365
  736loPI   C3A11769  11.186  17.584   6.283 -0.2971 -0.2316 -0.0150
  736loPI   C4A11770  11.135  17.837   6.676  0.0294  0.0546 -0.0643
  736loPI   C5A11771  10.925  17.732   7.058  0.0310  0.1425  0.1973
  736loPI   C6A11772  10.759  17.385   7.274 -0.2845  0.2616  0.0931
  736loPI   C1B11773  10.855  18.225   5.973  0.0492 -0.3340 -0.1657
  736loPI   C2B11774  10.627  17.980   6.227  0.0575  0.0691  0.0317
  736loPI   C3B11775  10.602  17.782   6.553 -0.1019 -0.1937 -0.1837
  736loPI   C4B11776  10.437  17.447   6.872 -0.1133 -0.2557  0.1239
  737loPI    C111777  11.714   6.640   4.670 -0.0300 -0.1597  0.1482
  737loPI    C211778  11.853   6.792   4.328 -0.0809 -0.0948  0.1563
  737loPI    C311779  11.588   6.493   4.320 -0.3228  0.1164  0.1330
  737loPI   PO411780  11.761   6.846   4.862  0.4834  0.1099 -0.1505
  737loPI   GL111781  11.615   6.825   5.279 -0.1733 -0.0121  0.0258
  737loPI   GL211782  11.725   7.046   5.318 -0.0632  0.1963 -0.0587
  737loPI   C1A11783  11.252   6.769   5.558 -0.0897 -0.1030 -0.2763
  737loPI   C2A11784  11.205   6.892   5.964  0.0574 -0.0934  0.0627
  737loPI   C3A11785  10.916   6.776   6.226 -0.2364  0.2228  0.1201
  737loPI   C4A11786  10.763   6.494   6.634  0.0109  0.0409  0.3197
  737loPI   C5A11787  10.832   6.322   7.014  0.2891 -0.1319  0.1784
  737loPI   C6A11788  11.037   6.434   7.469 -0.1444  0.2427 -0.1015
  737loPI   C1B11789  11.700   6.959   5.788  0.1821 -0.0368 -0.1237
  737loPI   C2B11790  11.788   7.020   6.212 -0.1702 -0.0503  0.1378
  737loPI   C3B11791  11.880   7.042   6.559  0.2289  0.4263  0.1748
  737loPI   C4B11792  11.665   6.782   6.860 -0.1399  0.0322  0.0736
  738loPI    C111793  17.138   5.595   4.271  0.0884 -0.0374 -0.2938
  738loPI    C211794  17.148   5.199   4.214 -0.3032 -0.1422  0.2772
  738loPI    C311795  16.875   5.422   4.025 -0.0027 -0.1165 -0.1420
  738loPI   PO411796  17.100   5.570   4.567 -0.2550 -0.2454  0.3197
  738loPI   GL111797  17.121   5.471   5.039  0.0557  0.0483 -0.1838
  738loPI   GL211798  17.147   5.166   5.205 -0.1602 -0.1324  0.2047
  738loPI   C1A11799  17.323   5.665   5.375  0.2513 -0.1043 -0.0774
  738loPI   C2A11800  17.262   6.008   5.639  0.1527  0.2757  0.2037
  738loPI   C3A11801  17.267   6.039   6.051  0.0177  0.0893  0.0228
  738loPI   C4A11802  17.235   6.056   6.521  0.1400 -0.2910  0.0658
  738loPI   C5A11803  16.995   6.178   6.809  0.1993  0.0726  0.0100
  738loPI   C6A11804  16.754   6.180   7.174  0.1427 -0.2229 -0.1747
  738loPI   C1B11805  17.115   5.067   5.665 -0.0853 -0.0500  0.0762
  738loPI   C2B11806  17.088   5.013   6.155  0.1300 -0.0314  0.2339
  738loPI   C3B11807  16.976   4.682   6.429  0.2834 -0.2335 -0.1921
  738loPI   C4B11808  16.828   4.663   6.817  0.1315 -0.3111  0.3087
  739loPI    C111809  12.233   1.854   4.799 -0.0944 -0.0679  0.0868
  739loPI    C211810  12.538   1.830   4.541 -0.0941  0.1252  0.0674
  739loPI    C311811  12.181   1.960   4.416 -0.1701 -0.0454  0.1031
  739loPI   PO411812  12.302   1.975   4.982 -0.3789  0.2078  0.1098
  739loPI   GL111813  12.280   1.943   5.404 -0.0635  0.3508 -0.1785
  739loPI   GL211814  12.254   1.666   5.616 -0.2616 -0.0011  0.0334
  739loPI   C1A11815  12.602   2.021   5.724  0.1291 -0.3244 -0.1070
  739loPI   C2A11816  12.458   2.365   6.084 -0.1271 -0.0141 -0.1894
  739loPI   C3A11817  12.241   2.287   6.492  0.1507  0.1970  0.0633
  739loPI   C4A11818  11.952   2.476   6.754 -0.1158 -0.0948  0.1861
  739loPI   C5A11819  11.564   2.576   6.987 -0.1338  0.0252  0.0584
  739loPI   C6A11820  11.382   2.423   7.287 -0.2381  0.0680 -0.1163
  739loPI   C1B11821  12.348   1.866   6.121  0.0130 -0.0214 -0.0682
  739loPI   C2B11822  12.451   1.736   6.508  0.0240 -0.1106 -0.0129
  739loPI   C3B11823  12.562   1.689   6.980  0.1593  0.1388  0.1147
  739loPI   C4B11824  12.581   1.671   7.460 -0.0062 -0.2795  0.0447
  740loPI    C111825  17.723  17.971   4.902 -0.1446  0.0977  0.0803
  740loPI    C211826  17.582  17.907   4.533  0.1223  0.0307 -0.0122
  740loPI    C311827  17.882  18.165   4.591  0.1471 -0.0324  0.1454
  740loPI   PO411828  17.495  18.000   5.021 -0.0951  0.2954  0.5181
  740loPI   GL111829  17.384  18.015   5.421  0.4335 -0.1921 -0.0424
  740loPI   GL211830  17.491  18.230   5.550  0.1272 -0.1030 -0.3791
  740loPI   C1A11831  17.337  17.954   5.908 -0.1030 -0.1852 -0.1839
  740loPI   C2A11832  17.285  17.829   6.368 -0.2602  0.4220  0.0867
  740loPI   C3A11833  17.285  17.645   6.762  0.2349 -0.0002 -0.0614
  740loPI   C4A11834  17.289  17.425   7.058  0.0432 -0.0917  0.0924
  740loPI   C5A11835  17.362  17.118   7.312  0.2281 -0.0771  0.3456
  740loPI   C6A11836  17.561  16.920   7.624  0.3257  0.0889 -0.1967
  740loPI   C1B11837  17.684  18.303   5.967 -0.0404  0.0286 -0.1400
  740loPI   C2B11838  17.861  18.233   6.317 -0.2825 -0.0624  0.0505
  740loPI   C3B11839  17.959  18.392   6.630 -0.3495  0.1108  0.0651
  740loPI   C4B11840  18.317  18.544   6.919 -0.2517  0.1629 -0.3776
  741loPI    C111841  17.760  14.515   4.196  0.0561 -0.0065  0.0941
  741loPI    C211842  17.914  14.147   4.222  0.0511 -0.0230 -0.0976
  741loPI    C311843  17.818  14.299   3.864 -0.2270  0.0495  0.0053
  741loPI   PO411844  17.630  14.553   4.503  0.1883  0.1877  0.0533
  741loPI   GL111845  17.783  14.682   4.914  0.4079 -0.0401  0.3397
  741loPI   GL211846  17.473  14.544   4.975  0.1843  0.1182  0.0310
  741loPI   C1A11847  18.038  14.479   5.252 -0.0377 -0.1672  0.1486
  741loPI   C2A11848  18.263  14.362   5.603 -0.1601  0.0725 -0.1871
  741loPI   C3A11849  18.494  14.266   5.936 -0.0516 -0.0049  0.1845
  741loPI   C4A11850  18.660  14.110   6.205  0.1956 -0.1731 -0.1933
  741loPI   C5A11851  18.988  14.148   6.506  0.0900  0.0725 -0.1739
  741loPI   C6A11852  19.240  14.169   6.860  0.2901  0.0866 -0.4682
  741loPI   C1B11853  17.321  14.495   5.406  0.1341 -0.0625  0.0089
  741loPI   C2B11854  17.313  14.344   5.835  0.0805 -0.3961  0.1543
  741loPI   C3B11855  17.661  14.381   6.167  0.1928  0.0779  0.0209
  741loPI   C4B11856  17.649  14.703   6.595  0.0067  0.1230  0.1069
  742loPI    C111857   3.029   5.757   4.566 -0.1260 -0.1558  0.0109
  742loPI    C211858   2.974   5.372   4.474 -0.0848 -0.1284 -0.1303
  742loPI    C311859   3.051   5.638   4.185 -0.1862 -0.0014 -0.0416
  742loPI   PO411860   3.197   5.750   4.801 -0.1641 -0.4195 -0.2783
  742loPI   GL111861   3.321   5.756   5.145  0.1704  0.0476 -0.0186
  742loPI   GL211862   3.082   5.684   5.370 -0.0031  0.0106  0.1108
  742loPI   C1A11863   3.565   5.957   5.508  0.3443  0.1410 -0.0040
  742loPI   C2A11864   3.434   6.226   5.808 -0.1943  0.2400  0.0996
  742loPI   C3A11865   3.363   6.341   6.236 -0.1392 -0.0608  0.2085
  742loPI   C4A11866   3.392   6.288   6.758  0.1431  0.2061 -0.1799
  742loPI   C5A11867   3.449   6.377   7.104 -0.3025  0.2699 -0.1072
  742loPI   C6A11868   3.519   6.604   7.611  0.1970 -0.0983  0.0888
  742loPI   C1B11869   3.116   5.831   5.674  0.1407  0.1977  0.1579
  742loPI   C2B11870   3.100   5.943   6.043 -0.4168 -0.2695  0.0823
  742loPI   C3B11871   3.071   5.947   6.383 -0.0813 -0.2160 -0.2010
  742loPI   C4B11872   3.020   5.928   6.794  0.0026 -0.1114 -0.0160
  743loPI    C111873   3.038   6.212   5.033 -0.1524 -0.0801  0.3380
  743loPI    C211874   3.090   6.475   5.329  0.1288  0.2704 -0.0108
  743loPI    C311875   3.407   6.327   5.135 -0.0552  0.1194 -0.2017
  743loPI   PO411876   2.894   6.077   5.131  0.1239 -0.0316  0.2322
  743loPI   GL111877   2.478   5.977   5.327  0.1900  0.2660 -0.0209
  743loPI   GL211878   2.186   5.764   5.472 -0.1332  0.2654 -0.1603
  743loPI   C1A11879   2.707   6.092   5.747  0.2081  0.0636  0.2478
  743loPI   C2A11880   2.809   6.398   6.100 -0.0115  0.0279 -0.1957
  743loPI   C3A11881   2.983   6.442   6.500  0.1162 -0.3192 -0.1896
  743loPI   C4A11882   3.316   6.754   6.728 -0.3071 -0.0808 -0.2686
  743loPI   C5A11883   3.346   7.229   6.762 -0.0049  0.1417 -0.0432
  743loPI   C6A11884   3.455   7.489   7.189 -0.0346  0.0599 -0.2901
  743loPI   C1B11885   2.248   5.833   5.896  0.1770  0.2456  0.2976
  743loPI   C2B11886   2.433   6.057   6.223 -0.4398 -0.3574  0.1631
  743loPI   C3B11887   2.592   6.134   6.670  0.1895  0.0335 -0.1736
  743loPI   C4B11888   2.612   5.959   7.091 -0.0976  0.0313  0.0183
  744loPI    C111889  12.155  16.833   5.287 -0.0821 -0.1937  0.1757
  744loPI    C211890  12.174  16.694   4.913  0.0656 -0.1852  0.1794
  744loPI    C311891  12.484  16.893   5.068 -0.1453  0.1596  0.1704
  744loPI   PO411892  11.973  17.017   5.253  0.1571 -0.0870  0.4295
  744loPI   GL111893  11.646  17.320   5.371 -0.0768  0.0418  0.0391
  744loPI   GL211894  11.743  17.478   5.642 -0.0178  0.3758 -0.1885
  744loPI   C1A11895  11.467  16.951   5.607  0.0609 -0.1299 -0.1105
  744loPI   C2A11896  11.351  16.639   5.965 -0.0882  0.1440 -0.0352
  744loPI   C3A11897  11.297  16.494   6.430 -0.3148  0.2625  0.1573
  744loPI   C4A11898  11.362  16.387   6.758 -0.0550 -0.2237 -0.0860
  744loPI   C5A11899  11.402  16.094   7.049  0.0926 -0.1222 -0.3282
  744loPI   C6A11900  11.341  15.641   7.137 -0.2470  0.0949  0.0012
  744loPI   C1B11901  11.649  17.516   6.066 -0.0072  0.1348  0.0829
  744loPI   C2B11902  11.721  17.727   6.450  0.1776  0.2526 -0.0637
  744loPI   C3B11903  11.941  17.861   6.858  0.2482  0.1754 -0.3142
  744loPI   C4B11904  11.836  18.123   7.201 -0.4211 -0.2691 -0.2934
  745loPI    C111905   4.562   8.866   4.569  0.1892  0.3114 -0.1755
  745loPI    C211906   4.331   9.147   4.403 -0.2031  0.0439 -0.0973
  745loPI    C311907   4.542   8.899   4.171 -0.1735  0.1412 -0.1754
  745loPI   PO411908   4.564   8.947   4.783  0.0519 -0.0275 -0.0925
  745loPI   GL111909   4.369   8.925   5.242  0.1631  0.0673  0.0232
  745loPI   GL211910   4.342   9.225   5.213  0.0924 -0.0703  0.3383
  745loPI   C1A11911   4.577   8.852   5.542  0.0251 -0.1015  0.2122
  745loPI   C2A11912   4.556   8.891   5.960  0.1411 -0.7129 -0.0371
  745loPI   C3A11913   4.630   8.760   6.419  0.3192  0.1406 -0.2441
  745loPI   C4A11914   4.640   8.507   6.806  0.1325  0.2118  0.1121
  745loPI   C5A11915   4.717   8.231   7.093  0.0215 -0.0378 -0.0367
  745loPI   C6A11916   4.791   7.924   7.404  0.1704  0.0403  0.0620
  745loPI   C1B11917   4.217   9.214   5.726  0.0087  0.2696  0.0250
  745loPI   C2B11918   4.070   8.906   5.865  0.1990 -0.0616 -0.2822
  745loPI   C3B11919   4.235   8.578   6.055 -0.2161  0.0312 -0.0216
  745loPI   C4B11920   4.197   8.393   6.358 -0.1357 -0.2527  0.0961
  746loPI    C111921  16.623   5.629   4.769  0.2934  0.0227 -0.0960
  746loPI    C211922  16.639   5.689   4.374  0.2896  0.1310 -0.0803
  746loPI    C311923  16.651   5.317   4.521 -0.1914  0.0586 -0.2072
  746loPI   PO411924  16.409   5.774   4.798 -0.3647 -0.1779 -0.0522
  746loPI   GL111925  16.205   5.892   5.138 -0.0853  0.0044 -0.2549
  746loPI   GL211926  16.203   5.659   5.229  0.1436  0.1586  0.6008
  746loPI   C1A11927  16.313   6.123   5.544 -0.1506 -0.0343  0.0561
  746loPI   C2A11928  16.283   6.018   5.984  0.2380  0.1367 -0.1314
  746loPI   C3A11929  16.263   5.938   6.499  0.3215  0.2615 -0.0922
  746loPI   C4A11930  16.404   5.996   6.932  0.0211  0.4686  0.1486
  746loPI   C5A11931  16.615   5.737   7.273 -0.0104  0.2954  0.0652
  746loPI   C6A11932  16.563   5.365   7.443 -0.1790  0.0604 -0.0573
  746loPI   C1B11933  16.297   5.568   5.673  0.1325  0.3034 -0.0141
  746loPI   C2B11934  16.125   5.511   6.106  0.1584  0.0120  0.0229
  746loPI   C3B11935  16.033   5.498   6.541  0.0489  0.0050  0.0358
  746loPI   C4B11936  16.223   5.532   6.977  0.0524  0.2566 -0.4467
  747loPI    C111937  15.158  18.440   4.501 -0.0473  0.0210 -0.1368
  747loPI    C211938  15.242  18.462   4.111 -0.0587  0.1095 -0.1345
  747loPI    C311939  14.879  18.567   4.244  0.0412  0.3743 -0.0641
  747loPI   PO411940  15.430  18.495   4.737 -0.2247 -0.3272  0.3292
  747loPI   GL111941  15.527  18.806   5.146  0.0561 -0.2641 -0.3040
  747loPI   GL211942  15.466  18.477   5.249 -0.1703  0.0342  0.1042
  747loPI   C1A11943  15.487  19.106   5.526 -0.0318 -0.0084  0.1358
  747loPI   C2A11944  15.685  19.187   5.924 -0.1532  0.1986  0.1290
  747loPI   C3A11945  15.908  19.365   6.286 -0.3431  0.0956  0.0296
  747loPI   C4A11946  16.057  19.330   6.732 -0.1241 -0.4607 -0.2255
  747loPI   C5A11947  15.935  19.161   7.043 -0.1839  0.1582  0.1567
  747loPI   C6A11948  15.747  18.825   7.045  0.2008  0.3040  0.0401
  747loPI   C1B11949  15.678  18.658   5.631 -0.1428 -0.1239 -0.0227
  747loPI   C2B11950  15.799  18.644   6.086 -0.1162  0.0151 -0.1326
  747loPI   C3B11951  15.763  18.707   6.503  0.2581 -0.0552 -0.1061
  747loPI   C4B11952  15.669  18.382   6.769  0.0694  0.1405  0.0026
  748loPI    C111953   2.379  10.210   3.856 -0.0847  0.2673  0.0304
  748loPI    C211954   2.747  10.074   3.933 -0.1843 -0.0674 -0.0687
  748loPI    C311955   2.688  10.335   3.635 -0.0199  0.0356 -0.0124
  748loPI   PO411956   2.284  10.319   4.079  0.0588  0.2237  0.2991
  748loPI   GL111957   2.092  10.209   4.512  0.1488  0.0743  0.1344
  748loPI   GL211958   1.719  10.153   4.657 -0.2640  0.1601  0.0842
  748loPI   C1A11959   2.149  10.013   4.950  0.0264 -0.0474  0.2231
  748loPI   C2A11960   2.098  10.213   5.412 -0.2050 -0.0686  0.0119
  748loPI   C3A11961   2.060  10.387   5.895 -0.2578 -0.2752  0.0483
  748loPI   C4A11962   2.078  10.327   6.364  0.3688  0.2247 -0.0279
  748loPI   C5A11963   1.918  10.474   6.830  0.0126 -0.0527  0.0736
  748loPI   C6A11964   1.516  10.592   6.909 -0.1435  0.0310 -0.1329
  748loPI   C1B11965   1.676  10.315   5.063 -0.1147  0.2102 -0.1067
  748loPI   C2B11966   1.628  10.186   5.530 -0.0004  0.0139  0.1122
  748loPI   C3B11967   1.655  10.121   5.974 -0.1375 -0.4148 -0.0239
  748loPI   C4B11968   1.903   9.855   6.192 -0.0768 -0.1599  0.0923
  749loPI    C111969  15.032  14.743   4.658 -0.0293  0.1582 -0.0312
  749loPI    C211970  14.733  14.562   4.463 -0.0669  0.1728  0.0130
  749loPI    C311971  15.017  14.756   4.258 -0.1720  0.2906 -0.0222
  749loPI   PO411972  15.003  14.788   4.921 -0.0585 -0.0634 -0.0914
  749loPI   GL111973  15.233  14.911   5.303  0.1736  0.0124 -0.0585
  749loPI   GL211974  15.516  14.937   5.481 -0.0926  0.0221 -0.1089
  749loPI   C1A11975  15.113  14.740   5.771  0.3363 -0.1641 -0.1946
  749loPI   C2A11976  15.218  14.687   6.208 -0.1065 -0.0223  0.2267
  749loPI   C3A11977  15.236  14.941   6.617  0.0541  0.1205  0.0945
  749loPI   C4A11978  15.189  15.288   6.876  0.1683  0.2628 -0.0622
  749loPI   C5A11979  15.144  15.304   7.304  0.1921  0.2321 -0.0988
  749loPI   C6A11980  14.947  14.918   7.570  0.3615 -0.0809  0.5880
  749loPI   C1B11981  15.584  14.936   5.917 -0.3448 -0.1437 -0.0967
  749loPI   C2B11982  15.649  14.833   6.425 -0.1305  0.1248  0.4776
  749loPI   C3B11983  15.686  14.686   6.822  0.1704  0.3041 -0.3732
  749loPI   C4B11984  15.488  14.385   7.063 -0.5967 -0.0465 -0.2096
  750loPI    C111985   5.858  10.029   4.754 -0.0260 -0.1193 -0.2514
  750loPI    C211986   5.725  10.136   4.392  0.1056  0.0704 -0.2452
  750loPI    C311987   5.978  10.374   4.590  0.0245 -0.0264 -0.0222
  750loPI   PO411988   5.583   9.927   4.906 -0.0192  0.0800 -0.1404
  750loPI   GL111989   5.744   9.815   5.335 -0.0128 -0.2787  0.4460
  750loPI   GL211990   5.813   9.476   5.411  0.1489 -0.0299  0.0913
  750loPI   C1A11991   5.460   9.983   5.617  0.2763  0.3246 -0.0516
  750loPI   C2A11992   5.191  10.269   5.816 -0.3617  0.0041  0.0908
  750loPI   C3A11993   5.004  10.487   6.135  0.1226 -0.0659 -0.4476
  750loPI   C4A11994   4.949  10.584   6.588 -0.0749  0.0453  0.3214
  750loPI   C5A11995   5.227  10.796   6.787 -0.2765  0.1031 -0.0329
  750loPI   C6A11996   5.098  11.155   7.211  0.2994 -0.1915  0.0003
  750loPI   C1B11997   5.769   9.571   5.852  0.0349 -0.1061  0.1176
  750loPI   C2B11998   5.806   9.509   6.303  0.0943 -0.1424 -0.0704
  750loPI   C3B11999   5.702   9.389   6.679  0.0209  0.1190 -0.1898
  750loPI   C4B12000   5.817   9.289   7.106  0.0985  0.0475 -0.4279
  751loPI    C112001  12.405  11.778   4.343 -0.0447 -0.0683  0.1546
  751loPI    C212002  12.718  11.947   4.161 -0.0555 -0.1015  0.1045
  751loPI    C312003  12.390  11.858   3.951 -0.0982 -0.0682  0.1566
  751loPI   PO412004  12.465  11.862   4.630  0.4307  0.0136  0.0309
  751loPI   GL112005  12.499  11.921   5.031 -0.1277 -0.0226 -0.2741
  751loPI   GL212006  12.321  11.659   5.224  0.0499 -0.3765  0.2433
  751loPI   C1A12007  12.459  12.242   5.324  0.2101  0.0041  0.0399
  751loPI   C2A12008  12.492  12.210   5.743  0.1608  0.1927 -0.0096
  751loPI   C3A12009  12.634  12.104   6.208  0.0026  0.1181 -0.1978
  751loPI   C4A12010  12.752  12.168   6.641  0.1626 -0.0472  0.3477
  751loPI   C5A12011  12.696  12.603   6.953  0.1137  0.1151  0.1032
  751loPI   C6A12012  12.593  13.135   7.063 -0.0819 -0.0705  0.0832
  751loPI   C1B12013  12.281  11.812   5.554  0.0715 -0.0567 -0.1241
  751loPI   C2B12014  12.427  11.734   5.971  0.0390  0.1001 -0.0377
  751loPI   C3B12015  12.618  11.524   6.317  0.1430  0.3254 -0.1039
  751loPI   C4B12016  12.659  11.248   6.737 -0.1898 -0.0546 -0.2017
  752loPI    C112017  11.821   3.062   4.815  0.1478  0.0129  0.0437
  752loPI    C212018  12.001   2.749   4.643  0.1037  0.1533 -0.2647
  752loPI    C312019  12.086   3.121   4.522 -0.0202  0.2487 -0.0646
  752loPI   PO412020  11.866   2.885   5.109  0.2287  0.0210 -0.1569
  752loPI   GL112021  11.985   2.952   5.535  0.2863 -0.2044 -0.0965
  752loPI   GL212022  11.680   2.922   5.590 -0.1337 -0.0489  0.1565
  752loPI   C1A12023  12.011   2.800   5.956  0.0103  0.2365  0.1336
  752loPI   C2A12024  12.083   2.919   6.390 -0.0819 -0.0934  0.1621
  752loPI   C3A12025  12.262   2.961   6.747  0.3820 -0.2350 -0.4566
  752loPI   C4A12026  12.611   3.108   7.041 -0.1669 -0.2163 -0.1794
  752loPI   C5A12027  12.821   3.075   7.312 -0.2154  0.3274 -0.1185
  752loPI   C6A12028  12.856   3.221   7.733 -0.0393  0.0240  0.2655
  752loPI   C1B12029  11.684   3.244   5.912  0.3920 -0.1983 -0.1632
  752loPI   C2B12030  11.829   3.309   6.193 -0.3525 -0.0948  0.0114
  752loPI   C3B12031  12.020   3.392   6.632  0.2294 -0.4185  0.2990
  752loPI   C4B12032  12.154   3.312   7.096  0.1149 -0.1023  0.1221
  753loPI    C112033   6.611   5.948   4.531 -0.0519 -0.0940  0.0631
  753loPI    C212034   6.897   6.227   4.537  0.0786 -0.2244 -0.0076
  753loPI    C312035   6.606   6.246   4.263  0.0664 -0.1384  0.0108
  753loPI   PO412036   6.757   5.715   4.609  0.0530 -0.0968 -0.1631
  753loPI   GL112037   6.812   5.559   5.135  0.0173 -0.0631 -0.2620
  753loPI   GL212038   6.707   5.280   5.207  0.0768  0.1393  0.0903
  753loPI   C1A12039   6.891   5.809   5.603  0.0767 -0.5039  0.0342
  753loPI   C2A12040   6.781   5.954   5.988  0.0903  0.2208 -0.1481
  753loPI   C3A12041   7.025   6.129   6.366  0.4782  0.1547  0.1769
  753loPI   C4A12042   7.149   6.166   6.753  0.3899 -0.0105  0.0964
  753loPI   C5A12043   7.172   6.342   7.065  0.1530 -0.4440  0.0053
  753loPI   C6A12044   7.342   6.348   7.497 -0.0148  0.3303 -0.2371
  753loPI   C1B12045   6.498   5.240   5.657  0.0385 -0.0594 -0.0754
  753loPI   C2B12046   6.087   5.353   5.848  0.1399  0.1929  0.1154
  753loPI   C3B12047   5.836   5.617   6.077  0.0884 -0.1199  0.0827
  753loPI   C4B12048   5.781   5.988   6.396 -0.1265 -0.3108  0.1134
  754loPI    C112049   1.172   3.861   4.867 -0.2273  0.0452  0.0767
  754loPI    C212050   1.500   3.708   4.697 -0.0314  0.2791  0.2353
  754loPI    C312051   1.150   3.697   4.503  0.1049  0.1855 -0.0110
  754loPI   PO412052   1.227   4.022   5.013  0.0681 -0.1626 -0.1159
  754loPI   GL112053   1.043   4.129   5.342  0.0154  0.2531  0.0375
  754loPI   GL212054   0.976   3.755   5.357 -0.3657 -0.0122  0.0947
  754loPI   C1A12055   1.076   4.265   5.841  0.2527 -0.0029  0.0297
  754loPI   C2A12056   1.218   3.995   6.177  0.1254  0.2818  0.1204
  754loPI   C3A12057   1.158   3.667   6.520 -0.0750 -0.1394  0.0010
  754loPI   C4A12058   1.395   3.665   6.952  0.1787 -0.0361  0.0454
  754loPI   C5A12059   1.470   4.031   7.166 -0.2340  0.0585 -0.0712
  754loPI   C6A12060   1.576   4.372   7.401 -0.0388 -0.1937 -0.0756
  754loPI   C1B12061   0.871   3.823   5.747 -0.2611 -0.0158 -0.1365
  754loPI   C2B12062   0.518   3.829   5.958 -0.1715  0.1728  0.0096
  754loPI   C3B12063   0.170   3.990   6.011  0.0690 -0.2193 -0.4599
  754loPI   C4B12064  -0.205   3.783   5.797 -0.1170  0.1093 -0.1122
  755loPI    C112065  14.026   9.014   4.699  0.1008 -0.0665  0.1942
  755loPI    C212066  14.251   8.881   4.398 -0.0717 -0.2684  0.1520
  755loPI    C312067  14.224   9.273   4.468  0.0276 -0.2240 -0.0491
  755loPI   PO412068  14.021   8.777   4.885  0.1572 -0.1441  0.1433
  755loPI   GL112069  13.801   8.601   5.112  0.1999  0.2589 -0.0603
  755loPI   GL212070  14.079   8.428   5.213 -0.1424 -0.0818 -0.4486
  755loPI   C1A12071  13.645   8.576   5.579 -0.0829 -0.0548  0.0292
  755loPI   C2A12072  13.555   8.876   5.890 -0.1525  0.0148  0.2707
  755loPI   C3A12073  13.845   9.221   6.169  0.0824 -0.1349 -0.1344
  755loPI   C4A12074  13.861   9.270   6.635 -0.0201  0.2354 -0.2457
  755loPI   C5A12075  13.949   9.483   7.151 -0.1126 -0.0202  0.2889
  755loPI   C6A12076  13.971   9.832   7.408 -0.0503  0.0114 -0.1327
  755loPI   C1B12077  14.083   8.293   5.651 -0.1818 -0.0110  0.0266
  755loPI   C2B12078  14.151   8.197   6.065  0.1386  0.1325  0.2481
  755loPI   C3B12079  14.120   8.195   6.524 -0.1709  0.3535 -0.3931
  755loPI   C4B12080  14.045   8.406   6.916 -0.1863 -0.1143 -0.1852
  756loPI    C112081  19.093  12.362   4.222  0.1229  0.1869  0.0969
  756loPI    C212082  19.204  12.313   3.840 -0.0033  0.0400  0.0784
  756loPI    C312083  18.828  12.421   3.927 -0.0150 -0.0703  0.1667
  756loPI   PO412084  19.154  12.063   4.360  0.1497  0.1723  0.0869
  756loPI   GL112085  18.916  11.818   4.662 -0.0578  0.1483  0.2424
  756loPI   GL212086  18.831  12.148   4.792  0.0188 -0.0405  0.4240
  756loPI   C1A12087  18.772  11.813   5.129 -0.0223 -0.0541 -0.0984
  756loPI   C2A12088  18.744  11.829   5.634  0.2178 -0.3121 -0.2843
  756loPI   C3A12089  18.685  11.729   6.087 -0.3964 -0.2460 -0.2700
  756loPI   C4A12090  18.740  11.821   6.562 -0.2149  0.0955  0.1062
  756loPI   C5A12091  18.711  11.536   6.874  0.0453 -0.0151 -0.1827
  756loPI   C6A12092  18.437  11.248   6.863 -0.2705  0.1543  0.1590
  756loPI   C1B12093  18.722  12.349   5.238  0.0050 -0.0916  0.0342
  756loPI   C2B12094  18.657  12.413   5.655  0.2007 -0.1409 -0.2835
  756loPI   C3B12095  18.665  12.296   6.115  0.2272  0.1880 -0.0957
  756loPI   C4B12096  18.830  12.323   6.487  0.1809 -0.0621  0.4090
  757loPI    C112097   0.071  14.613   4.578 -0.2477  0.0260 -0.0508
  757loPI    C212098   0.202  14.991   4.571  0.0366 -0.0699 -0.0255
  757loPI    C312099   0.175  14.781   4.231  0.1131 -0.1045 -0.0105
  757loPI   PO412100   0.174  14.511   4.859 -0.1796  0.2733  0.2865
  757loPI   GL112101   0.008  14.390   5.237 -0.0819 -0.1716 -0.1706
  757loPI   GL212102   0.130  14.001   5.255 -0.0440  0.0918 -0.0329
  757loPI   C1A12103   0.125  14.500   5.596  0.3137  0.1817 -0.1722
  757loPI   C2A12104   0.300  14.441   5.933  0.1631 -0.0092  0.2259
  757loPI   C3A12105   0.536  14.297   6.227  0.0890  0.0177 -0.1382
  757loPI   C4A12106   0.961  14.118   6.371  0.0156 -0.0729 -0.3116
  757loPI   C5A12107   1.239  13.811   6.483 -0.0777 -0.0791 -0.2657
  757loPI   C6A12108   1.407  13.418   6.585 -0.0508 -0.0256  0.0227
  757loPI   C1B12109  -0.128  14.025   5.613  0.0246 -0.2290 -0.1385
  757loPI   C2B12110  -0.143  14.163   6.063 -0.0033 -0.0247  0.1671
  757loPI   C3B12111   0.121  14.267   6.471  0.2368  0.2102 -0.5062
  757loPI   C4B12112   0.490  14.549   6.666 -0.1632 -0.0091  0.3101
  758loPI    C112113   3.126   1.066   4.647  0.0355  0.1305  0.0600
  758loPI    C212114   3.097   0.807   4.344  0.0779  0.0715  0.1060
  758loPI    C312115   2.793   1.053   4.426  0.0433  0.0468  0.0527
  758loPI   PO412116   3.246   0.950   4.818 -0.2140  0.0575 -0.3050
  758loPI   GL112117   3.499   0.858   5.194  0.0187 -0.0018  0.1404
  758loPI   GL212118   3.694   0.610   5.004  0.0965 -0.0327 -0.1732
  758loPI   C1A12119   3.713   0.907   5.562  0.0810  0.0240  0.2851
  758loPI   C2A12120   3.845   0.940   5.995 -0.2890 -0.0487  0.0359
  758loPI   C3A12121   4.059   0.845   6.344  0.0719  0.3951 -0.0365
  758loPI   C4A12122   4.202   0.710   6.651  0.3114 -0.0881 -0.0633
  758loPI   C5A12123   4.264   0.844   7.077 -0.2343  0.2857 -0.1143
  758loPI   C6A12124   4.461   0.886   7.462 -0.2081 -0.0706  0.0944
  758loPI   C1B12125   3.645   0.404   5.355 -0.0437  0.0162 -0.2222
  758loPI   C2B12126   3.567   0.129   5.634  0.0272  0.3412  0.1397
  758loPI   C3B12127   3.488   0.146   6.150  0.0427 -0.1834 -0.1726
  758loPI   C4B12128   3.489   0.099   6.633 -0.1018 -0.1591  0.2693
  759loPI    C112129  17.298  18.820   4.687  0.0997 -0.1511 -0.1289
  759loPI    C212130  17.354  19.036   4.355  0.3723 -0.2827 -0.1715
  759loPI    C312131  17.265  18.647   4.328 -0.3103 -0.1449 -0.0990
  759loPI   PO412132  17.409  18.964   4.898  0.2140 -0.0465 -0.2487
  759loPI   GL112133  17.271  19.196   5.330  0.2521  0.0627  0.0033
  759loPI   GL212134  17.280  19.551   5.162 -0.0622  0.0747  0.3612
  759loPI   C1A12135  17.251  19.131   5.771  0.1405  0.1948  0.0285
  759loPI   C2A12136  17.134  19.076   6.115  0.2218  0.1116  0.1094
  759loPI   C3A12137  17.058  18.804   6.482  0.0679  0.1963  0.1747
  759loPI   C4A12138  17.038  18.639   6.804 -0.0721  0.0239  0.0443
  759loPI   C5A12139  16.854  18.381   7.033 -0.1622 -0.1910  0.3926
  759loPI   C6A12140  16.633  18.105   7.362 -0.0286 -0.0876 -0.1256
  759loPI   C1B12141  17.338  19.655   5.588 -0.2220 -0.0948  0.1313
  759loPI   C2B12142  17.310  19.826   6.003  0.3509  0.0563 -0.1398
  759loPI   C3B12143  17.056  20.000   6.378  0.1721 -0.0057  0.2098
  759loPI   C4B12144  16.716  20.135   6.691  0.1759 -0.1482  0.2067
  760loPI    C112145   3.900   8.230   4.609 -0.1316  0.1387 -0.0451
  760loPI    C212146   4.243   8.263   4.406  0.0474 -0.0266  0.2234
  760loPI    C312147   4.028   7.926   4.383  0.0223 -0.0118  0.2384
  760loPI   PO412148   3.923   8.230   4.832 -0.0265 -0.0166  0.1236
  760loPI   GL112149   3.687   8.062   5.200 -0.0985  0.4164 -0.0745
  760loPI   GL212150   3.584   7.671   5.192 -0.1325  0.2799  0.2041
  760loPI   C1A12151   3.849   8.150   5.608  0.0027  0.0823 -0.0774
  760loPI   C2A12152   3.882   8.082   6.064 -0.0103  0.1341 -0.1886
  760loPI   C3A12153   3.756   8.095   6.521  0.1584 -0.1122  0.0471
  760loPI   C4A12154   3.872   7.838   6.898  0.1520  0.0843  0.1161
  760loPI   C5A12155   3.883   7.834   7.325 -0.0805 -0.1857  0.0099
  760loPI   C6A12156   4.175   7.713   7.614  0.2223 -0.0375 -0.1554
  760loPI   C1B12157   3.463   7.830   5.588  0.2021  0.2458 -0.0330
  760loPI   C2B12158   3.401   8.225   5.858  0.0181  0.1555  0.3414
  760loPI   C3B12159   3.551   8.454   6.225  0.0692  0.0418  0.1947
  760loPI   C4B12160   3.701   8.564   6.627 -0.0010  0.4268 -0.0707
  761loPI    C112161  11.088   7.303   4.754  0.3071  0.0728 -0.0683
  761loPI    C212162  11.418   7.194   4.952  0.1596 -0.1964  0.0337
  761loPI    C312163  11.385   7.117   4.561  0.1278 -0.3683  0.0694
  761loPI   PO412164  10.964   7.411   5.088  0.2368 -0.0216 -0.1141
  761loPI   GL112165  10.975   7.663   5.462 -0.0351 -0.1217  0.1914
  761loPI   GL212166  10.913   8.073   5.585  0.1832 -0.2483  0.1218
  761loPI   C1A12167  10.665   7.548   5.756  0.2157 -0.3071 -0.1146
  761loPI   C2A12168  10.587   7.712   6.056 -0.0651 -0.0682 -0.0409
  761loPI   C3A12169  10.934   7.763   6.422 -0.0272  0.2111 -0.3043
  761loPI   C4A12170  11.124   7.615   6.778 -0.0980 -0.1141 -0.3846
  761loPI   C5A12171  11.096   7.621   7.228  0.1985 -0.1503  0.0805
  761loPI   C6A12172  11.002   7.755   7.625  0.1118 -0.0212 -0.2111
  761loPI   C1B12173  10.892   8.176   6.007 -0.2146 -0.0550 -0.1390
  761loPI   C2B12174  10.785   8.223   6.348 -0.2190 -0.1218 -0.2248
  761loPI   C3B12175  10.705   8.523   6.668  0.1828 -0.0323  0.0171
  761loPI   C4B12176  10.796   8.563   7.060  0.1412  0.1623  0.1403
  762loPI    C112177   2.392  19.200   4.437 -0.0578 -0.1729 -0.1580
  762loPI    C212178   2.366  19.563   4.272  0.0143 -0.0353  0.1270
  762loPI    C312179   2.614  19.291   4.117  0.1513  0.1228  0.0653
  762loPI   PO412180   2.424  19.221   4.692 -0.1705 -0.0300 -0.3611
  762loPI   GL112181   2.470  19.289   5.163  0.2907 -0.1010  0.2985
  762loPI   GL212182   2.209  19.559   5.152  0.1007  0.2996 -0.4624
  762loPI   C1A12183   2.171  19.060   5.427  0.2034  0.0345 -0.0041
  762loPI   C2A12184   2.189  18.902   5.788 -0.0814  0.3681 -0.1490
  762loPI   C3A12185   2.261  18.821   6.137  0.1747  0.4128  0.0201
  762loPI   C4A12186   2.410  18.946   6.644 -0.2261  0.2580 -0.0785
  762loPI   C5A12187   2.181  18.995   7.056 -0.1405  0.4698 -0.1878
  762loPI   C6A12188   1.981  18.833   7.423  0.0376  0.0925  0.0406
  762loPI   C1B12189   2.275  19.558   5.590 -0.1011  0.0522  0.0425
  762loPI   C2B12190   2.413  19.781   5.893  0.0302  0.0538  0.2790
  762loPI   C3B12191   2.525  19.845   6.357 -0.1628 -0.1542  0.0713
  762loPI   C4B12192   2.785  20.131   6.692  0.4024  0.2223 -0.2220
  763loPI    C112193  14.534  12.036   4.469 -0.1224 -0.1459 -0.2746
  763loPI    C212194  14.793  11.733   4.508 -0.0515 -0.0763 -0.2010
  763loPI    C312195  14.514  11.723   4.221  0.0074 -0.1699 -0.2553
  763loPI   PO412196  14.526  12.019   4.838  0.2159 -0.0723 -0.2971
  763loPI   GL112197  14.386  11.993   5.223 -0.2389 -0.1478  0.0395
  763loPI   GL212198  14.426  11.783   5.415  0.0775  0.2749 -0.1219
  763loPI   C1A12199  14.171  12.298   5.508  0.1403 -0.0118 -0.0062
  763loPI   C2A12200  13.992  12.404   5.883 -0.0497 -0.2441 -0.2660
  763loPI   C3A12201  13.877  12.794   6.196 -0.0380  0.2295  0.0569
  763loPI   C4A12202  13.691  13.110   6.592  0.0196  0.0514 -0.0609
  763loPI   C5A12203  13.513  13.123   7.056 -0.2511  0.0218  0.0125
  763loPI   C6A12204  13.454  12.951   7.517  0.0373  0.3579 -0.1023
  763loPI   C1B12205  14.375  11.881   5.833  0.0711 -0.2010 -0.3624
  763loPI   C2B12206  14.363  12.142   6.216  0.0278  0.0311 -0.1201
  763loPI   C3B12207  14.309  12.105   6.670  0.0256 -0.1974  0.1856
  763loPI   C4B12208  14.252  11.810   7.071  0.2611 -0.0704  0.0544
  764loPI    C112209  18.227  18.678   4.705 -0.0160 -0.1207  0.0406
  764loPI    C212210  18.149  18.622   4.317  0.0747 -0.1181  0.0218
  764loPI    C312211  18.224  18.990   4.455  0.2020 -0.1398  0.0122
  764loPI   PO412212  18.107  18.559   4.829  0.1677 -0.2901 -0.1136
  764loPI   GL112213  18.089  18.468   5.305 -0.4114  0.2502  0.0904
  764loPI   GL212214  17.918  18.174   5.279 -0.0458  0.1913  0.1107
  764loPI   C1A12215  17.790  18.632   5.559 -0.0337 -0.1335  0.1576
  764loPI   C2A12216  17.640  18.841   5.827  0.2739  0.0945 -0.2032
  764loPI   C3A12217  17.603  18.858   6.243 -0.0557 -0.0893 -0.4182
  764loPI   C4A12218  17.636  18.800   6.690 -0.3799  0.2505 -0.3886
  764loPI   C5A12219  17.590  18.684   7.097 -0.1501 -0.0490 -0.0602
  764loPI   C6A12220  17.134  18.799   7.310 -0.0072 -0.7051  0.1310
  764loPI   C1B12221  18.126  18.143   5.671 -0.0853  0.1988 -0.1375
  764loPI   C2B12222  18.256  18.310   6.056 -0.3884  0.1922  0.1787
  764loPI   C3B12223  18.494  18.394   6.403 -0.0395 -0.0409 -0.5683
  764loPI   C4B12224  18.827  18.452   6.743 -0.0251  0.1531 -0.1193
  765loPI    C112225  15.279   1.980   4.940  0.0308 -0.0033 -0.1044
  765loPI    C212226  15.210   1.927   4.550  0.0752 -0.0925 -0.1005
  765loPI    C312227  14.909   1.901   4.812  0.0497 -0.0574 -0.1262
  765loPI   PO412228  15.459   1.926   4.988  0.3527  0.1435 -0.1517
  765loPI   GL112229  15.817   1.937   5.370  0.1001  0.2288  0.2774
  765loPI   GL212230  15.524   1.703   5.417  0.0605 -0.0269 -0.2621
  765loPI   C1A12231  15.794   1.887   5.807  0.1441 -0.2090 -0.1600
  765loPI   C2A12232  15.520   2.061   6.163 -0.2238  0.1620  0.0817
  765loPI   C3A12233  15.418   2.295   6.433  0.0031 -0.0843 -0.0516
  765loPI   C4A12234  15.587   2.582   6.828  0.0320 -0.1019  0.0096
  765loPI   C5A12235  15.672   2.676   7.319 -0.1677 -0.3061  0.0210
  765loPI   C6A12236  15.991   2.651   7.600  0.1311 -0.1919  0.0209
  765loPI   C1B12237  15.497   1.455   5.729  0.2144  0.2139 -0.1782
  765loPI   C2B12238  15.724   1.499   6.161  0.0200 -0.0612  0.1274
  765loPI   C3B12239  15.788   1.576   6.506 -0.1253 -0.0908 -0.0386
  765loPI   C4B12240  15.694   1.463   6.935  0.0036  0.1421 -0.2268
  766loPI    C112241   1.978  18.556   4.982  0.0998  0.1084 -0.1713
  766loPI    C212242   1.705  18.471   4.702  0.1670  0.0792 -0.2285
  766loPI    C312243   2.073  18.318   4.675  0.1351 -0.0323 -0.0526
  766loPI   PO412244   1.914  18.486   5.177 -0.0250 -0.3231  0.0512
  766loPI   GL112245   1.979  18.580   5.540  0.2016 -0.0126  0.1512
  766loPI   GL212246   1.752  18.815   5.526 -0.3251  0.0385 -0.2204
  766loPI   C1A12247   1.960  18.402   5.907 -0.0452 -0.1209 -0.1516
  766loPI   C2A12248   1.861  18.531   6.296 -0.0431  0.1781  0.1559
  766loPI   C3A12249   1.444  18.484   6.560 -0.0889 -0.0892 -0.3142
  766loPI   C4A12250   1.006  18.486   6.832 -0.1119  0.2218 -0.1315
  766loPI   C5A12251   0.818  18.339   7.141 -0.2595  0.1491  0.0818
  766loPI   C6A12252   0.661  18.112   7.545  0.0774  0.2429 -0.0440
  766loPI   C1B12253   1.791  18.964   6.023  0.2993  0.2924 -0.1278
  766loPI   C2B12254   1.857  18.978   6.429  0.1097  0.0616  0.3149
  766loPI   C3B12255   1.798  18.719   6.868  0.0499  0.2642 -0.1365
  766loPI   C4B12256   1.498  18.531   7.148  0.0504 -0.0383 -0.2388
  767loPI    C112257   2.410  13.812   4.266 -0.0977  0.0990  0.2345
  767loPI    C212258   2.399  14.202   4.179  0.0939  0.0677  0.0595
  767loPI    C312259   2.539  13.942   3.910 -0.0035 -0.1191  0.1872
  767loPI   PO412260   2.525  13.801   4.605 -0.0796 -0.0635  0.2453
  767loPI   GL112261   2.453  13.686   5.017 -0.1381 -0.1249  0.0085
  767loPI   GL212262   2.485  13.947   5.071  0.1113 -0.1832 -0.0187
  767loPI   C1A12263   2.311  13.693   5.503 -0.0741  0.1996  0.0697
  767loPI   C2A12264   1.949  13.522   5.721 -0.0037  0.1801 -0.0140
  767loPI   C3A12265   2.051  13.352   6.124  0.2430  0.0488 -0.1804
  767loPI   C4A12266   1.871  13.175   6.548  0.0857 -0.2692 -0.2384
  767loPI   C5A12267   1.478  12.971   6.668 -0.0199 -0.1389 -0.1573
  767loPI   C6A12268   1.074  12.790   6.870  0.0064 -0.2742 -0.2999
  767loPI   C1B12269   2.836  13.864   5.294 -0.3435 -0.1187 -0.2155
  767loPI   C2B12270   3.058  14.142   5.619  0.0703  0.1973 -0.0973
  767loPI   C3B12271   3.095  14.194   6.189  0.2104 -0.0282 -0.0201
  767loPI   C4B12272   3.178  14.318   6.616 -0.0018  0.1211  0.2284
  768loPI    C112273   1.402  15.237   4.562  0.0487  0.2596 -0.1491
  768loPI    C212274   1.180  15.180   4.234  0.0476  0.1045 -0.1225
  768loPI    C312275   1.049  15.051   4.589  0.1864 -0.0012 -0.1088
  768loPI   PO412276   1.694  15.088   4.573  0.0494 -0.0316 -0.0847
  768loPI   GL112277   2.011  14.990   4.843 -0.1775 -0.0185  0.2343
  768loPI   GL212278   2.329  14.865   4.955  0.0338  0.2022  0.0080
  768loPI   C1A12279   1.798  14.735   5.176  0.0371  0.2605  0.1838
  768loPI   C2A12280   1.426  14.531   5.286 -0.1426 -0.1021 -0.0786
  768loPI   C3A12281   1.499  14.293   5.681  0.0289  0.1084  0.1099
  768loPI   C4A12282   1.354  14.161   6.077  0.1200 -0.2296 -0.0457
  768loPI   C5A12283   1.529  14.229   6.500  0.3371 -0.1845 -0.3120
  768loPI   C6A12284   1.850  14.070   6.839  0.0661 -0.1771 -0.2520
  768loPI   C1B12285   2.436  14.784   5.374  0.2299 -0.2700  0.1754
  768loPI   C2B12286   2.538  14.822   5.745  0.2810  0.2424  0.2531
  768loPI   C3B12287   2.485  14.848   6.205 -0.2072 -0.0441  0.1839
  768loPI   C4B12288   2.621  15.096   6.544  0.0181 -0.0861 -0.2947
  769loPI    C112289  17.943   4.607   4.909  0.2545 -0.0142  0.0682
  769loPI    C212290  18.174   4.646   4.585  0.0295  0.1093 -0.0793
  769loPI    C312291  17.844   4.870   4.624 -0.0441 -0.0360  0.1484
  769loPI   PO412292  18.254   4.616   5.108  0.4607 -0.1881 -0.0425
  769loPI   GL112293  18.433   4.955   5.363 -0.1990  0.0124 -0.0082
  769loPI   GL212294  18.176   5.235   5.384 -0.1445  0.1276 -0.1888
  769loPI   C1A12295  18.557   4.806   5.738 -0.0944  0.3906 -0.3389
  769loPI   C2A12296  18.539   4.836   6.163 -0.1599 -0.0788  0.1377
  769loPI   C3A12297  18.410   4.866   6.596 -0.2206  0.0690 -0.1866
  769loPI   C4A12298  18.158   4.791   6.895  0.0481  0.0129 -0.0263
  769loPI   C5A12299  17.996   4.818   7.356  0.2135 -0.0425 -0.0110
  769loPI   C6A12300  17.821   5.015   7.733 -0.1191 -0.1093  0.2082
  769loPI   C1B12301  18.471   5.337   5.679  0.1587 -0.1997 -0.3360
  769loPI   C2B12302  18.371   5.363   6.107  0.3545  0.1891 -0.0288
  769loPI   C3B12303  18.365   5.358   6.498  0.0373 -0.0960  0.1561
  769loPI   C4B12304  18.331   5.292   6.878 -0.1081  0.1962  0.0447
  770loPI    C112305   6.428  12.967   4.647  0.0389  0.3532  0.0158
  770loPI    C212306   6.623  12.923   4.301 -0.1576  0.0262 -0.0573
  770loPI    C312307   6.756  12.739   4.630 -0.0635  0.2051  0.0057
  770loPI   PO412308   6.131  12.953   4.543 -0.1643 -0.0947 -0.2631
  770loPI   GL112309   5.930  13.281   4.757  0.1965 -0.2745 -0.2460
  770loPI   GL212310   5.627  13.399   4.971 -0.1255 -0.0777  0.0413
  770loPI   C1A12311   6.065  13.166   5.166 -0.0782 -0.1458  0.0712
  770loPI   C2A12312   6.128  13.084   5.623  0.1969 -0.1613  0.0405
  770loPI   C3A12313   6.378  13.204   5.976  0.1639 -0.0039 -0.1034
  770loPI   C4A12314   6.623  12.932   6.036 -0.0846  0.1180  0.2853
  770loPI   C5A12315   6.917  12.644   5.802  0.4247  0.2387  0.1266
  770loPI   C6A12316   7.200  12.354   5.853 -0.0021  0.0887 -0.1709
  770loPI   C1B12317   5.731  13.429   5.448  0.4180  0.2318  0.4417
  770loPI   C2B12318   5.908  13.539   5.778  0.1579 -0.2220  0.1961
  770loPI   C3B12319   6.017  13.481   6.157  0.0443 -0.0165 -0.3785
  770loPI   C4B12320   6.013  13.486   6.559  0.2421 -0.1777  0.1294
  771loPI    C112321  10.651   0.356   4.639 -0.2175 -0.2869 -0.1929
  771loPI    C212322  10.344   0.307   4.388 -0.1603 -0.0771 -0.3058
  771loPI    C312323  10.571   0.636   4.365 -0.1014 -0.0967 -0.0356
  771loPI   PO412324  10.537   0.349   4.864  0.3373  0.0471  0.1523
  771loPI   GL112325  10.304   0.414   5.182  0.0456 -0.1119 -0.2395
  771loPI   GL212326  10.338   0.146   5.347  0.4699 -0.1825  0.4048
  771loPI   C1A12327  10.451   0.569   5.587 -0.0484  0.1210  0.1962
  771loPI   C2A12328  10.692   0.519   5.898  0.0128 -0.1919 -0.0825
  771loPI   C3A12329  11.104   0.481   6.097  0.2655 -0.0078  0.0722
  771loPI   C4A12330  11.282   0.390   6.436  0.0759  0.2187  0.2141
  771loPI   C5A12331  11.155   0.157   6.773 -0.0888 -0.1448  0.2153
  771loPI   C6A12332  10.959  -0.088   7.004 -0.2363 -0.1910  0.3711
  771loPI   C1B12333  10.382   0.141   5.852 -0.3154  0.0089 -0.1287
  771loPI   C2B12334  10.374   0.223   6.291 -0.0998  0.0385 -0.1176
  771loPI   C3B12335  10.707   0.495   6.506  0.0628 -0.2942 -0.2746
  771loPI   C4B12336  11.072   0.743   6.782 -0.0121 -0.0317  0.3173
  772loPI    C112337  15.120   2.401   4.775  0.2527 -0.0843  0.0040
  772loPI    C212338  15.242   2.576   4.437  0.1151 -0.0327 -0.0195
  772loPI    C312339  14.851   2.541   4.514  0.1466  0.1133  0.2158
  772loPI   PO412340  15.188   2.484   4.973 -0.2084 -0.0103 -0.2157
  772loPI   GL112341  15.256   2.401   5.420  0.0949 -0.2412  0.0905
  772loPI   GL212342  15.362   2.155   5.426 -0.0765  0.2953  0.0740
  772loPI   C1A12343  15.182   2.489   5.845 -0.0304 -0.0069 -0.0633
  772loPI   C2A12344  14.878   2.522   6.306  0.1847  0.0371  0.0944
  772loPI   C3A12345  14.679   2.326   6.569 -0.1505 -0.0518  0.0967
  772loPI   C4A12346  14.293   2.277   6.902  0.0194  0.0615 -0.3515
  772loPI   C5A12347  14.056   2.297   7.210 -0.2240  0.2881 -0.2135
  772loPI   C6A12348  13.690   2.039   7.325 -0.1803  0.0700  0.1452
  772loPI   C1B12349  15.197   1.983   5.834  0.0188 -0.0840  0.2346
  772loPI   C2B12350  15.278   1.635   6.183 -0.1175  0.1296 -0.1978
  772loPI   C3B12351  15.292   1.723   6.719  0.0455 -0.1574 -0.1834
  772loPI   C4B12352  15.256   1.780   7.193  0.1119 -0.2394  0.0115
  773loPI    C112353   7.681   4.824   4.453 -0.0110  0.1386  0.2887
  773loPI    C212354   7.395   4.584   4.310  0.1350  0.0526  0.1358
  773loPI    C312355   7.321   4.818   4.626 -0.0379 -0.1238  0.2284
  773loPI   PO412356   7.874   4.718   4.529  0.0825  0.3997 -0.0741
  773loPI   GL112357   7.974   4.737   5.030 -0.0325 -0.0638  0.0875
  773loPI   GL212358   8.116   5.033   4.992  0.0997 -0.2888 -0.2653
  773loPI   C1A12359   7.746   4.535   5.439 -0.0914  0.4054 -0.1450
  773loPI   C2A12360   7.795   4.474   5.860 -0.0731 -0.1478  0.2592
  773loPI   C3A12361   7.997   4.324   6.268 -0.0202  0.1594 -0.2779
  773loPI   C4A12362   8.088   4.319   6.699 -0.3765 -0.0891 -0.4122
  773loPI   C5A12363   8.209   4.306   7.179  0.2874 -0.3597  0.1012
  773loPI   C6A12364   8.188   3.992   7.452  0.3831 -0.0483  0.0882
  773loPI   C1B12365   8.066   5.165   5.346 -0.0650 -0.2301 -0.0990
  773loPI   C2B12366   7.784   5.092   5.807 -0.0882  0.1343  0.1106
  773loPI   C3B12367   7.712   4.846   6.167 -0.0490 -0.0569  0.0169
  773loPI   C4B12368   7.679   5.194   6.547 -0.6326  0.1704  0.1288
  774loPI    C112369   1.409   4.859   4.753  0.1380  0.2190  0.1295
  774loPI    C212370   1.254   5.122   4.494  0.0751  0.0920  0.0368
  774loPI    C312371   1.611   4.956   4.422 -0.0962 -0.2043 -0.1471
  774loPI   PO412372   1.406   4.970   5.021 -0.1118  0.0385  0.1615
  774loPI   GL112373   1.536   4.854   5.379 -0.4075  0.1785  0.1909
  774loPI   GL212374   1.350   5.024   5.600  0.0141  0.1864  0.0069
  774loPI   C1A12375   1.422   4.568   5.698  0.2822  0.0572 -0.0993
  774loPI   C2A12376   1.504   4.518   6.186  0.2256  0.1580  0.2249
  774loPI   C3A12377   1.503   4.603   6.570 -0.1034  0.0151  0.1737
  774loPI   C4A12378   1.810   4.377   6.983  0.0202 -0.1273  0.0865
  774loPI   C5A12379   2.047   4.149   7.303 -0.1052  0.3761 -0.1529
  774loPI   C6A12380   2.468   4.034   7.336 -0.4017  0.0083 -0.1874
  774loPI   C1B12381   1.342   5.076   5.981 -0.2512  0.3457  0.1653
  774loPI   C2B12382   1.364   5.057   6.433 -0.0130  0.0584 -0.0932
  774loPI   C3B12383   1.284   5.107   6.859 -0.0015 -0.1903 -0.3728
  774loPI   C4B12384   1.193   5.386   7.202  0.1740 -0.1844  0.4134
  775loPI    C112385   3.970   8.786   4.637  0.0331  0.0768  0.0185
  775loPI    C212386   3.675   8.647   4.869  0.1493 -0.1820  0.0151
  775loPI    C312387   3.642   8.630   4.470  0.1623 -0.1977  0.0147
  775loPI   PO412388   4.093   8.995   4.811  0.0428 -0.0918 -0.1221
  775loPI   GL112389   3.865   9.321   5.131  0.0695 -0.1865 -0.2932
  775loPI   GL212390   3.754   8.993   5.200  0.0229  0.0012  0.0495
  775loPI   C1A12391   3.665   9.366   5.572 -0.2324 -0.0035  0.0245
  775loPI   C2A12392   3.800   9.461   5.938 -0.2505 -0.2352 -0.0591
  775loPI   C3A12393   3.793   9.382   6.313  0.0980  0.0760 -0.3796
  775loPI   C4A12394   4.182   9.623   6.567 -0.1799  0.2575  0.1253
  775loPI   C5A12395   4.495   9.522   6.836 -0.2305  0.0825  0.0451
  775loPI   C6A12396   4.766   9.586   7.217  0.1568  0.4803 -0.0807
  775loPI   C1B12397   3.998   8.665   5.459 -0.4524 -0.3893  0.3586
  775loPI   C2B12398   4.314   8.440   5.543  0.0523 -0.0717 -0.0218
  775loPI   C3B12399   4.345   8.096   5.714  0.0493 -0.0918 -0.4652
  775loPI   C4B12400   4.348   7.877   6.024 -0.1564  0.0585  0.1734
  776loPI    C112401   8.341   4.757   4.682  0.0302  0.0249  0.0814
  776loPI    C212402   8.441   4.578   4.339 -0.1019 -0.2264  0.1714
  776loPI    C312403   8.530   4.963   4.396 -0.2767 -0.1203 -0.2340
  776loPI   PO412404   8.456   4.634   4.875 -0.1614  0.1820 -0.2057
  776loPI   GL112405   8.375   4.521   5.315  0.1329  0.0145 -0.1506
  776loPI   GL212406   8.595   4.865   5.325  0.0340  0.1156 -0.3026
  776loPI   C1A12407   8.200   4.671   5.597 -0.0043  0.2192 -0.2358
  776loPI   C2A12408   8.210   4.831   6.054  0.2632  0.0297 -0.1023
  776loPI   C3A12409   8.170   4.941   6.501  0.4519  0.1359  0.2643
  776loPI   C4A12410   7.782   4.683   6.735 -0.0073  0.0987 -0.0341
  776loPI   C5A12411   7.321   4.804   6.942 -0.0771  0.0851 -0.2296
  776loPI   C6A12412   7.145   5.035   7.267 -0.2503  0.1231  0.1869
  776loPI   C1B12413   8.686   4.715   5.775 -0.0072 -0.0750 -0.1779
  776loPI   C2B12414   8.721   4.871   6.209  0.1664  0.2241 -0.1551
  776loPI   C3B12415   8.631   5.069   6.544 -0.0916  0.5594 -0.1905
  776loPI   C4B12416   8.591   5.228   7.016  0.0623 -0.0503  0.0720
  777loPI    C112417   2.376  15.961   4.889 -0.2165  0.1037  0.2729
  777loPI    C212418   2.565  16.126   4.577  0.0827 -0.2146  0.2798
  777loPI    C312419   2.274  16.327   4.764  0.0517  0.0690 -0.0631
  777loPI   PO412420   2.587  15.917   5.064 -0.4110 -0.0012 -0.2299
  777loPI   GL112421   2.687  15.989   5.412  0.1154 -0.2126 -0.1555
  777loPI   GL212422   2.951  16.053   5.573 -0.2032  0.0999 -0.2912
  777loPI   C1A12423   2.429  15.756   5.719 -0.0104 -0.1925 -0.0878
  777loPI   C2A12424   2.019  15.644   5.928  0.0323  0.0779 -0.2203
  777loPI   C3A12425   1.704  15.892   6.069  0.0498 -0.4083  0.4352
  777loPI   C4A12426   1.277  16.011   6.114 -0.3889  0.2486  0.2478
  777loPI   C5A12427   0.821  16.124   6.173 -0.1702 -0.2757  0.0570
  777loPI   C6A12428   0.415  16.173   6.160 -0.0001 -0.2217 -0.1372
  777loPI   C1B12429   2.955  15.843   6.009 -0.2677 -0.0270  0.1887
  777loPI   C2B12430   2.582  15.988   6.162  0.2014 -0.1015 -0.0431
  777loPI   C3B12431   2.323  16.045   6.489  0.2161 -0.1812  0.1458
  777loPI   C4B12432   1.861  16.006   6.501  0.0765 -0.0536  0.0790
  778loPI    C112433  10.221  16.720   4.516 -0.0726  0.1311 -0.0479
  778loPI    C212434  10.423  17.045   4.400 -0.0299  0.1781  0.1538
  778loPI    C312435  10.581  16.682   4.347 -0.0407  0.1945  0.0051
  778loPI   PO412436  10.148  16.718   4.752 -0.0437  0.0023  0.3877
  778loPI   GL112437   9.838  16.879   4.958 -0.1226  0.1436  0.1330
  778loPI   GL212438   9.537  16.777   5.135 -0.1844 -0.1912 -0.1460
  778loPI   C1A12439   9.931  16.551   5.363  0.2486  0.1071 -0.2932
  778loPI   C2A12440  10.012  16.509   5.737 -0.0771 -0.1188 -0.1473
  778loPI   C3A12441   9.960  16.227   6.117 -0.0619 -0.0416 -0.1271
  778loPI   C4A12442  10.091  16.137   6.620 -0.0540 -0.3330 -0.0773
  778loPI   C5A12443  10.000  16.242   7.016 -0.0564 -0.0271  0.2613
  778loPI   C6A12444  10.167  16.083   7.431 -0.3072  0.0019 -0.0563
  778loPI   C1B12445   9.503  16.678   5.586 -0.0148 -0.1595  0.0179
  778loPI   C2B12446   9.528  16.836   6.020  0.1647  0.1583  0.0808
  778loPI   C3B12447   9.917  16.684   6.307  0.0122 -0.0454  0.0591
  778loPI   C4B12448  10.295  16.579   6.580 -0.1740 -0.2859  0.1624
  779loPI    C112449  11.415   5.815   4.838  0.0705 -0.0908  0.3472
  779loPI    C212450  11.682   6.094   4.731 -0.0433 -0.0436  0.1826
  779loPI    C312451  11.293   6.149   4.655 -0.0469 -0.3319 -0.0265
  779loPI   PO412452  11.577   5.627   4.886  0.2434  0.2384 -0.0233
  779loPI   GL112453  11.644   5.500   5.320  0.0205  0.1666 -0.1043
  779loPI   GL212454  12.004   5.613   5.571  0.0192 -0.1515  0.0735
  779loPI   C1A12455  11.461   5.511   5.776  0.0168  0.0918  0.3244
  779loPI   C2A12456  11.511   5.460   6.203  0.5445  0.2049  0.0316
  779loPI   C3A12457  11.319   5.334   6.535  0.0730  0.0677  0.0365
  779loPI   C4A12458  11.224   5.417   7.001  0.0616  0.2292  0.0085
  779loPI   C5A12459  11.104   5.304   7.416 -0.1634  0.0798  0.0830
  779loPI   C6A12460  11.161   4.966   7.830  0.1166 -0.0068 -0.1882
  779loPI   C1B12461  12.035   5.730   5.932  0.0732  0.1074  0.4071
  779loPI   C2B12462  12.059   5.678   6.360  0.2813 -0.0518 -0.1172
  779loPI   C3B12463  12.030   5.706   6.840 -0.1259  0.0509 -0.0614
  779loPI   C4B12464  12.111   5.635   7.245 -0.3566  0.1354  0.3415
  780loPI    C112465  16.496   4.256   4.828 -0.0942  0.6242 -0.0331
  780loPI    C212466  16.697   4.097   4.521 -0.0406 -0.0907  0.3523
  780loPI    C312467  16.485   4.432   4.469  0.2275 -0.0170 -0.3741
  780loPI   PO412468  16.644   4.357   5.020 -0.0458  0.2099  0.1562
  780loPI   GL112469  16.804   4.202   5.351  0.2025  0.0368  0.5672
  780loPI   GL212470  16.306   4.185   5.302 -0.3543  0.2928  0.0806
  780loPI   C1A12471  16.865   4.080   5.744  0.2332 -0.0674  0.2050
  780loPI   C2A12472  16.944   4.213   6.110 -0.3712  0.1917  0.1270
  780loPI   C3A12473  16.805   4.174   6.554  0.1832 -0.1860  0.0381
  780loPI   C4A12474  16.664   4.123   6.938 -0.1664  0.2304 -0.1200
  780loPI   C5A12475  16.464   3.995   7.285 -0.0620 -0.1900  0.1787
  780loPI   C6A12476  16.274   4.035   7.735 -0.5365  0.1285 -0.1344
  780loPI   C1B12477  16.417   4.195   5.705 -0.0405  0.0118  0.1716
  780loPI   C2B12478  16.402   4.084   6.112 -0.2005 -0.1204 -0.1841
  780loPI   C3B12479  16.364   3.962   6.526  0.1025  0.2242  0.2264
  780loPI   C4B12480  16.169   4.098   6.842  0.1041 -0.1550 -0.0392
  781loPI    C112481  14.586   5.628   5.054  0.4637 -0.1333 -0.1386
  781loPI    C212482  14.730   5.842   4.748  0.1688  0.2131 -0.0425
  781loPI    C312483  14.372   5.666   4.718  0.1146  0.2934  0.1208
  781loPI   PO412484  14.835   5.551   5.181 -0.2548 -0.0010  0.3658
  781loPI   GL112485  14.994   5.344   5.515  0.0513  0.0684  0.2181
  781loPI   GL212486  14.716   5.208   5.535  0.4537  0.0441 -0.1034
  781loPI   C1A12487  15.222   5.347   5.864  0.1965  0.1226  0.1802
  781loPI   C2A12488  15.321   5.507   6.203  0.3698 -0.0721 -0.0645
  781loPI   C3A12489  15.253   5.366   6.692 -0.3178  0.2880  0.3246
  781loPI   C4A12490  15.150   5.396   7.145 -0.2164 -0.1490 -0.0276
  781loPI   C5A12491  15.381   5.462   7.493  0.3496  0.3614 -0.1374
  781loPI   C6A12492  15.089   5.266   7.807 -0.3836  0.0802  0.0284
  781loPI   C1B12493  14.718   5.029   6.005 -0.0385  0.0868 -0.1525
  781loPI   C2B12494  14.698   4.822   6.391  0.1262  0.0122 -0.2454
  781loPI   C3B12495  14.824   4.937   6.691 -0.1089 -0.1419  0.1090
  781loPI   C4B12496  15.121   4.920   6.966  0.4019 -0.0581 -0.0417
  782loPI    C112497  19.065   4.538   4.794 -0.2190  0.2240  0.0174
  782loPI    C212498  18.677   4.453   4.752 -0.2072  0.2809 -0.2270
  782loPI    C312499  18.943   4.298   4.497  0.0074 -0.2472  0.2937
  782loPI   PO412500  19.030   4.790   4.825 -0.3173 -0.0627 -0.1698
  782loPI   GL112501  19.038   5.180   4.996  0.1956  0.2138  0.2190
  782loPI   GL212502  19.332   5.275   4.998 -0.1377  0.0808 -0.2624
  782loPI   C1A12503  18.907   5.131   5.424 -0.2366  0.2433  0.0748
  782loPI   C2A12504  18.905   5.164   5.851  0.4104 -0.0447  0.3254
  782loPI   C3A12505  18.854   5.183   6.278  0.0530  0.3230  0.2253
  782loPI   C4A12506  18.768   5.138   6.774  0.2230 -0.5850 -0.0272
  782loPI   C5A12507  18.721   5.428   7.199  0.0884  0.3544 -0.0405
  782loPI   C6A12508  18.852   5.470   7.623  0.1838 -0.2271 -0.2961
  782loPI   C1B12509  19.296   5.418   5.412  0.0809  0.0314 -0.0812
  782loPI   C2B12510  19.299   5.542   5.820  0.0226 -0.1518  0.0738
  782loPI   C3B12511  19.212   5.526   6.186  0.0296  0.0814 -0.0073
  782loPI   C4B12512  19.199   5.528   6.638 -0.2878 -0.0312  0.0903
  783loPI    C112513  15.829   3.238   4.826  0.1211  0.1363  0.2009
  783loPI    C212514  15.860   2.944   5.095  0.1280  0.0508  0.1075
  783loPI    C312515  16.188   3.085   4.914  0.1056 -0.0081  0.0206
  783loPI   PO412516  15.560   3.400   5.013  0.1083  0.3132 -0.0125
  783loPI   GL112517  15.359   3.577   5.391 -0.1865  0.1243 -0.1940
  783loPI   GL212518  15.687   3.264   5.448  0.1079 -0.0350 -0.0816
  783loPI   C1A12519  15.189   3.423   5.696  0.0142  0.1253  0.0366
  783loPI   C2A12520  15.274   3.335   6.167  0.3111  0.2503  0.2423
  783loPI   C3A12521  15.043   3.319   6.555 -0.3086  0.2247 -0.2235
  783loPI   C4A12522  14.954   3.158   6.971  0.1145  0.1711 -0.2465
  783loPI   C5A12523  14.947   3.306   7.390 -0.0015 -0.1698 -0.1167
  783loPI   C6A12524  15.232   3.334   7.784 -0.1792  0.1370 -0.3120
  783loPI   C1B12525  15.749   3.273   5.815  0.0928 -0.0500 -0.0303
  783loPI   C2B12526  15.818   3.138   6.225 -0.1717 -0.0021  0.1506
  783loPI   C3B12527  15.514   3.077   6.561  0.1332 -0.0643  0.1098
  783loPI   C4B12528  15.517   3.052   6.985  0.0530 -0.0105 -0.0757
  784loPI    C112529   8.220   3.202   4.698 -0.0125  0.0959 -0.1109
  784loPI    C212530   7.875   3.054   4.559  0.0213 -0.1526  0.0614
  784loPI    C312531   8.215   2.993   4.357  0.0375 -0.3274  0.1396
  784loPI   PO412532   8.186   3.143   4.987  0.0278  0.4451  0.0227
  784loPI   GL112533   8.150   3.132   5.388 -0.1482 -0.0351  0.2163
  784loPI   GL212534   7.866   3.182   5.463 -0.2495  0.2141  0.0326
  784loPI   C1A12535   8.227   3.294   5.786 -0.0740 -0.1780 -0.0313
  784loPI   C2A12536   8.426   3.391   6.242  0.0186  0.1447  0.0458
  784loPI   C3A12537   8.571   3.530   6.627  0.2967  0.0115 -0.1346
  784loPI   C4A12538   8.826   3.537   6.974  0.0471 -0.0299  0.1921
  784loPI   C5A12539   9.242   3.478   7.242  0.0437  0.1337 -0.1282
  784loPI   C6A12540   9.398   3.398   7.644 -0.1591  0.3025  0.2667
  784loPI   C1B12541   7.843   3.038   5.946 -0.0888 -0.4522 -0.1397
  784loPI   C2B12542   7.937   3.203   6.347  0.0661 -0.0078  0.1162
  784loPI   C3B12543   7.761   3.478   6.667  0.1303  0.1228 -0.0974
  784loPI   C4B12544   7.829   3.933   6.897 -0.0852  0.1256  0.2213
  785loPI    C112545  17.385   3.865   4.766 -0.0737  0.0958  0.0079
  785loPI    C212546  17.622   3.828   4.445 -0.1305 -0.0992 -0.0128
  785loPI    C312547  17.258   3.661   4.446 -0.0831 -0.2042  0.1994
  785loPI   PO412548  17.613   4.011   4.906  0.2322 -0.1841 -0.0444
  785loPI   GL112549  17.800   3.886   5.337  0.0697  0.1938 -0.0143
  785loPI   GL212550  18.021   4.167   5.320  0.0956 -0.0495 -0.2029
  785loPI   C1A12551  17.655   3.847   5.764  0.1284 -0.0386 -0.0665
  785loPI   C2A12552  17.504   4.236   6.052  0.0117  0.1444 -0.1528
  785loPI   C3A12553  17.503   4.632   6.332 -0.1107 -0.1389  0.1362
  785loPI   C4A12554  17.335   4.962   6.612  0.0324  0.0492 -0.2346
  785loPI   C5A12555  16.907   5.130   6.608  0.4795  0.2662  0.0777
  785loPI   C6A12556  16.523   5.146   6.849  0.1275  0.1287 -0.1070
  785loPI   C1B12557  17.863   4.319   5.648 -0.0644 -0.1529  0.4232
  785loPI   C2B12558  17.990   4.518   6.073  0.0302  0.0531 -0.0807
  785loPI   C3B12559  17.931   4.458   6.518  0.1131 -0.1187  0.2297
  785loPI   C4B12560  17.742   4.545   6.968  0.2213  0.1560  0.1226
  786loPI    C112561   6.890  14.504   4.183 -0.0506  0.3475  0.1348
  786loPI    C212562   7.000  14.553   3.802  0.0445 -0.3379  0.0607
  786loPI    C312563   6.637  14.670   3.921  0.0095 -0.1272 -0.2390
  786loPI   PO412564   7.065  14.637   4.371 -0.3664  0.1071  0.3072
  786loPI   GL112565   6.964  14.730   4.881  0.0063 -0.0689  0.0409
  786loPI   GL212566   6.755  14.759   5.195  0.1034  0.0129  0.0783
  786loPI   C1A12567   7.261  14.796   5.256 -0.2269 -0.0816  0.1790
  786loPI   C2A12568   7.653  14.942   5.463  0.1505  0.0367 -0.0488
  786loPI   C3A12569   7.715  15.233   5.745 -0.0827  0.2114  0.0948
  786loPI   C4A12570   7.653  15.341   6.188 -0.1568  0.0438 -0.1652
  786loPI   C5A12571   7.480  15.155   6.643  0.0777 -0.1977 -0.1108
  786loPI   C6A12572   7.482  14.732   6.971  0.0603  0.2239 -0.1971
  786loPI   C1B12573   6.927  14.656   5.584 -0.0858 -0.0512 -0.2010
  786loPI   C2B12574   7.018  14.416   5.852 -0.2212 -0.2510  0.4819
  786loPI   C3B12575   6.837  14.376   6.262  0.0285 -0.1468  0.2512
  786loPI   C4B12576   6.640  14.527   6.659 -0.2379  0.2158  0.0194
  787loPI    C112577  16.656   2.953   5.103 -0.1643 -0.1228  0.0117
  787loPI    C212578  16.759   3.277   4.894 -0.1041  0.0146  0.2510
  787loPI    C312579  16.630   2.950   4.704  0.0051  0.1161 -0.0030
  787loPI   PO412580  16.481   3.140   5.323  0.1106  0.0911  0.0160
  787loPI   GL112581  16.289   3.204   5.763  0.0919 -0.0665 -0.1352
  787loPI   GL212582  16.668   3.200   5.751  0.1217  0.0084  0.1694
  787loPI   C1A12583  16.314   3.086   6.163  0.6018 -0.1898  0.0911
  787loPI   C2A12584  16.496   3.023   6.534 -0.0200 -0.0807 -0.3920
  787loPI   C3A12585  16.836   2.780   6.868  0.0450 -0.1832  0.1917
  787loPI   C4A12586  17.175   2.471   6.887  0.1376  0.0509  0.1832
  787loPI   C5A12587  17.386   2.272   7.177 -0.2929  0.0050 -0.1913
  787loPI   C6A12588  17.556   2.347   7.519  0.1465 -0.1889 -0.3778
  787loPI   C1B12589  16.863   3.253   6.135 -0.0322  0.0060  0.1104
  787loPI   C2B12590  17.038   3.283   6.496 -0.2306 -0.0719 -0.2334
  787loPI   C3B12591  17.097   3.234   6.955 -0.0904 -0.2886 -0.1527
  787loPI   C4B12592  17.044   3.178   7.438  0.0695  0.0079  0.0764
  788loPI    C112593  14.905  10.971   4.394 -0.0468  0.0687  0.1005
  788loPI    C212594  14.628  11.258   4.413 -0.0072  0.1077  0.0894
  788loPI    C312595  14.924  11.283   4.145 -0.0287  0.0343  0.0588
  788loPI   PO412596  14.900  10.894   4.638  0.0576 -0.4616 -0.0521
  788loPI   GL112597  14.904  10.934   5.007 -0.0675  0.1829 -0.2664
  788loPI   GL212598  14.945  11.183   5.106 -0.1771  0.1986  0.2796
  788loPI   C1A12599  15.044  10.791   5.378  0.0160 -0.2861 -0.2170
  788loPI   C2A12600  15.289  10.785   5.768  0.0315 -0.2456 -0.0158
  788loPI   C3A12601  15.502  10.662   6.104 -0.1577 -0.1889 -0.2245
  788loPI   C4A12602  15.445  10.497   6.457  0.1550  0.2100 -0.2873
  788loPI   C5A12603  15.454  10.007   6.627  0.1363 -0.0423  0.1939
  788loPI   C6A12604  15.348   9.747   6.976 -0.2634  0.0654  0.1209
  788loPI   C1B12605  14.750  11.331   5.436  0.1616  0.3586  0.1859
  788loPI   C2B12606  14.525  11.402   5.784  0.0795  0.1419 -0.2015
  788loPI   C3B12607  14.169  11.408   6.147 -0.1936  0.0937  0.1228
  788loPI   C4B12608  14.069  11.491   6.631 -0.3170 -0.0018  0.1510
  789loPI    C112609   7.431   6.466   4.495  0.0277  0.0359  0.1145
  789loPI    C212610   7.604   6.207   4.245 -0.0245 -0.0473  0.1640
  789loPI    C312611   7.647   6.600   4.186 -0.0263 -0.0664  0.0318
  789loPI   PO412612   7.467   6.256   4.758 -0.0691 -0.1354  0.0435
  789loPI   GL112613   7.536   6.268   5.195  0.0334  0.1813 -0.2419
  789loPI   GL212614   7.702   6.009   5.269 -0.1845  0.1633 -0.0173
  789loPI   C1A12615   7.529   6.473   5.541 -0.0064 -0.0205  0.1477
  789loPI   C2A12616   7.765   6.591   5.891  0.0892  0.2085 -0.1324
  789loPI   C3A12617   8.035   6.633   6.383 -0.1762  0.0983  0.1454
  789loPI   C4A12618   8.070   6.593   6.854 -0.2111 -0.1946  0.3168
  789loPI   C5A12619   8.338   6.464   7.178  0.3452  0.0325 -0.0565
  789loPI   C6A12620   8.601   6.523   7.438 -0.1380 -0.1432 -0.0244
  789loPI   C1B12621   7.862   6.113   5.671  0.0325  0.1509  0.1969
  789loPI   C2B12622   7.979   6.070   6.079 -0.0231  0.0744 -0.0544
  789loPI   C3B12623   7.954   6.157   6.508  0.2452 -0.0608  0.4457
  789loPI   C4B12624   7.672   6.364   6.741 -0.0296 -0.0594  0.2349
  790loPI    C112625   7.300   5.370   4.362  0.0896  0.4909 -0.2287
  790loPI    C212626   7.295   5.053   4.117  0.2711  0.2933  0.0169
  790loPI    C312627   7.076   5.377   4.031 -0.0726  0.0269 -0.1367
  790loPI   PO412628   7.156   5.272   4.600 -0.1950 -0.1209 -0.3976
  790loPI   GL112629   7.172   5.289   5.058  0.0945 -0.2214  0.0395
  790loPI   GL212630   7.475   5.196   5.274  0.1245 -0.1804  0.2254
  790loPI   C1A12631   7.094   5.343   5.533  0.0429  0.0073 -0.1220
  790loPI   C2A12632   6.884   5.440   5.960  0.1289 -0.1611  0.0709
  790loPI   C3A12633   6.776   5.628   6.397  0.2655  0.0564  0.1295
  790loPI   C4A12634   6.732   5.920   6.709 -0.1533 -0.2171  0.0402
  790loPI   C5A12635   6.833   5.885   7.052 -0.1563 -0.1627  0.2587
  790loPI   C6A12636   7.072   5.950   7.421 -0.0254 -0.2698  0.0181
  790loPI   C1B12637   7.385   4.936   5.591 -0.1512  0.0415  0.0039
  790loPI   C2B12638   7.299   4.650   5.924  0.1595  0.4268 -0.1822
  790loPI   C3B12639   7.559   4.333   6.251  0.1381 -0.0912 -0.0633
  790loPI   C4B12640   7.706   3.887   6.201  0.2865 -0.0831  0.1015
  791loPI    C112641   2.708  17.711   4.911 -0.1985 -0.1823  0.0173
  791loPI    C212642   2.667  17.314   4.889 -0.0835 -0.2021  0.1451
  791loPI    C312643   2.935  17.500   4.658 -0.2252 -0.1828 -0.0062
  791loPI   PO412644   2.720  17.753   5.151  0.0600 -0.0755 -0.1984
  791loPI   GL112645   2.795  17.649   5.632 -0.0045  0.0729  0.1075
  791loPI   GL212646   2.848  17.307   5.650 -0.3019 -0.0901  0.2685
  791loPI   C1A12647   2.630  17.842   5.993 -0.3180  0.1322 -0.5027
  791loPI   C2A12648   2.736  17.787   6.416  0.0710 -0.1919 -0.1229
  791loPI   C3A12649   2.872  17.573   6.822  0.0614 -0.0984 -0.2029
  791loPI   C4A12650   2.753  17.452   7.232  0.0347 -0.1294 -0.0774
  791loPI   C5A12651   2.613  17.372   7.553 -0.2995 -0.1278  0.0647
  791loPI   C6A12652   2.236  17.525   7.753  0.1551 -0.2281  0.2443
  791loPI   C1B12653   2.847  17.371   6.078 -0.2145 -0.0893  0.0926
  791loPI   C2B12654   2.948  17.203   6.406 -0.0173 -0.1571 -0.1611
  791loPI   C3B12655   2.622  17.086   6.666 -0.0069 -0.1066 -0.3198
  791loPI   C4B12656   2.456  17.003   7.147  0.1816 -0.4926 -0.0994
  792loPI    C112657  15.478   5.637   4.832 -0.1138 -0.2174  0.0499
  792loPI    C212658  15.877   5.603   4.846 -0.0996 -0.0112  0.1884
  792loPI    C312659  15.694   5.672   4.497  0.0202  0.2732  0.1790
  792loPI   PO412660  15.393   5.565   5.135  0.1108 -0.0021 -0.2787
  792loPI   GL112661  15.500   5.832   5.429  0.0891  0.4726 -0.0623
  792loPI   GL212662  15.732   5.881   5.314  0.0601 -0.0268  0.0769
  792loPI   C1A12663  15.286   5.886   5.892 -0.0846 -0.0408 -0.0578
  792loPI   C2A12664  15.216   5.904   6.372  0.2453 -0.0602 -0.0164
  792loPI   C3A12665  14.830   5.791   6.556 -0.0973  0.0843 -0.3097
  792loPI   C4A12666  14.801   5.889   7.042 -0.1438  0.0898  0.0560
  792loPI   C5A12667  15.044   5.808   7.389 -0.0347  0.3501  0.0249
  792loPI   C6A12668  15.144   5.987   7.758 -0.2674  0.1020  0.3114
  792loPI   C1B12669  15.788   6.290   5.500 -0.0232 -0.2947  0.0312
  792loPI   C2B12670  15.824   6.302   5.907 -0.1451 -0.2302 -0.0353
  792loPI   C3B12671  15.838   6.269   6.381  0.0541  0.0816  0.1086
  792loPI   C4B12672  15.869   6.073   6.746  0.0979  0.0998 -0.1188
  793loPI    C112673   3.334   2.563   4.627 -0.0599 -0.1115  0.1595
  793loPI    C212674   3.110   2.886   4.699  0.0292 -0.0270  0.0607
  793loPI    C312675   3.389   2.896   4.413 -0.0475 -0.2292 -0.0226
  793loPI   PO412676   3.398   2.560   4.899  0.2229  0.1882 -0.1296
  793loPI   GL112677   3.446   2.740   5.261  0.0873 -0.1521 -0.1836
  793loPI   GL212678   3.721   2.721   5.248 -0.0329 -0.0065 -0.2076
  793loPI   C1A12679   3.264   2.879   5.703 -0.0220 -0.1212  0.3384
  793loPI   C2A12680   3.084   2.803   6.035 -0.1068 -0.0250 -0.0018
  793loPI   C3A12681   2.844   2.991   6.407  0.1356 -0.2562 -0.1548
  793loPI   C4A12682   2.641   3.276   6.647 -0.1280 -0.0923  0.2008
  793loPI   C5A12683   2.488   3.722   6.415  0.0047  0.0062  0.0734
  793loPI   C6A12684   2.106   3.843   6.277 -0.1575 -0.0089  0.2566
  793loPI   C1B12685   3.806   2.806   5.687 -0.1334  0.3352  0.2180
  793loPI   C2B12686   3.657   2.852   6.077  0.1104  0.0554  0.0253
  793loPI   C3B12687   3.392   2.803   6.409  0.1500 -0.2756 -0.1207
  793loPI   C4B12688   3.291   2.923   6.809  0.0943  0.1979 -0.1166
  794loPI    C112689  15.856   3.787   4.709  0.0847  0.1272  0.0933
  794loPI    C212690  16.136   3.967   4.489 -0.1439  0.2635 -0.0908
  794loPI    C312691  15.819   3.801   4.311 -0.0032 -0.2094  0.0863
  794loPI   PO412692  15.943   4.002   4.926 -0.1971 -0.3445 -0.0040
  794loPI   GL112693  15.756   3.997   5.357  0.0966 -0.1465  0.1071
  794loPI   GL212694  15.559   4.042   5.474  0.1123 -0.1480 -0.1448
  794loPI   C1A12695  16.038   3.801   5.674 -0.0916  0.0699  0.1794
  794loPI   C2A12696  16.150   3.624   6.078 -0.0660 -0.0352 -0.2003
  794loPI   C3A12697  16.175   3.465   6.531 -0.4393 -0.0255 -0.0887
  794loPI   C4A12698  16.247   3.582   7.025 -0.2767 -0.0919 -0.1045
  794loPI   C5A12699  16.488   3.487   7.486  0.0881  0.0902  0.0412
  794loPI   C6A12700  16.688   3.304   7.870  0.2719 -0.0328  0.2767
  794loPI   C1B12701  15.543   3.884   5.923  0.0438  0.0377  0.0700
  794loPI   C2B12702  15.640   3.601   6.268  0.0212  0.1301  0.0544
  794loPI   C3B12703  15.700   3.498   6.706  0.0854 -0.4453  0.3352
  794loPI   C4B12704  15.692   3.776   7.068 -0.0766  0.0759 -0.0819
  795loPI    C112705  15.503  16.187   4.763  0.1298 -0.0980 -0.1122
  795loPI    C212706  15.308  16.466   4.552  0.2878  0.1873  0.1123
  795loPI    C312707  15.679  16.359   4.447  0.0750 -0.2483 -0.2256
  795loPI   PO412708  15.382  16.164   4.955 -0.1363  0.0325 -0.1681
  795loPI   GL112709  15.392  15.964   5.359  0.0362  0.0295  0.1201
  795loPI   GL212710  15.624  16.228   5.449 -0.0684 -0.1492 -0.1982
  795loPI   C1A12711  15.336  15.816   5.841 -0.2494  0.1356 -0.2558
  795loPI   C2A12712  15.510  15.581   6.141  0.1664  0.1329  0.2616
  795loPI   C3A12713  15.611  15.384   6.492 -0.3361  0.2723 -0.1936
  795loPI   C4A12714  15.691  15.144   6.994  0.2884  0.1122  0.0273
  795loPI   C5A12715  15.873  14.894   7.329  0.0433  0.2693  0.4072
  795loPI   C6A12716  15.823  15.084   7.706 -0.1220  0.1347  0.3380
  795loPI   C1B12717  15.722  16.418   5.860 -0.0102  0.1351  0.1485
  795loPI   C2B12718  15.641  16.120   6.193 -0.0838  0.1720 -0.0505
  795loPI   C3B12719  15.675  15.888   6.614 -0.1986  0.1003  0.0817
  795loPI   C4B12720  15.897  15.825   7.019 -0.0563 -0.1273  0.1240
  796loPI    C112721  16.373   3.700   4.844 -0.0143 -0.0950  0.1760
  796loPI    C212722  16.646   3.644   4.556  0.2120  0.0116  0.3659
  796loPI    C312723  16.329   3.401   4.583  0.1313  0.0667 -0.0374
  796loPI   PO412724  16.434   3.797   5.021  0.1594  0.1499  0.0692
  796loPI   GL112725  16.537   3.600   5.340  0.1606  0.0711 -0.2419
  796loPI   GL212726  16.835   3.655   5.406  0.0926  0.1420 -0.0631
  796loPI   C1A12727  16.507   3.674   5.734  0.1171 -0.1026  0.0658
  796loPI   C2A12728  16.694   3.682   6.166 -0.1253  0.0254  0.0252
  796loPI   C3A12729  16.673   3.595   6.650  0.2026 -0.0316  0.1387
  796loPI   C4A12730  16.635   3.324   7.003 -0.2593  0.4385  0.0913
  796loPI   C5A12731  16.485   3.066   7.241  0.0646  0.1805  0.2080
  796loPI   C6A12732  16.495   2.562   7.270 -0.0777 -0.0247  0.1091
  796loPI   C1B12733  17.053   3.599   5.750  0.0615 -0.1989 -0.1718
  796loPI   C2B12734  17.210   3.762   6.126 -0.0997 -0.2086  0.0832
  796loPI   C3B12735  17.100   3.813   6.475  0.1106  0.0770 -0.1536
  796loPI   C4B12736  17.104   3.756   6.847 -0.3433  0.0468  0.3760
  797loPI    C112737   2.927   4.295   4.625 -0.2873  0.1339  0.1072
  797loPI    C212738   2.667   4.037   4.464 -0.1214  0.0341 -0.0033
  797loPI    C312739   2.863   4.296   4.230  0.0083 -0.0092  0.0563
  797loPI   PO412740   2.769   4.372   4.844 -0.1425 -0.0694  0.1428
  797loPI   GL112741   2.811   4.573   5.181  0.1193  0.0666  0.0988
  797loPI   GL212742   2.735   4.893   5.283 -0.0432  0.1343  0.0724
  797loPI   C1A12743   2.786   4.531   5.643 -0.1569 -0.2665  0.0733
  797loPI   C2A12744   2.856   4.524   6.028 -0.0407 -0.1802 -0.0573
  797loPI   C3A12745   3.068   4.708   6.383  0.0133  0.3024  0.0974
  797loPI   C4A12746   3.099   4.859   6.766 -0.0472  0.0652  0.2674
  797loPI   C5A12747   3.154   4.672   7.133 -0.3979  0.0257 -0.2866
  797loPI   C6A12748   3.074   4.245   7.269  0.2030  0.2102  0.1082
  797loPI   C1B12749   2.688   5.037   5.671  0.0022 -0.0211 -0.0131
  797loPI   C2B12750   2.747   5.000   6.146  0.1000 -0.3221 -0.1733
  797loPI   C3B12751   2.848   5.200   6.428  0.1036 -0.0296 -0.0262
  797loPI   C4B12752   2.999   5.450   6.705  0.0985 -0.1209  0.0526
  798loPI    C112753   4.871  19.101   4.739 -0.0110  0.0586  0.1736
  798loPI    C212754   5.201  19.061   4.517 -0.1700  0.1556 -0.0850
  798loPI    C312755   5.218  19.005   4.912  0.1235  0.0129 -0.1152
  798loPI   PO412756   4.778  19.335   4.805  0.0788  0.2621 -0.0859
  798loPI   GL112757   4.661  19.489   5.257  0.1120  0.0487  0.4068
  798loPI   GL212758   4.596  19.810   5.398 -0.1738 -0.3805  0.1605
  798loPI   C1A12759   4.855  19.386   5.735  0.1093 -0.1630 -0.0893
  798loPI   C2A12760   4.863  19.525   6.100 -0.0521  0.1416 -0.0768
  798loPI   C3A12761   5.089  19.568   6.413  0.0787  0.2469  0.2320
  798loPI   C4A12762   5.516  19.410   6.617  0.4174  0.0123 -0.0343
  798loPI   C5A12763   5.632  19.547   7.063  0.1227 -0.2331  0.1403
  798loPI   C6A12764   5.621  19.961   7.229 -0.0810 -0.0970  0.1083
  798loPI   C1B12765   4.453  19.702   5.806 -0.0528 -0.0092 -0.1750
  798loPI   C2B12766   4.355  19.404   6.227  0.0816 -0.1984 -0.0341
  798loPI   C3B12767   4.217  19.106   6.529 -0.3553  0.0841 -0.1238
  798loPI   C4B12768   4.203  18.959   6.907 -0.1959 -0.1627 -0.1043
  799loPI    C112769  15.593  13.192   4.808 -0.1152  0.0420 -0.0090
  799loPI    C212770  15.500  13.004   4.467 -0.2043  0.0294  0.0219
  799loPI    C312771  15.766  13.303   4.464 -0.1570 -0.0128 -0.0479
  799loPI   PO412772  15.343  13.287   4.914 -0.2781  0.0295  0.2355
  799loPI   GL112773  15.440  13.555   5.333  0.1805 -0.1255  0.0716
  799loPI   GL212774  15.581  13.850   5.458  0.0137  0.0724 -0.0855
  799loPI   C1A12775  15.223  13.287   5.693  0.0211  0.3172 -0.0477
  799loPI   C2A12776  15.269  13.154   6.144 -0.1862 -0.1465  0.0582
  799loPI   C3A12777  15.376  13.068   6.586 -0.1219 -0.1604 -0.3622
  799loPI   C4A12778  15.640  13.012   6.998  0.0426  0.1896  0.1697
  799loPI   C5A12779  15.680  13.258   7.399 -0.1281  0.3053 -0.2891
  799loPI   C6A12780  16.003  13.589   7.517  0.4206 -0.0005  0.1517
  799loPI   C1B12781  15.661  13.628   5.810  0.2190 -0.2484 -0.0634
  799loPI   C2B12782  15.802  13.368   6.166  0.0285 -0.1637 -0.1757
  799loPI   C3B12783  15.963  13.319   6.611  0.1695 -0.0740 -0.0138
  799loPI   C4B12784  16.069  13.604   7.011 -0.1720 -0.3573  0.1793
  800loPI    C112785  13.959  10.549   4.558  0.4321  0.0182  0.0198
  800loPI    C212786  13.895  10.196   4.380  0.3062 -0.0947  0.2847
  800loPI    C312787  14.133  10.466   4.207  0.3115 -0.2635  0.0233
  800loPI   PO412788  13.968  10.589   4.784  0.2955  0.1058  0.2310
  800loPI   GL112789  13.912  10.363   5.150  0.3674 -0.4309 -0.1585
  800loPI   GL212790  14.069  10.772   5.238 -0.2569 -0.1008 -0.0920
  800loPI   C1A12791  14.315  10.213   5.250 -0.1083 -0.0101  0.0470
  800loPI   C2A12792  14.572  10.379   5.494 -0.0787  0.1595 -0.0394
  800loPI   C3A12793  14.959  10.378   5.682  0.2021 -0.0744 -0.0476
  800loPI   C4A12794  15.086  10.253   6.131 -0.1227 -0.0063 -0.1313
  800loPI   C5A12795  15.023  10.240   6.621 -0.0950  0.0467 -0.2914
  800loPI   C6A12796  15.086  10.556   6.838  0.3823  0.0784 -0.1329
  800loPI   C1B12797  14.062  10.581   5.629  0.0030 -0.0814 -0.0823
  800loPI   C2B12798  14.163  10.286   5.783  0.0277 -0.0578  0.0748
  800loPI   C3B12799  14.126  10.140   6.170  0.3612  0.1367 -0.2993
  800loPI   C4B12800  14.543  10.080   6.479 -0.0565  0.3186  0.1798
  801loPI    C112801   1.126  18.517   4.934 -0.1083 -0.2312  0.0212
  801loPI    C212802   0.750  18.385   4.895 -0.1335 -0.1638  0.0344
  801loPI    C312803   0.895  18.657   4.640 -0.1183 -0.1334  0.0753
  801loPI   PO412804   1.100  18.660   5.201 -0.1289 -0.1193  0.0672
  801loPI   GL112805   1.078  18.614   5.606  0.0113  0.0277  0.4607
  801loPI   GL212806   1.426  18.476   5.562  0.0443 -0.0547  0.1776
  801loPI   C1A12807   0.703  18.557   5.861  0.0676 -0.0464 -0.1266
  801loPI   C2A12808   0.397  18.418   6.001  0.1666 -0.1153  0.0433
  801loPI   C3A12809   0.129  18.287   6.328 -0.0108  0.0177  0.1892
  801loPI   C4A12810   0.027  18.553   6.661 -0.0875  0.1390 -0.2607
  801loPI   C5A12811   0.124  18.816   6.911 -0.2077  0.0574  0.0103
  801loPI   C6A12812   0.642  18.897   6.965 -0.0144 -0.0354 -0.0181
  801loPI   C1B12813   1.385  18.495   6.015  0.0104 -0.3110 -0.2423
  801loPI   C2B12814   1.073  18.545   6.304  0.0352  0.0136 -0.3072
  801loPI   C3B12815   0.614  18.638   6.481  0.0115  0.1823 -0.0541
  801loPI   C4B12816   0.468  18.426   6.837 -0.0938 -0.1603  0.0560
  802loPI    C112817  11.758  11.280   4.323 -0.0017 -0.2928 -0.1306
  802loPI    C212818  12.085  11.475   4.200 -0.1064  0.0710  0.1477
  802loPI    C312819  11.734  11.535   4.017  0.0230 -0.5278 -0.3314
  802loPI   PO412820  11.692  11.357   4.553  0.0755 -0.0581 -0.1221
  802loPI   GL112821  11.581  11.704   4.976 -0.0213 -0.1327 -0.0505
  802loPI   GL212822  11.897  11.541   4.974  0.1047 -0.1001  0.2702
  802loPI   C1A12823  11.357  11.883   5.348 -0.0075  0.0556 -0.1171
  802loPI   C2A12824  11.401  11.840   5.744 -0.0664 -0.1474  0.0233
  802loPI   C3A12825  11.600  11.908   6.203 -0.3855  0.2454 -0.1210
  802loPI   C4A12826  11.653  11.641   6.537  0.2649  0.1340 -0.1608
  802loPI   C5A12827  11.642  11.188   6.741  0.3857 -0.0885  0.1946
  802loPI   C6A12828  11.780  10.813   6.902  0.0058  0.0470 -0.1955
  802loPI   C1B12829  11.747  11.582   5.422  0.0222 -0.3568  0.1133
  802loPI   C2B12830  11.855  11.663   5.878  0.2232 -0.0117  0.1345
  802loPI   C3B12831  12.063  11.757   6.271  0.1955 -0.2221  0.0505
  802loPI   C4B12832  12.307  11.890   6.603  0.0322  0.1365  0.2659
  803loPI    C112833  13.625   7.675   4.638  0.1464 -0.2349 -0.3652
  803loPI    C212834  13.469   8.041   4.596  0.2156 -0.1339  0.1810
  803loPI    C312835  13.505   7.801   4.278 -0.2961  0.1410 -0.0979
  803loPI   PO412836  13.534   7.545   4.831 -0.3992 -0.1837 -0.0084
  803loPI   GL112837  13.864   7.477   5.124  0.1793 -0.0517 -0.1671
  803loPI   GL212838  14.008   7.647   4.942  0.2510 -0.0836 -0.0945
  803loPI   C1A12839  13.812   7.481   5.577  0.0510 -0.1142 -0.4287
  803loPI   C2A12840  13.797   7.466   6.015 -0.0397  0.2212  0.0753
  803loPI   C3A12841  13.888   7.294   6.340 -0.1026  0.1230  0.0114
  803loPI   C4A12842  13.894   7.288   6.771  0.2266  0.0269  0.2838
  803loPI   C5A12843  14.180   7.433   7.121 -0.0774 -0.0747 -0.1192
  803loPI   C6A12844  14.311   7.240   7.521 -0.2497  0.1628  0.1583
  803loPI   C1B12845  14.140   7.841   5.344 -0.0968  0.1588 -0.0333
  803loPI   C2B12846  14.214   7.788   5.755  0.1634  0.2421  0.0059
  803loPI   C3B12847  14.168   7.696   6.217 -0.1486  0.2290 -0.0018
  803loPI   C4B12848  14.155   7.682   6.662  0.4931  0.0316 -0.1295
  804loPI    C112849   8.091  17.542   4.527  0.0641  0.5210  0.0149
  804loPI    C212850   8.475  17.467   4.447 -0.0548  0.1336 -0.2257
  804loPI    C312851   8.277  17.742   4.235  0.0744  0.3005 -0.1327
  804loPI   PO412852   7.959  17.624   4.769 -0.0840  0.0035  0.1291
  804loPI   GL112853   8.063  17.737   5.154 -0.1126 -0.0920 -0.0721
  804loPI   GL212854   7.970  17.486   5.263 -0.2712 -0.3531  0.0739
  804loPI   C1A12855   8.258  17.878   5.489  0.0333  0.0216  0.1641
  804loPI   C2A12856   8.166  17.818   5.915  0.3792  0.0936  0.0536
  804loPI   C3A12857   8.143  17.749   6.370  0.1691  0.4207 -0.2044
  804loPI   C4A12858   8.043  17.706   6.817 -0.1069  0.2878 -0.1475
  804loPI   C5A12859   7.820  17.563   7.197 -0.2619 -0.0924 -0.2936
  804loPI   C6A12860   7.872  17.207   7.356 -0.3881 -0.1272 -0.1156
  804loPI   C1B12861   7.698  17.683   5.611 -0.0994 -0.2627  0.0912
  804loPI   C2B12862   7.459  17.619   5.926  0.0895 -0.3017 -0.0859
  804loPI   C3B12863   7.671  17.730   6.286 -0.0288  0.3082 -0.1828
  804loPI   C4B12864   7.550  17.663   6.739 -0.1126  0.1823 -0.1733
  805loPI    C112865   1.830   9.000   3.838 -0.0698 -0.1732  0.1879
  805loPI    C212866   1.780   8.694   3.585 -0.1297  0.0454 -0.0694
  805loPI    C312867   1.538   9.011   3.565  0.1710  0.2804 -0.0623
  805loPI   PO412868   1.819   8.877   4.065 -0.2407 -0.1870 -0.2048
  805loPI   GL112869   1.912   8.831   4.420 -0.1908 -0.2399 -0.0413
  805loPI   GL212870   1.594   9.013   4.525  0.2558 -0.1055 -0.0620
  805loPI   C1A12871   1.789   8.735   4.863 -0.0521  0.0814  0.0283
  805loPI   C2A12872   1.890   8.695   5.305 -0.1869 -0.0780 -0.1447
  805loPI   C3A12873   1.879   8.649   5.725 -0.1327 -0.1741  0.1196
  805loPI   C4A12874   1.853   8.606   6.186  0.1924  0.1962 -0.1777
  805loPI   C5A12875   1.745   8.853   6.392 -0.1062  0.1599  0.0934
  805loPI   C6A12876   1.652   9.233   6.527 -0.1184 -0.0134 -0.0063
  805loPI   C1B12877   1.479   9.175   5.060 -0.0872 -0.0392 -0.1037
  805loPI   C2B12878   1.277   9.261   5.465  0.1212  0.0127  0.0782
  805loPI   C3B12879   1.224   9.264   5.892 -0.3850  0.3598  0.1032
  805loPI   C4B12880   1.141   9.225   6.327 -0.1806  0.0045 -0.1459
  806loPI    C112881  11.661  18.629   4.751  0.5043  0.3169  0.1145
  806loPI    C212882  11.540  18.586   4.372 -0.2202 -0.0945  0.3718
  806loPI    C312883  11.830  18.352   4.517 -0.0052  0.0007  0.1058
  806loPI   PO412884  11.527  18.622   4.972 -0.2298 -0.2432 -0.2405
  806loPI   GL112885  11.517  18.790   5.430 -0.1559 -0.0093 -0.0030
  806loPI   GL212886  11.487  18.554   5.800 -0.0452 -0.1027  0.0539
  806loPI   C1A12887  11.771  19.154   5.718  0.1445 -0.1643 -0.1738
  806loPI   C2A12888  11.817  19.366   6.150 -0.3979 -0.1442  0.0354
  806loPI   C3A12889  11.727  19.485   6.546  0.1032  0.0309 -0.0708
  806loPI   C4A12890  11.816  19.527   6.991  0.0275 -0.3778 -0.1939
  806loPI   C5A12891  12.081  19.399   7.276 -0.0030 -0.0278  0.2680
  806loPI   C6A12892  12.385  19.145   7.312 -0.1088 -0.1217 -0.1799
  806loPI   C1B12893  11.446  18.821   6.147  0.1702 -0.0416 -0.1023
  806loPI   C2B12894  11.812  18.935   6.386  0.1797 -0.5022 -0.2028
  806loPI   C3B12895  12.147  18.786   6.513 -0.1803 -0.0237  0.2256
  806loPI   C4B12896  12.475  18.686   6.369 -0.1022  0.0719 -0.1186
  807loPI    C112897  17.106  11.406   4.341 -0.3753 -0.0941  0.0411
  807loPI    C212898  17.105  11.259   3.969 -0.0642 -0.0344  0.0139
  807loPI    C312899  17.132  11.653   4.027 -0.1346 -0.0419  0.1004
  807loPI   PO412900  16.917  11.246   4.472 -0.0683 -0.0646 -0.0949
  807loPI   GL112901  16.871  11.170   4.838 -0.0403  0.4086 -0.2576
  807loPI   GL212902  16.576  11.280   5.005  0.1382  0.2813  0.1088
  807loPI   C1A12903  16.938  10.952   5.213 -0.2199  0.0088 -0.2274
  807loPI   C2A12904  16.712  11.005   5.561 -0.2685 -0.1721 -0.0714
  807loPI   C3A12905  16.652  11.034   5.992 -0.3425  0.0573  0.2871
  807loPI   C4A12906  16.374  11.242   6.396 -0.1702 -0.0908 -0.1589
  807loPI   C5A12907  16.299  11.284   6.821 -0.2675 -0.0498 -0.0180
  807loPI   C6A12908  16.260  11.036   7.206 -0.1332  0.1405  0.1347
  807loPI   C1B12909  16.354  11.417   5.399  0.1999 -0.0607  0.0921
  807loPI   C2B12910  16.233  11.323   5.856  0.0700  0.0569  0.0102
  807loPI   C3B12911  15.972  11.061   6.063 -0.0047 -0.1299 -0.2564
  807loPI   C4B12912  15.922  10.789   6.414  0.3535  0.0669 -0.1895
  808loPI    C112913   0.551  13.102   4.093 -0.0307 -0.2431 -0.1748
  808loPI    C212914   0.818  13.390   4.171 -0.2972 -0.0748  0.1462
  808loPI    C312915   0.937  13.045   4.006  0.0349  0.1932 -0.1932
  808loPI   PO412916   0.352  13.032   4.338 -0.0016 -0.1153  0.0901
  808loPI   GL112917   0.335  13.028   4.776  0.1490  0.1038 -0.0257
  808loPI   GL212918  -0.063  12.969   4.847 -0.4462  0.4611  0.0775
  808loPI   C1A12919   0.406  13.023   5.142 -0.0350 -0.1299 -0.2931
  808loPI   C2A12920   0.764  13.192   5.234  0.1637 -0.1249  0.3696
  808loPI   C3A12921   0.966  13.295   5.652 -0.2148  0.2137 -0.1602
  808loPI   C4A12922   1.019  12.906   5.845  0.1082  0.0389 -0.2347
  808loPI   C5A12923   1.045  12.495   6.054 -0.2591  0.0197  0.1465
  808loPI   C6A12924   1.023  12.009   6.022 -0.1917 -0.2853  0.0602
  808loPI   C1B12925  -0.026  13.143   5.242  0.1782  0.0593 -0.1026
  808loPI   C2B12926   0.089  13.032   5.672 -0.0266 -0.1176 -0.1003
  808loPI   C3B12927   0.055  12.915   6.132 -0.1560  0.0278  0.0143
  808loPI   C4B12928  -0.166  12.563   6.377 -0.0018 -0.1041 -0.0149
  809loPI    C112929   7.159  10.032   4.467 -0.1799 -0.1236  0.1051
  809loPI    C212930   7.101  10.245   4.134  0.2646 -0.1123  0.0279
  809loPI    C312931   7.153   9.849   4.111  0.1565 -0.1312  0.0999
  809loPI   PO412932   7.182  10.320   4.688 -0.2135  0.0354  0.1432
  809loPI   GL112933   7.350  10.347   5.103 -0.1648  0.1956  0.0797
  809loPI   GL212934   7.617  10.538   5.203 -0.2349 -0.1787  0.2020
  809loPI   C1A12935   7.746  10.074   5.148 -0.2240 -0.0703  0.0646
  809loPI   C2A12936   7.705   9.627   5.347  0.0274 -0.1027  0.0945
  809loPI   C3A12937   7.629   9.409   5.829 -0.0990  0.0875  0.1086
  809loPI   C4A12938   7.700   9.424   6.292  0.0724  0.1007  0.2493
  809loPI   C5A12939   7.714   9.377   6.685  0.2975 -0.3133 -0.0638
  809loPI   C6A12940   7.815   9.640   7.091  0.0069  0.1628 -0.0362
  809loPI   C1B12941   7.586  10.316   5.634  0.0034  0.0283 -0.0767
  809loPI   C2B12942   7.473  10.268   6.040 -0.0298 -0.1645 -0.1688
  809loPI   C3B12943   7.525  10.257   6.380 -0.2615  0.3972  0.3497
  809loPI   C4B12944   7.610   9.977   6.788  0.0435  0.1791 -0.1879
  810loPI    C112945  10.930   0.766   4.686 -0.0596 -0.1185 -0.2453
  810loPI    C212946  10.752   1.082   4.517 -0.0580  0.1027  0.1532
  810loPI    C312947  11.095   0.942   4.368 -0.0096  0.3486  0.0291
  810loPI   PO412948  10.890   0.763   4.889 -0.4312  0.3965 -0.0386
  810loPI   GL112949  10.880   0.611   5.243 -0.3119  0.1303 -0.1374
  810loPI   GL212950  10.814   0.340   5.293 -0.2604  0.1991  0.0525
  810loPI   C1A12951  11.237   0.840   5.487 -0.3566  0.2655 -0.2343
  810loPI   C2A12952  11.173   0.997   5.917  0.1596 -0.0446  0.0162
  810loPI   C3A12953  11.290   0.927   6.342 -0.1329  0.0676 -0.2208
  810loPI   C4A12954  11.493   0.998   6.792  0.0671 -0.0125 -0.0182
  810loPI   C5A12955  11.405   0.911   7.194 -0.1460  0.0683 -0.1384
  810loPI   C6A12956  11.455   0.701   7.578 -0.2909 -0.2298 -0.0283
  810loPI   C1B12957  11.010   0.234   5.712 -0.3350 -0.2527 -0.0435
  810loPI   C2B12958  10.847   0.065   6.105 -0.0086 -0.0760  0.0745
  810loPI   C3B12959  10.772  -0.120   6.423  0.1776 -0.1998 -0.0833
  810loPI   C4B12960  10.527  -0.197   6.777  0.1980  0.0134  0.0686
  811loPI    C112961  12.080   5.825   5.060 -0.1527 -0.1237  0.0571
  811loPI    C212962  12.381   5.693   4.832  0.0233  0.0681  0.1747
  811loPI    C312963  12.034   5.801   4.663  0.0741 -0.0043  0.0220
  811loPI   PO412964  12.178   5.992   5.308  0.2960 -0.0253 -0.0570
  811loPI   GL112965  11.925   6.148   5.659  0.2050  0.2161  0.1255
  811loPI   GL212966  11.742   6.346   5.651 -0.2608  0.1573 -0.1276
  811loPI   C1A12967  12.096   6.230   6.116 -0.0950 -0.0080 -0.0588
  811loPI   C2A12968  12.426   6.182   6.523  0.0687 -0.0383 -0.2114
  811loPI   C3A12969  12.532   6.061   6.999  0.1435  0.2621  0.2443
  811loPI   C4A12970  12.707   6.063   7.405 -0.3235  0.1358  0.0868
  811loPI   C5A12971  12.751   5.705   7.872  0.1139 -0.0873 -0.0810
  811loPI   C6A12972  13.049   5.450   7.967  0.1196 -0.1157  0.0275
  811loPI   C1B12973  11.650   6.514   6.137  0.1734 -0.1185  0.1610
  811loPI   C2B12974  11.424   6.705   6.438  0.1978  0.0899 -0.1297
  811loPI   C3B12975  11.207   6.814   6.710  0.3216  0.1590  0.3901
  811loPI   C4B12976  11.244   6.801   7.126 -0.1435  0.2440  0.0143
  812loPI    C112977   7.896  13.914   4.086  0.3551 -0.3271  0.1139
  812loPI    C212978   7.699  13.769   3.769  0.0898  0.0599  0.0944
  812loPI    C312979   8.088  13.689   3.817  0.0164 -0.4201 -0.0567
  812loPI   PO412980   7.732  13.905   4.282  0.0395  0.0138 -0.0464
  812loPI   GL112981   7.571  14.197   4.604  0.2127 -0.0531 -0.1673
  812loPI   GL212982   7.847  14.456   4.777  0.1165 -0.4413 -0.0288
  812loPI   C1A12983   7.541  14.009   5.044  0.0301  0.0029  0.0605
  812loPI   C2A12984   7.550  13.835   5.479  0.0563 -0.1618 -0.0339
  812loPI   C3A12985   7.437  14.026   5.801  0.2752  0.1727 -0.0811
  812loPI   C4A12986   7.412  14.292   6.111 -0.1854 -0.1103  0.2177
  812loPI   C5A12987   7.672  14.659   6.384  0.1345 -0.0148  0.2175
  812loPI   C6A12988   8.040  14.763   6.615  0.0608  0.0663 -0.3079
  812loPI   C1B12989   7.716  14.481   5.177  0.3364  0.1590  0.1989
  812loPI   C2B12990   7.821  14.263   5.564 -0.0888  0.0743  0.3023
  812loPI   C3B12991   7.926  14.165   5.950 -0.0340 -0.1868  0.1643
  812loPI   C4B12992   8.231  14.050   6.181  0.2720  0.2250 -0.2097
  813loPI    C112993  13.059  14.134   4.887 -0.0204 -0.0640 -0.2306
  813loPI    C212994  12.934  14.439   4.660  0.0621  0.0803 -0.0844
  813loPI    C312995  12.832  14.422   5.046  0.0796 -0.0644 -0.0855
  813loPI   PO412996  13.309  14.101   4.888  0.0916  0.1188  0.2167
  813loPI   GL112997  13.542  13.921   5.194  0.0942 -0.1301 -0.1685
  813loPI   GL212998  13.689  14.097   5.330 -0.0867  0.0510 -0.2487
  813loPI   C1A12999  13.833  13.704   5.623  0.1103 -0.0377  0.2173
  813loPI   C2A13000  13.830  13.949   6.047 -0.2046 -0.0595 -0.0012
  813loPI   C3A13001  13.821  14.029   6.514  0.0154 -0.2864 -0.2702
  813loPI   C4A13002  14.220  13.994   6.577 -0.2477 -0.0138 -0.3068
  813loPI   C5A13003  14.522  14.111   6.869  0.0606 -0.1365  0.1355
  813loPI   C6A13004  14.709  13.978   7.325  0.1078 -0.0052  0.0864
  813loPI   C1B13005  13.513  14.055   5.727  0.1551 -0.2980 -0.1004
  813loPI   C2B13006  13.370  14.139   6.301 -0.0040  0.4162  0.3717
  813loPI   C3B13007  13.153  13.898   6.635  0.0315  0.1362  0.0975
  813loPI   C4B13008  13.079  13.760   6.995  0.0607 -0.1294  0.1107
  814loPI    C113009   0.859   6.012   4.412 -0.0083 -0.0979 -0.2642
  814loPI    C213010   0.517   5.866   4.559  0.0522 -0.2110 -0.2347
  814loPI    C313011   0.609   5.811   4.173 -0.1324  0.1339 -0.3316
  814loPI   PO413012   0.991   5.946   4.592  0.0507  0.3045 -0.0407
  814loPI   GL113013   1.030   5.694   4.985  0.2759 -0.0928 -0.0251
  814loPI   GL213014   1.093   5.391   4.931  0.0276 -0.3487 -0.2366
  814loPI   C1A13015   1.078   5.892   5.394  0.3703 -0.2182 -0.1293
  814loPI   C2A13016   1.041   6.118   5.827  0.2746 -0.4152  0.1548
  814loPI   C3A13017   1.058   6.109   6.224 -0.1984 -0.1040 -0.0539
  814loPI   C4A13018   1.083   6.066   6.718 -0.1333  0.1178 -0.1015
  814loPI   C5A13019   0.935   5.829   7.145  0.1144 -0.0054  0.2210
  814loPI   C6A13020   0.644   5.492   7.327  0.1045 -0.0974  0.1777
  814loPI   C1B13021   1.294   5.439   5.369 -0.0037  0.1649 -0.2857
  814loPI   C2B13022   1.214   5.533   5.799  0.2212  0.0421 -0.2343
  814loPI   C3B13023   1.199   5.572   6.212 -0.2238  0.0105  0.1584
  814loPI   C4B13024   1.102   5.593   6.672  0.0902 -0.2303 -0.0131
  815loPI    C113025  12.297   8.852   5.026  0.1741 -0.1966 -0.0018
  815loPI    C213026  11.914   8.901   4.920  0.1881 -0.0361  0.0203
  815loPI    C313027  12.203   8.937   4.646  0.2321  0.4805  0.1233
  815loPI   PO413028  12.320   8.980   5.255 -0.1477 -0.0513 -0.2097
  815loPI   GL113029  12.431   9.001   5.689 -0.0533 -0.1793 -0.1322
  815loPI   GL213030  12.277   8.751   5.679 -0.6175 -0.0706 -0.2576
  815loPI   C1A13031  12.775   8.948   5.779 -0.2933  0.1477  0.1047
  815loPI   C2A13032  13.178   8.551   5.853 -0.0715  0.0386  0.2519
  815loPI   C3A13033  13.456   8.451   6.125  0.3981 -0.1059 -0.0583
  815loPI   C4A13034  13.633   8.324   6.525  0.0157 -0.2082 -0.0662
  815loPI   C5A13035  13.672   8.126   6.837  0.1177 -0.1850  0.2375
  815loPI   C6A13036  13.509   8.064   7.174 -0.0762 -0.3478 -0.0440
  815loPI   C1B13037  11.879   8.567   5.796 -0.0457  0.1238  0.0872
  815loPI   C2B13038  11.635   8.817   6.187  0.1294 -0.1857  0.0399
  815loPI   C3B13039  11.637   9.010   6.502 -0.1093  0.1893  0.0824
  815loPI   C4B13040  11.470   9.120   6.880 -0.4958 -0.1908 -0.1670
  816loPI    C113041  17.608  16.063   4.612  0.0502  0.0827 -0.0539
  816loPI    C213042  17.347  15.787   4.485  0.1746 -0.0497 -0.0251
  816loPI    C313043  17.365  16.144   4.305 -0.0878 -0.0063  0.0308
  816loPI   PO413044  17.726  16.211   4.930 -0.0541  0.0388  0.1034
  816loPI   GL113045  17.822  16.139   5.294  0.1547  0.1233  0.0133
  816loPI   GL213046  18.171  16.062   5.448 -0.0590  0.2952 -0.2092
  816loPI   C1A13047  17.721  16.382   5.575 -0.1916  0.1482 -0.1680
  816loPI   C2A13048  17.627  16.597   5.993  0.0858 -0.0206 -0.1599
  816loPI   C3A13049  17.358  16.602   6.304 -0.1427 -0.0259 -0.1082
  816loPI   C4A13050  17.269  16.342   6.689 -0.0589 -0.3717 -0.2166
  816loPI   C5A13051  17.160  15.968   6.892 -0.1343  0.1399  0.2248
  816loPI   C6A13052  16.885  15.664   7.047 -0.0219  0.0680  0.1264
  816loPI   C1B13053  18.372  15.718   5.736  0.3542  0.0333  0.3107
  816loPI   C2B13054  18.597  15.597   6.116 -0.2847 -0.1197  0.0191
  816loPI   C3B13055  18.794  15.560   6.465 -0.1194 -0.1128 -0.0438
  816loPI   C4B13056  18.671  15.643   6.860 -0.0247  0.0511  0.0342
  817loPI    C113057  14.046  17.882   4.861 -0.0515  0.1333 -0.1822
  817loPI    C213058  14.321  18.172   4.840 -0.0214  0.1381  0.1989
  817loPI    C313059  14.236  17.952   4.517  0.2830  0.2703  0.0253
  817loPI   PO413060  13.878  18.030   5.087 -0.0736  0.0052 -0.0462
  817loPI   GL113061  13.948  18.351   5.450  0.0091  0.0835  0.0046
  817loPI   GL213062  13.632  18.321   5.428  0.3144 -0.3539  0.0119
  817loPI   C1A13063  14.192  18.094   5.925 -0.1184  0.2540  0.0415
  817loPI   C2A13064  14.247  18.012   6.326  0.1773 -0.0864 -0.3344
  817loPI   C3A13065  14.581  17.856   6.588  0.2007 -0.1503 -0.2091
  817loPI   C4A13066  14.713  17.724   7.052  0.2155  0.0780  0.1753
  817loPI   C5A13067  14.617  17.485   7.492  0.3497  0.2594  0.1779
  817loPI   C6A13068  14.831  17.069   7.532  0.3403  0.2086  0.1109
  817loPI   C1B13069  13.696  17.980   5.747  0.0374  0.0481  0.0451
  817loPI   C2B13070  13.702  17.866   6.170 -0.2110 -0.0760 -0.1599
  817loPI   C3B13071  13.823  18.034   6.587  0.5472 -0.0602  0.0520
  817loPI   C4B13072  13.784  18.122   7.002 -0.0168  0.2193 -0.2128
  818loPI    C113073  15.107   6.344   4.500 -0.1447 -0.1788  0.1410
  818loPI    C213074  15.445   6.131   4.507 -0.0294 -0.0008  0.0723
  818loPI    C313075  15.279   6.231   4.157  0.0456  0.2221  0.0993
  818loPI   PO413076  15.009   6.309   4.696  0.4781 -0.1354  0.0519
  818loPI   GL113077  15.002   6.499   5.123  0.2575 -0.0723  0.1319
  818loPI   GL213078  15.181   6.405   5.336  0.1116  0.0724  0.1671
  818loPI   C1A13079  14.783   6.528   5.522  0.1695 -0.3904 -0.0580
  818loPI   C2A13080  14.930   6.559   5.910 -0.3480  0.0686 -0.1457
  818loPI   C3A13081  14.885   6.464   6.292 -0.0265  0.1420  0.2254
  818loPI   C4A13082  14.781   6.352   6.674 -0.1263  0.0964 -0.0217
  818loPI   C5A13083  14.795   6.708   7.092 -0.2418 -0.0937  0.1666
  818loPI   C6A13084  14.691   6.926   7.560 -0.0393 -0.0729 -0.0522
  818loPI   C1B13085  15.308   6.362   5.666 -0.1287  0.1504 -0.1543
  818loPI   C2B13086  15.394   6.316   6.142 -0.1033  0.1307  0.1382
  818loPI   C3B13087  15.388   6.314   6.588  0.0820 -0.0730  0.1036
  818loPI   C4B13088  15.206   6.311   7.045 -0.0171  0.1019  0.1285
  819loPI    C113089   0.321  18.154   5.028 -0.2893 -0.4458  0.0609
  819loPI    C213090   0.555  17.964   4.764 -0.1004 -0.0217 -0.0871
  819loPI    C313091   0.624  17.927   5.157  0.0303 -0.1330 -0.1200
  819loPI   PO413092   0.099  18.089   5.051  0.1677 -0.1321 -0.1442
  819loPI   GL113093   0.177  17.889   5.436 -0.0099  0.1497  0.1033
  819loPI   GL213094   0.434  18.104   5.542  0.1257 -0.3109 -0.2442
  819loPI   C1A13095   0.232  17.520   5.821  0.0986  0.0859  0.3030
  819loPI   C2A13096   0.528  17.552   6.207 -0.2624  0.2046  0.0529
  819loPI   C3A13097   0.790  17.525   6.608  0.1339  0.0750 -0.1071
  819loPI   C4A13098   1.013  17.645   7.056 -0.2822  0.1407  0.0415
  819loPI   C5A13099   1.023  17.842   7.385 -0.2037  0.1559 -0.2036
  819loPI   C6A13100   1.199  18.291   7.553 -0.0761  0.0177 -0.0248
  819loPI   C1B13101   0.666  17.762   5.593  0.3827 -0.2425 -0.2175
  819loPI   C2B13102   0.793  17.387   5.837  0.1887 -0.2475 -0.0735
  819loPI   C3B13103   0.524  17.054   6.028 -0.1616  0.0802 -0.1457
  819loPI   C4B13104   0.328  17.097   6.408 -0.0138  0.1855 -0.0585
  820loPI    C113105   7.761   5.771   4.382  0.0643  0.3594  0.0563
  820loPI    C213106   8.147   5.875   4.396  0.2190 -0.1615 -0.1174
  820loPI    C313107   7.977   5.784   4.046 -0.0282 -0.0656 -0.0247
  820loPI   PO413108   7.760   5.575   4.537  0.0385 -0.2360  0.1783
  820loPI   GL113109   7.505   5.632   4.958 -0.1264  0.1083  0.0055
  820loPI   GL213110   7.783   5.549   5.051 -0.1199  0.3083  0.0182
  820loPI   C1A13111   7.325   5.731   5.330  0.1988  0.0537  0.1383
  820loPI   C2A13112   7.419   5.932   5.700  0.1137 -0.0350 -0.1237
  820loPI   C3A13113   7.514   6.163   6.090  0.0818 -0.0141  0.0496
  820loPI   C4A13114   7.438   6.490   6.344 -0.1938 -0.1966  0.0172
  820loPI   C5A13115   7.105   6.681   6.670 -0.2754  0.3658 -0.1529
  820loPI   C6A13116   6.966   6.945   6.987 -0.2124  0.2081 -0.0444
  820loPI   C1B13117   7.756   5.613   5.560  0.0787  0.0816 -0.0704
  820loPI   C2B13118   7.454   5.430   5.843 -0.0550 -0.0802 -0.0728
  820loPI   C3B13119   7.270   5.190   6.224 -0.0990  0.3942  0.1748
  820loPI   C4B13120   6.997   5.117   6.504  0.2361 -0.2712  0.0471
  821loPI    C113121  10.471   3.795   4.758 -0.1481 -0.0460 -0.0600
  821loPI    C213122  10.627   3.692   4.405 -0.1131 -0.1715 -0.0083
  821loPI    C313123  10.530   3.409   4.671  0.0089 -0.0700  0.1455
  821loPI   PO413124  10.555   4.040   4.943 -0.1869  0.1219  0.1403
  821loPI   GL113125  10.541   4.050   5.423  0.1860 -0.2946  0.5927
  821loPI   GL213126  10.786   4.262   5.428 -0.7823  0.2322  0.0780
  821loPI   C1A13127  10.522   3.732   5.808  0.0895  0.1276  0.3580
  821loPI   C2A13128  10.353   3.449   5.998  0.1333 -0.0308 -0.2737
  821loPI   C3A13129  10.432   3.193   6.441 -0.1124 -0.0384  0.0065
  821loPI   C4A13130  10.631   3.104   6.830  0.1935 -0.1460 -0.1072
  821loPI   C5A13131  10.753   3.121   7.338 -0.0688  0.3760  0.3939
  821loPI   C6A13132  10.819   3.244   7.738  0.4137  0.1983  0.2134
  821loPI   C1B13133  10.585   4.280   5.881 -0.0202 -0.0511 -0.0697
  821loPI   C2B13134  10.561   4.225   6.331  0.0705  0.0747  0.2268
  821loPI   C3B13135  10.594   4.201   6.726  0.0875  0.4937 -0.0231
  821loPI   C4B13136  10.666   4.449   7.119 -0.1829 -0.1959  0.2554
  822loPI    C113137   1.909  14.151   4.334  0.3380  0.0688  0.1970
  822loPI    C213138   1.984  13.919   4.017 -0.3785  0.0291  0.0379
  822loPI    C313139   1.923  14.311   3.967 -0.2429  0.0669  0.1634
  822loPI   PO413140   1.782  14.039   4.492 -0.2086  0.0299 -0.0189
  822loPI   GL113141   1.892  13.992   4.950  0.3616  0.3000  0.1020
  822loPI   GL213142   1.985  13.796   5.086  0.1984 -0.0466 -0.1329
  822loPI   C1A13143   2.126  14.326   5.185  0.1412  0.2336 -0.3503
  822loPI   C2A13144   2.072  14.449   5.664  0.0263 -0.0798  0.0819
  822loPI   C3A13145   2.370  14.384   5.974  0.1396 -0.1923 -0.2346
  822loPI   C4A13146   2.602  14.369   6.287  0.2171 -0.1991 -0.1376
  822loPI   C5A13147   2.915  14.625   6.362 -0.2003  0.1957 -0.0689
  822loPI   C6A13148   2.904  14.778   6.747 -0.1012 -0.4204  0.3410
  822loPI   C1B13149   1.889  14.024   5.492  0.0412 -0.0442 -0.1534
  822loPI   C2B13150   1.828  14.024   6.009  0.1662 -0.1135 -0.0034
  822loPI   C3B13151   2.145  14.106   6.303 -0.2222 -0.0052 -0.1546
  822loPI   C4B13152   2.331  14.026   6.691  0.0519  0.3115  0.1924
  823loPI    C113153  12.398  14.412   4.421 -0.1211  0.0287  0.0099
  823loPI    C213154  12.653  14.687   4.284 -0.0531 -0.0602 -0.0434
  823loPI    C313155  12.744  14.299   4.255  0.0191 -0.0784  0.3642
  823loPI   PO413156  12.418  14.439   4.689 -0.1753  0.2242  0.0134
  823loPI   GL113157  12.348  14.220   5.030  0.0062  0.0836 -0.1800
  823loPI   GL213158  12.207  14.035   5.231  0.2106  0.1841  0.1762
  823loPI   C1A13159  12.586  14.249   5.530  0.0045  0.2074  0.0752
  823loPI   C2A13160  12.419  14.155   6.010  0.2959  0.1782  0.1181
  823loPI   C3A13161  12.669  14.015   6.351  0.0758  0.0781 -0.0217
  823loPI   C4A13162  12.623  13.890   6.779 -0.2281  0.2940 -0.0698
  823loPI   C5A13163  12.500  13.622   7.214 -0.3259 -0.3031  0.1965
  823loPI   C6A13164  12.214  13.583   7.512 -0.0595  0.0816 -0.0542
  823loPI   C1B13165  12.122  14.045   5.572 -0.3492  0.0867 -0.0631
  823loPI   C2B13166  11.975  13.850   5.963 -0.1514  0.0260 -0.0673
  823loPI   C3B13167  11.865  13.639   6.304  0.0224 -0.1698 -0.1358
  823loPI   C4B13168  11.941  13.286   6.596  0.3156 -0.3110 -0.0004
  824loPI    C113169   5.953  10.880   4.450  0.1724  0.0700  0.0807
  824loPI    C213170   5.919  11.269   4.363 -0.0026  0.0145 -0.1073
  824loPI    C313171   5.688  11.001   4.177  0.1902 -0.1914 -0.0559
  824loPI   PO413172   5.887  10.891   4.737 -0.1959 -0.1306  0.2470
  824loPI   GL113173   5.788  10.601   5.051  0.1118 -0.0437  0.0570
  824loPI   GL213174   5.613  10.402   5.004  0.3144 -0.3734 -0.2940
  824loPI   C1A13175   6.025  10.685   5.326  0.0977  0.0480 -0.0774
  824loPI   C2A13176   6.181  10.658   5.819 -0.2087  0.4152  0.3194
  824loPI   C3A13177   6.382  10.827   6.166 -0.1600 -0.1427 -0.1117
  824loPI   C4A13178   6.667  10.964   6.441 -0.0106  0.0906 -0.1848
  824loPI   C5A13179   6.926  11.163   6.737  0.0659 -0.0711 -0.4808
  824loPI   C6A13180   7.064  10.896   7.025 -0.0795  0.2615  0.1743
  824loPI   C1B13181   5.518  10.433   5.381 -0.0869  0.0963 -0.0370
  824loPI   C2B13182   5.684  10.443   5.848  0.0347 -0.0593  0.2322
  824loPI   C3B13183   6.002  10.432   6.250  0.1394  0.2874 -0.2026
  824loPI   C4B13184   6.083  10.289   6.732  0.1984  0.0434  0.2938
  825loPI    C113185   7.306  18.590   4.913  0.0938  0.2032 -0.0972
  825loPI    C213186   7.486  18.678   4.567  0.2172  0.0414 -0.0755
  825loPI    C313187   7.478  18.300   4.698  0.0862  0.0870  0.0514
  825loPI   PO413188   7.401  18.675   5.177 -0.0475  0.1873 -0.1858
  825loPI   GL113189   7.462  18.899   5.573  0.0249  0.4525  0.0315
  825loPI   GL213190   7.265  18.619   5.673 -0.3162 -0.2200 -0.1911
  825loPI   C1A13191   7.528  19.022   5.993 -0.0890 -0.1346 -0.2542
  825loPI   C2A13192   7.578  18.957   6.481  0.1709  0.1779 -0.1250
  825loPI   C3A13193   7.783  19.025   6.830 -0.1156 -0.1850  0.3841
  825loPI   C4A13194   7.842  19.122   7.247  0.0959 -0.1761  0.0801
  825loPI   C5A13195   8.118  19.379   7.504 -0.3074  0.1032  0.0213
  825loPI   C6A13196   8.477  19.492   7.408  0.1570  0.1336  0.1482
  825loPI   C1B13197   7.333  18.564   6.139 -0.3095  0.1596 -0.1832
  825loPI   C2B13198   7.326  18.472   6.619 -0.1195  0.0459 -0.0892
  825loPI   C3B13199   7.542  18.615   6.928  0.0178 -0.2493  0.1382
  825loPI   C4B13200   7.702  18.356   7.311 -0.0308  0.0239  0.1782
  826loPI    C113201   6.062   4.079   4.635  0.0213 -0.0104  0.0541
  826loPI    C213202   6.341   4.225   4.388 -0.0430  0.1025  0.0481
  826loPI    C313203   6.017   4.443   4.477 -0.2817 -0.1476 -0.1871
  826loPI   PO413204   6.190   3.950   4.860 -0.0762 -0.4151  0.1512
  826loPI   GL113205   6.160   4.110   5.288 -0.0257 -0.2067  0.1781
  826loPI   GL213206   6.003   3.929   5.429 -0.0798 -0.0242 -0.0527
  826loPI   C1A13207   6.083   4.409   5.646 -0.0284 -0.1334 -0.0969
  826loPI   C2A13208   6.031   4.266   6.108  0.0674 -0.0497  0.3039
  826loPI   C3A13209   5.998   4.356   6.559 -0.2981  0.1389  0.3587
  826loPI   C4A13210   6.077   4.518   6.970  0.4455  0.1188 -0.1517
  826loPI   C5A13211   6.092   4.942   7.257 -0.2399  0.3051 -0.1667
  826loPI   C6A13212   5.974   5.363   7.304 -0.3648  0.0535  0.1208
  826loPI   C1B13213   6.004   3.635   5.842  0.1332 -0.0856 -0.0280
  826loPI   C2B13214   6.200   3.672   6.267 -0.0882 -0.4904  0.0459
  826loPI   C3B13215   6.121   3.827   6.686 -0.4270  0.4102 -0.0692
  826loPI   C4B13216   5.825   4.041   6.886 -0.2188 -0.2406 -0.1102
  827loPI    C113217  16.951  16.148   4.557 -0.0622 -0.1298 -0.0497
  827loPI    C213218  16.824  15.911   4.853 -0.0147 -0.0098  0.0681
  827loPI    C313219  16.595  15.967   4.530 -0.1793  0.0577  0.1949
  827loPI   PO413220  17.068  16.270   4.696 -0.1600 -0.2360  0.0627
  827loPI   GL113221  17.276  16.171   5.117 -0.0216  0.2347  0.1031
  827loPI   GL213222  17.295  15.912   5.165  0.2950  0.1024 -0.3018
  827loPI   C1A13223  17.196  16.299   5.520 -0.2010 -0.0277  0.1391
  827loPI   C2A13224  17.347  16.186   5.907  0.0877  0.2918 -0.0498
  827loPI   C3A13225  17.272  15.904   6.289  0.0461  0.2591 -0.1607
  827loPI   C4A13226  17.297  15.591   6.587  0.2303 -0.4852 -0.1991
  827loPI   C5A13227  17.150  15.284   6.853  0.1098 -0.1034 -0.0309
  827loPI   C6A13228  17.172  14.885   6.848 -0.1537  0.0213  0.2318
  827loPI   C1B13229  17.497  15.793   5.527  0.2183 -0.1346  0.0981
  827loPI   C2B13230  17.816  15.880   5.804 -0.0611  0.0183 -0.2604
  827loPI   C3B13231  18.054  16.193   5.954  0.2528 -0.1192 -0.1901
  827loPI   C4B13232  18.318  15.981   6.241 -0.2568 -0.0598 -0.3337
  828loPI    C113233  12.206  15.864   4.752  0.1834  0.0244  0.1262
  828loPI    C213234  12.370  15.990   4.410 -0.0427  0.1494  0.0619
  828loPI    C313235  12.046  15.756   4.401  0.0851 -0.0346  0.1887
  828loPI   PO413236  12.135  16.105   4.915 -0.2531 -0.0083 -0.3594
  828loPI   GL113237  12.198  15.924   5.258 -0.1151 -0.0718  0.0678
  828loPI   GL213238  11.964  15.835   5.408 -0.4778  0.0609  0.2540
  828loPI   C1A13239  12.325  16.102   5.610 -0.1982  0.3169  0.1085
  828loPI   C2A13240  12.173  16.061   5.991 -0.1476 -0.2525 -0.0273
  828loPI   C3A13241  12.156  16.090   6.463  0.3657  0.2184 -0.0301
  828loPI   C4A13242  12.060  16.186   6.831 -0.0291 -0.0840 -0.2465
  828loPI   C5A13243  12.197  16.269   7.275 -0.2494 -0.0311 -0.1067
  828loPI   C6A13244  12.353  16.378   7.650  0.1385  0.2487 -0.1898
  828loPI   C1B13245  12.109  15.412   5.603 -0.1437 -0.1691  0.1827
  828loPI   C2B13246  11.876  15.067   5.754 -0.3947 -0.0217 -0.0549
  828loPI   C3B13247  11.653  14.724   6.090 -0.2245  0.2137  0.2527
  828loPI   C4B13248  11.736  14.542   6.466 -0.1029  0.2020  0.0577
  829loPI    C113249   8.960  17.725   4.521 -0.2845 -0.0382 -0.0176
  829loPI    C213250   8.856  18.111   4.508 -0.0513  0.0330  0.1804
  829loPI    C313251   8.793  17.876   4.190 -0.0561  0.2696  0.0042
  829loPI   PO413252   8.893  17.646   4.791 -0.1918 -0.3479  0.1783
  829loPI   GL113253   9.074  17.580   5.267  0.0090 -0.2812 -0.0226
  829loPI   GL213254   8.732  17.407   5.458 -0.2522  0.2772  0.0037
  829loPI   C1A13255   9.291  17.617   5.574  0.0831 -0.1977 -0.1144
  829loPI   C2A13256   9.213  17.630   5.959 -0.0606 -0.0484 -0.0146
  829loPI   C3A13257   9.203  17.829   6.289  0.1874 -0.0265  0.1827
  829loPI   C4A13258   9.092  17.708   6.602 -0.1687  0.0004  0.3582
  829loPI   C5A13259   8.924  17.548   7.035  0.0769 -0.0512  0.0513
  829loPI   C6A13260   8.849  17.739   7.378 -0.0955 -0.0336  0.0070
  829loPI   C1B13261   8.461  17.399   5.768 -0.0295 -0.1423  0.0485
  829loPI   C2B13262   8.396  17.291   6.248  0.0896 -0.1077  0.4535
  829loPI   C3B13263   8.308  17.297   6.609  0.1105  0.0522 -0.0923
  829loPI   C4B13264   8.315  17.386   7.100  0.4869  0.0099  0.2477
  830loPI    C113265  10.008   9.936   4.688  0.0855  0.2166 -0.2186
  830loPI    C213266  10.174  10.110   4.368  0.1768 -0.2418 -0.4289
  830loPI    C313267   9.970   9.768   4.326 -0.1646 -0.0918 -0.0550
  830loPI   PO413268   9.991  10.019   4.853  0.2483  0.1698 -0.2850
  830loPI   GL113269  10.036   9.946   5.287  0.0107  0.3029 -0.2521
  830loPI   GL213270  10.321   9.769   5.365  0.0806  0.0239 -0.2299
  830loPI   C1A13271   9.995  10.112   5.672 -0.0878  0.0180  0.0644
  830loPI   C2A13272  10.088   9.890   5.960  0.0760 -0.0977 -0.4294
  830loPI   C3A13273  10.301   9.961   6.389 -0.2289 -0.1029 -0.0959
  830loPI   C4A13274  10.487  10.005   6.770 -0.2235 -0.0111 -0.2058
  830loPI   C5A13275  10.608  10.014   7.174 -0.1877  0.0605 -0.0789
  830loPI   C6A13276  10.762  10.186   7.533 -0.1689 -0.0826  0.0692
  830loPI   C1B13277  10.462   9.676   5.775  0.1269  0.1040  0.1140
  830loPI   C2B13278  10.419   9.449   6.102  0.1431  0.3179 -0.1503
  830loPI   C3B13279  10.451   9.554   6.567 -0.0489 -0.1254  0.0975
  830loPI   C4B13280  10.507   9.432   7.039  0.2357 -0.2833  0.5038
  831loPI    C113281   1.320  10.206   3.812 -0.0352  0.0517  0.1031
  831loPI    C213282   1.480   9.886   3.633  0.3713  0.0684  0.4194
  831loPI    C313283   1.528  10.249   3.473 -0.1987 -0.0298 -0.0089
  831loPI   PO413284   1.414  10.226   3.990  0.1861  0.1459  0.1923
  831loPI   GL113285   1.253  10.264   4.443 -0.1297 -0.0930  0.4239
  831loPI   GL213286   0.971  10.301   4.510  0.0406 -0.0499 -0.1572
  831loPI   C1A13287   1.224  10.170   4.953  0.0164  0.1670  0.3349
  831loPI   C2A13288   1.145  10.320   5.392 -0.1193  0.1537 -0.1559
  831loPI   C3A13289   1.093  10.467   5.830 -0.0348 -0.0871 -0.0487
  831loPI   C4A13290   1.281  10.530   6.295 -0.2463  0.2602 -0.1763
  831loPI   C5A13291   1.526  10.237   6.506 -0.1261  0.0002  0.0523
  831loPI   C6A13292   1.744   9.850   6.743 -0.0212 -0.1369 -0.3439
  831loPI   C1B13293   0.809  10.469   4.869 -0.2048 -0.0754 -0.1103
  831loPI   C2B13294   0.652  10.478   5.319  0.0207  0.0416 -0.1462
  831loPI   C3B13295   0.666  10.597   5.628 -0.5183 -0.1481  0.2379
  831loPI   C4B13296   0.838  10.830   5.890  0.1498 -0.1846 -0.1060
  832loPI    C113297   5.900  14.331   4.684  0.1736  0.2925  0.0075
  832loPI    C213298   5.874  14.621   4.410  0.1490  0.0503 -0.2498
  832loPI    C313299   5.841  14.237   4.300  0.5095 -0.0689  0.0373
  832loPI   PO413300   6.006  14.401   4.839  0.2632  0.0992  0.1452
  832loPI   GL113301   6.171  14.337   5.218 -0.0440 -0.1498  0.2937
  832loPI   GL213302   5.896  14.426   5.306 -0.1644  0.2257 -0.0811
  832loPI   C1A13303   6.305  14.605   5.502  0.0753  0.0131  0.0834
  832loPI   C2A13304   6.114  14.800   5.815 -0.0008 -0.0307  0.1215
  832loPI   C3A13305   6.162  14.916   6.174  0.1452  0.3060 -0.3471
  832loPI   C4A13306   6.153  14.838   6.593  0.1945 -0.1190  0.0231
  832loPI   C5A13307   6.246  14.793   6.918 -0.2319  0.1209  0.2800
  832loPI   C6A13308   6.567  14.845   7.269  0.1355  0.0976 -0.2180
  832loPI   C1B13309   5.834  14.416   5.690 -0.0212  0.3072  0.1791
  832loPI   C2B13310   5.813  14.472   6.105 -0.0100 -0.1298 -0.0854
  832loPI   C3B13311   5.621  14.696   6.439 -0.0292 -0.0150 -0.0769
  832loPI   C4B13312   5.294  14.723   6.738  0.3556  0.3472  0.0739
  833loPI    C113313  16.796  18.052   4.502  0.1443 -0.2387 -0.2649
  833loPI    C213314  16.881  18.415   4.646 -0.1773 -0.1861 -0.2006
  833loPI    C313315  16.831  18.362   4.252  0.1873 -0.2271 -0.2446
  833loPI   PO413316  17.049  17.924   4.726  0.0867  0.1980  0.0632
  833loPI   GL113317  17.056  17.600   5.170 -0.2933  0.0888 -0.1487
  833loPI   GL213318  16.944  17.855   5.318  0.2833  0.1068 -0.0737
  833loPI   C1A13319  17.282  17.585   5.593 -0.2563  0.2036 -0.0075
  833loPI   C2A13320  17.626  17.330   5.709  0.1602 -0.0521 -0.1706
  833loPI   C3A13321  17.753  17.108   6.081 -0.2256  0.0678 -0.3501
  833loPI   C4A13322  17.728  16.974   6.534 -0.0637 -0.0591  0.1696
  833loPI   C5A13323  17.762  17.242   6.910 -0.0430 -0.0715  0.2850
  833loPI   C6A13324  17.747  17.417   7.330  0.0947  0.1428  0.1825
  833loPI   C1B13325  16.863  17.854   5.811 -0.4748 -0.0107 -0.2107
  833loPI   C2B13326  16.835  17.642   6.269 -0.2335  0.3706  0.3582
  833loPI   C3B13327  16.919  17.391   6.646 -0.2225  0.1820 -0.0312
  833loPI   C4B13328  16.810  17.201   7.065 -0.1799 -0.0517 -0.3054
  834loPI    C113329   5.009  13.297   4.351 -0.0759 -0.0620  0.1839
  834loPI    C213330   4.762  13.432   4.067 -0.0148 -0.2468  0.0408
  834loPI    C313331   5.038  13.157   3.978  0.3761  0.0975  0.1522
  834loPI   PO413332   5.012  13.577   4.504 -0.2090  0.0118 -0.0925
  834loPI   GL113333   5.162  13.335   4.847  0.0221  0.2005 -0.0138
  834loPI   GL213334   4.890  13.614   4.945  0.2022  0.2862  0.3525
  834loPI   C1A13335   5.220  13.214   5.257 -0.0203  0.1779  0.3518
  834loPI   C2A13336   5.115  13.177   5.645 -0.1415 -0.0388 -0.0912
  834loPI   C3A13337   5.134  13.143   6.086 -0.0737  0.3204  0.1485
  834loPI   C4A13338   5.119  13.328   6.496  0.3454  0.3093  0.0754
  834loPI   C5A13339   4.918  13.249   6.825 -0.2377 -0.1553 -0.1851
  834loPI   C6A13340   4.613  13.118   7.160  0.0351  0.2238 -0.2109
  834loPI   C1B13341   4.722  13.393   5.293  0.2875 -0.1627  0.0292
  834loPI   C2B13342   4.869  13.655   5.653  0.0458 -0.0554 -0.2953
  834loPI   C3B13343   4.965  13.625   6.115 -0.1069 -0.0559 -0.0806
  834loPI   C4B13344   5.080  13.851   6.394  0.1324 -0.0745 -0.0737
  835loPI    C113345   6.859  12.164   4.417 -0.0511 -0.0905 -0.3107
  835loPI    C213346   6.780  12.449   4.147 -0.0473  0.0372 -0.1782
  835loPI    C313347   7.070  12.183   4.078 -0.1640 -0.0399 -0.3789
  835loPI   PO413348   6.780  12.228   4.629 -0.0043  0.0883 -0.0648
  835loPI   GL113349   6.884  12.150   5.009  0.1588  0.1160 -0.2332
  835loPI   GL213350   7.124  12.463   4.946  0.1186 -0.1440  0.1752
  835loPI   C1A13351   6.727  12.400   5.344 -0.2822 -0.1704  0.2720
  835loPI   C2A13352   6.448  12.639   5.541 -0.0113  0.3081 -0.1429
  835loPI   C3A13353   6.328  12.535   5.965  0.0107  0.2828 -0.1930
  835loPI   C4A13354   6.083  12.391   6.274 -0.3818  0.3496  0.1396
  835loPI   C5A13355   5.944  12.329   6.670  0.1031  0.0889 -0.1160
  835loPI   C6A13356   6.171  12.465   6.939  0.1986  0.0018 -0.0812
  835loPI   C1B13357   7.208  12.141   5.370 -0.2708  0.0370  0.1607
  835loPI   C2B13358   7.191  11.798   5.724 -0.1947  0.0592 -0.0097
  835loPI   C3B13359   7.499  11.661   6.058  0.2528 -0.2312  0.0654
  835loPI   C4B13360   7.757  11.695   6.419  0.1288  0.0429  0.1609
  836loPI    C113361  13.906  16.899   4.878  0.2058 -0.0887 -0.0400
  836loPI    C213362  13.778  16.720   4.543  0.2024  0.2579 -0.2285
  836loPI    C313363  13.807  17.119   4.559  0.3139  0.2394  0.1481
  836loPI   PO413364  14.152  16.775   4.884 -0.2512 -0.0419 -0.2563
  836loPI   GL113365  14.419  16.495   5.089  0.1859 -0.1420  0.0519
  836loPI   GL213366  14.289  16.149   5.206  0.0697 -0.0793 -0.1324
  836loPI   C1A13367  14.343  16.462   5.583 -0.0551 -0.1260 -0.1239
  836loPI   C2A13368  14.226  16.572   6.015  0.2379 -0.0632 -0.0997
  836loPI   C3A13369  14.263  16.679   6.406 -0.1094  0.2183 -0.3239
  836loPI   C4A13370  14.050  16.686   6.726 -0.0303  0.2386  0.2306
  836loPI   C5A13371  13.960  16.842   7.099 -0.2913  0.0115 -0.0503
  836loPI   C6A13372  13.940  16.798   7.553  0.0613 -0.1886 -0.1790
  836loPI   C1B13373  14.440  15.908   5.505 -0.3057  0.4414 -0.0725
  836loPI   C2B13374  14.666  15.761   5.681 -0.2286 -0.3656 -0.0556
  836loPI   C3B13375  14.897  15.775   6.090  0.3527  0.1332  0.2558
  836loPI   C4B13376  15.135  15.807   6.518  0.1619 -0.1337 -0.1108
  837loPI    C113377  15.934  18.482   4.608 -0.0230 -0.2281  0.2036
  837loPI    C213378  15.868  18.139   4.413  0.2147 -0.0776 -0.1503
  837loPI    C313379  15.676  18.472   4.303  0.1268 -0.0544  0.0691
  837loPI   PO413380  15.881  18.517   4.855  0.0368  0.0698  0.0410
  837loPI   GL113381  16.082  18.599   5.200 -0.0944 -0.1303  0.0545
  837loPI   GL213382  15.928  18.245   5.344  0.1729  0.4456  0.1681
  837loPI   C1A13383  16.477  18.716   5.556  0.1396 -0.2483 -0.0462
  837loPI   C2A13384  16.529  18.686   5.963  0.0882 -0.2043  0.1404
  837loPI   C3A13385  16.544  18.554   6.361  0.0279  0.2190  0.2547
  837loPI   C4A13386  16.491  18.393   6.728  0.1838  0.0825  0.1160
  837loPI   C5A13387  16.398  18.001   6.874 -0.2059  0.1973 -0.1892
  837loPI   C6A13388  16.689  17.683   6.941  0.1469  0.1151 -0.3020
  837loPI   C1B13389  16.071  18.378   5.708  0.2238  0.0530  0.2235
  837loPI   C2B13390  16.142  18.360   6.113 -0.3631  0.2357  0.2676
  837loPI   C3B13391  16.075  18.134   6.498 -0.1244 -0.1020  0.0502
  837loPI   C4B13392  15.874  17.954   6.857 -0.1281  0.2256  0.0816
  838loPI    C113393  11.553  19.369   4.841  0.2147  0.3268  0.0238
  838loPI    C213394  11.751  19.475   4.510  0.1326  0.1424 -0.0862
  838loPI    C313395  11.712  19.088   4.604 -0.0556  0.1831  0.0086
  838loPI   PO413396  11.543  19.524   4.969 -0.2178  0.2231 -0.0656
  838loPI   GL113397  11.794  19.539   5.327 -0.0015 -0.1864  0.0879
  838loPI   GL213398  11.429  19.474   5.462 -0.3636 -0.0658 -0.4029
  838loPI   C1A13399  12.040  19.578   5.764 -0.0629 -0.2168 -0.2663
  838loPI   C2A13400  12.277  19.655   6.088 -0.0077 -0.2292 -0.1371
  838loPI   C3A13401  12.631  19.955   6.240 -0.0085  0.1255  0.1532
  838loPI   C4A13402  12.860  19.956   6.648 -0.0328  0.2091 -0.0320
  838loPI   C5A13403  12.968  19.573   6.862 -0.0222 -0.4601  0.3090
  838loPI   C6A13404  12.926  19.172   7.071  0.3588 -0.1550  0.1558
  838loPI   C1B13405  11.378  19.466   5.901  0.1098 -0.2265 -0.0808
  838loPI   C2B13406  11.308  19.356   6.324  0.1958  0.3341 -0.0383
  838loPI   C3B13407  11.215  19.150   6.586  0.0332 -0.2129 -0.0364
  838loPI   C4B13408  10.886  18.894   6.654 -0.2953  0.1103 -0.0117
  839loPI    C113409   1.661  13.076   4.370  0.0114  0.0614 -0.0926
  839loPI    C213410   1.276  13.012   4.461  0.0373 -0.0081 -0.0302
  839loPI    C313411   1.373  13.242   4.147 -0.0548  0.0154 -0.0418
  839loPI   PO413412   1.795  13.167   4.511  0.1127  0.0355 -0.4196
  839loPI   GL113413   2.069  13.207   4.837  0.3119  0.1898 -0.1503
  839loPI   GL213414   2.419  13.186   4.871  0.1469 -0.2054  0.0204
  839loPI   C1A13415   2.092  13.259   5.292  0.2069 -0.0293  0.2358
  839loPI   C2A13416   2.371  13.213   5.731  0.0283 -0.1375  0.1136
  839loPI   C3A13417   2.662  13.310   6.074  0.1555 -0.0580  0.2278
  839loPI   C4A13418   2.748  13.017   6.522  0.1286 -0.0947 -0.0532
  839loPI   C5A13419   2.772  12.661   6.873 -0.1501 -0.0807 -0.0626
  839loPI   C6A13420   2.667  12.158   6.954 -0.2133  0.1399  0.2994
  839loPI   C1B13421   2.606  13.361   5.311 -0.4423 -0.1049  0.2207
  839loPI   C2B13422   2.885  13.589   5.725  0.1445  0.0726  0.1593
  839loPI   C3B13423   2.967  13.684   6.161  0.2540 -0.3339  0.1282
  839loPI   C4B13424   2.850  13.930   6.529  0.2196 -0.3673 -0.1145
  840loPI    C113425  13.218  11.401   4.536 -0.0755 -0.2528 -0.0925
  840loPI    C213426  13.404  11.677   4.315  0.0018 -0.1241  0.1301
  840loPI    C313427  13.050  11.532   4.197  0.0236 -0.0293 -0.0569
  840loPI   PO413428  13.200  11.479   4.763  0.0115 -0.0849  0.2571
  840loPI   GL113429  13.225  11.532   5.148 -0.0547 -0.2293  0.1396
  840loPI   GL213430  13.394  11.799   5.333 -0.0090  0.5192  0.0916
  840loPI   C1A13431  12.906  11.445   5.453 -0.2009  0.1605  0.0323
  840loPI   C2A13432  12.633  11.287   5.755 -0.0229  0.0753  0.0649
  840loPI   C3A13433  12.786  11.077   6.227  0.1794 -0.1390  0.1901
  840loPI   C4A13434  12.868  10.765   6.556 -0.0142  0.0425 -0.2712
  840loPI   C5A13435  12.940  10.692   7.070 -0.2544 -0.2423 -0.5248
  840loPI   C6A13436  12.879  10.866   7.414  0.0397  0.0663  0.1505
  840loPI   C1B13437  13.385  11.710   5.793  0.1017  0.1548 -0.0533
  840loPI   C2B13438  13.482  11.705   6.217  0.0834  0.0727 -0.0259
  840loPI   C3B13439  13.612  11.574   6.618  0.0357 -0.2230  0.1283
  840loPI   C4B13440  13.628  11.630   7.137  0.0537  0.1757 -0.0260
  841loPI    C113441  13.238  15.677   4.767 -0.0689  0.1322  0.1377
  841loPI    C213442  13.320  15.289   4.823  0.1232  0.1602  0.0577
  841loPI    C313443  13.286  15.435   4.452  0.0395  0.2179  0.0878
  841loPI   PO413444  13.112  15.751   4.951  0.1400  0.0796 -0.0242
  841loPI   GL113445  13.041  16.227   5.237 -0.0450 -0.0033 -0.0820
  841loPI   GL213446  13.287  16.261   5.354  0.0551  0.1138  0.2832
  841loPI   C1A13447  13.082  15.916   5.629  0.0370  0.1809  0.1077
  841loPI   C2A13448  12.996  15.964   6.041 -0.3477 -0.0154  0.1740
  841loPI   C3A13449  12.934  15.819   6.478 -0.1138  0.0522  0.0393
  841loPI   C4A13450  12.996  15.657   6.891 -0.1799  0.2117  0.1026
  841loPI   C5A13451  12.936  15.856   7.261  0.2081 -0.4528 -0.0066
  841loPI   C6A13452  13.103  16.019   7.577 -0.0297 -0.0011  0.1181
  841loPI   C1B13453  13.223  16.416   5.806 -0.1229 -0.1019 -0.2366
  841loPI   C2B13454  13.126  16.412   6.190  0.1677 -0.3401  0.0476
  841loPI   C3B13455  12.995  16.304   6.543  0.0519 -0.0533 -0.2803
  841loPI   C4B13456  13.022  16.359   6.932  0.0460  0.0537  0.4375
  842loPI    C113457   3.608  17.914   4.673  0.0854  0.0926 -0.0325
  842loPI    C213458   3.401  17.604   4.817 -0.0191  0.1049 -0.1536
  842loPI    C313459   3.673  17.546   4.531  0.0430  0.1093 -0.0957
  842loPI   PO413460   3.512  18.097   4.705 -0.2851 -0.2446 -0.2863
  842loPI   GL113461   3.623  18.274   5.072  0.2295  0.0610 -0.0357
  842loPI   GL213462   3.707  17.954   5.208  0.0655  0.2746  0.0181
  842loPI   C1A13463   3.652  18.399   5.467 -0.0672 -0.0821  0.0183
  842loPI   C2A13464   3.692  18.638   5.843  0.3484  0.0373  0.2576
  842loPI   C3A13465   3.722  18.615   6.274 -0.1024  0.1949  0.4418
  842loPI   C4A13466   3.878  18.600   6.637  0.0518  0.0418  0.1764
  842loPI   C5A13467   3.919  18.482   7.079  0.3049 -0.0118  0.0126
  842loPI   C6A13468   3.879  18.212   7.498  0.0509 -0.0835 -0.1038
  842loPI   C1B13469   3.756  17.956   5.577  0.1593 -0.3809  0.1189
  842loPI   C2B13470   3.499  18.177   5.879  0.4927  0.1158  0.0612
  842loPI   C3B13471   3.414  18.114   6.294 -0.3822 -0.1648  0.0900
  842loPI   C4B13472   3.606  18.202   6.690  0.2328  0.0001  0.2994
  843loPI    C113473   8.584  13.196   4.509  0.0922  0.1392  0.0004
  843loPI    C213474   8.788  13.151   4.169 -0.1927  0.1608 -0.1768
  843loPI    C313475   8.393  13.091   4.174 -0.2030  0.2395  0.1337
  843loPI   PO413476   8.766  13.385   4.630 -0.2642  0.2093 -0.0050
  843loPI   GL113477   8.744  13.269   5.043 -0.0288 -0.0657  0.2431
  843loPI   GL213478   8.996  13.489   5.101  0.0254  0.0886  0.0559
  843loPI   C1A13479   8.342  13.305   5.283  0.0035 -0.1407 -0.0808
  843loPI   C2A13480   8.205  13.366   5.756 -0.0273 -0.1864  0.1473
  843loPI   C3A13481   8.205  13.407   6.189 -0.3004  0.2352  0.1838
  843loPI   C4A13482   8.114  13.641   6.494  0.1540 -0.4365 -0.1968
  843loPI   C5A13483   8.256  13.727   6.921  0.1641 -0.3627  0.1029
  843loPI   C6A13484   8.500  13.837   7.213 -0.1767  0.0626  0.3280
  843loPI   C1B13485   8.848  13.417   5.499 -0.3485  0.1683 -0.0846
  843loPI   C2B13486   9.004  13.480   5.988 -0.1360  0.3596 -0.0353
  843loPI   C3B13487   9.210  13.523   6.414  0.0301  0.0796  0.3290
  843loPI   C4B13488   9.334  13.356   6.752  0.2458  0.0866 -0.1843
  844loPI    C113489   7.615   1.512   4.708 -0.1339  0.1083  0.1647
  844loPI    C213490   7.446   1.785   4.469 -0.1294 -0.0731 -0.0489
  844loPI    C313491   7.602   1.451   4.313 -0.1617 -0.2132  0.2122
  844loPI   PO413492   7.412   1.491   4.892  0.1298 -0.1535  0.0316
  844loPI   GL113493   7.334   1.622   5.232 -0.4122  0.3203  0.0324
  844loPI   GL213494   7.013   1.797   5.247 -0.0205 -0.0678 -0.0364
  844loPI   C1A13495   7.536   1.522   5.659 -0.3776 -0.2903  0.0955
  844loPI   C2A13496   7.817   1.662   6.054 -0.1377  0.2679 -0.0126
  844loPI   C3A13497   7.796   1.758   6.498 -0.3060 -0.3447 -0.1076
  844loPI   C4A13498   7.636   1.566   6.816  0.1369 -0.4898 -0.0808
  844loPI   C5A13499   7.393   1.585   7.247  0.0414  0.1690  0.0254
  844loPI   C6A13500   7.145   1.310   7.415  0.1630 -0.0150 -0.1064
  844loPI   C1B13501   7.049   1.761   5.704 -0.0614 -0.1187  0.0314
  844loPI   C2B13502   6.824   1.874   6.069 -0.0214  0.0033 -0.0753
  844loPI   C3B13503   6.658   1.948   6.449 -0.2963  0.6344 -0.0477
  844loPI   C4B13504   6.646   2.132   6.852 -0.1172 -0.1673  0.0265
  845loPI    C113505   7.187  12.648   4.323  0.3169  0.0059 -0.1568
  845loPI    C213506   7.078  12.994   4.157 -0.4608 -0.0737  0.1465
  845loPI    C313507   7.188  12.687   3.925 -0.0050  0.2883 -0.1340
  845loPI   PO413508   7.352  12.675   4.506  0.0775  0.0090 -0.3862
  845loPI   GL113509   7.562  12.869   4.800 -0.2072  0.2112 -0.2757
  845loPI   GL213510   7.624  13.201   4.914  0.1755 -0.2924  0.0878
  845loPI   C1A13511   7.828  12.825   5.230 -0.0289  0.2217  0.0451
  845loPI   C2A13512   8.029  12.911   5.578 -0.0287  0.1031 -0.2169
  845loPI   C3A13513   8.086  12.716   5.923 -0.5425 -0.1245  0.1042
  845loPI   C4A13514   8.430  12.683   6.219  0.1150  0.1564  0.1696
  845loPI   C5A13515   8.734  12.670   6.583  0.2793  0.0389 -0.1600
  845loPI   C6A13516   8.921  12.262   6.769  0.0519 -0.0478 -0.0578
  845loPI   C1B13517   7.276  13.391   5.227 -0.2018  0.1864  0.0194
  845loPI   C2B13518   7.341  13.400   5.702 -0.0345 -0.5723 -0.2792
  845loPI   C3B13519   7.322  13.637   6.042 -0.2747 -0.0765 -0.1640
  845loPI   C4B13520   7.233  13.522   6.460 -0.4080  0.0389 -0.4164
  846loPI    C113521  14.334   0.415   5.148 -0.0549  0.2245 -0.0694
  846loPI    C213522  14.273   0.594   4.796 -0.0619  0.1321 -0.1155
  846loPI    C313523  14.645   0.553   4.938 -0.0416 -0.0104 -0.2075
  846loPI   PO413524  14.115   0.261   5.171  0.1152 -0.0431  0.0940
  846loPI   GL113525  13.979   0.030   5.573  0.2823  0.2263 -0.2139
  846loPI   GL213526  14.008   0.277   5.678 -0.1636  0.1251  0.1323
  846loPI   C1A13527  13.930  -0.216   5.992  0.0954  0.2744  0.1346
  846loPI   C2A13528  14.133  -0.385   6.296  0.0232  0.2366 -0.2514
  846loPI   C3A13529  14.459  -0.537   6.462 -0.0584 -0.0674  0.2713
  846loPI   C4A13530  14.551  -0.703   6.843  0.1087 -0.1249  0.3037
  846loPI   C5A13531  14.640  -0.524   7.240  0.0770  0.0450 -0.1130
  846loPI   C6A13532  14.765  -0.443   7.659 -0.0682 -0.0391 -0.0275
  846loPI   C1B13533  14.203   0.225   6.097  0.2198  0.0311  0.0830
  846loPI   C2B13534  14.392  -0.020   6.435 -0.1971  0.2742  0.1365
  846loPI   C3B13535  14.598  -0.077   6.745 -0.2420 -0.2231 -0.1102
  846loPI   C4B13536  14.928  -0.400   6.829  0.0533 -0.1365 -0.0707
  847loPI    C113537  18.201   0.746   4.882  0.1769 -0.0437  0.1220
  847loPI    C213538  18.317   0.393   4.734  0.0527 -0.0377  0.0088
  847loPI    C313539  18.401   0.730   4.536 -0.0140 -0.0207  0.0092
  847loPI   PO413540  18.186   0.704   5.078 -0.0437 -0.0293 -0.3256
  847loPI   GL113541  18.365   0.343   5.302 -0.0088  0.2771  0.0753
  847loPI   GL213542  18.536   0.734   5.440 -0.1747 -0.2358 -0.1488
  847loPI   C1A13543  18.268   0.017   5.634 -0.0128  0.0316  0.3700
  847loPI   C2A13544  18.085  -0.044   5.998  0.1672 -0.0339  0.0260
  847loPI   C3A13545  17.884  -0.220   6.431 -0.0164 -0.0191 -0.2998
  847loPI   C4A13546  17.773  -0.039   6.746  0.0803  0.0609  0.2382
  847loPI   C5A13547  17.574  -0.161   7.091 -0.3030 -0.3695 -0.1089
  847loPI   C6A13548  17.428  -0.255   7.502 -0.1739 -0.0919  0.3934
  847loPI   C1B13549  18.362   0.631   5.742  0.1809  0.3062 -0.0435
  847loPI   C2B13550  18.201   0.780   6.205 -0.0650 -0.0081  0.1013
  847loPI   C3B13551  18.022   0.904   6.572  0.0400  0.0712 -0.0981
  847loPI   C4B13552  17.875   0.895   6.972 -0.3449  0.0465  0.1233
  848loPI    C113553   4.878  11.618   4.291  0.2212 -0.0917  0.0246
  848loPI    C213554   4.921  11.349   3.998  0.0357 -0.1303  0.0317
  848loPI    C313555   4.978  11.737   3.923  0.1273 -0.1538 -0.0215
  848loPI   PO413556   4.994  11.515   4.611  0.0711  0.0120  0.0903
  848loPI   GL113557   5.171  11.643   5.051 -0.0359  0.2042 -0.0649
  848loPI   GL213558   4.950  11.406   5.143  0.0866  0.2036  0.0375
  848loPI   C1A13559   5.178  11.794   5.318  0.2630  0.2451  0.3471
  848loPI   C2A13560   5.053  11.815   5.753  0.0947  0.1099  0.4644
  848loPI   C3A13561   5.014  11.563   6.091  0.0782 -0.0267  0.1427
  848loPI   C4A13562   4.707  11.525   6.388 -0.0733  0.1470 -0.0193
  848loPI   C5A13563   4.312  11.588   6.491  0.1132 -0.2510  0.1033
  848loPI   C6A13564   3.960  11.550   6.728 -0.0994 -0.0870 -0.2855
  848loPI   C1B13565   5.006  11.160   5.559  0.0716  0.0433 -0.2331
  848loPI   C2B13566   4.853  11.004   5.990 -0.0926  0.1010  0.2545
  848loPI   C3B13567   5.009  11.126   6.333  0.0463  0.0758 -0.0256
  848loPI   C4B13568   4.842  11.107   6.643 -0.2007 -0.2966  0.3126
  849loPI    C113569   1.789   8.022   4.151 -0.0134  0.1127  0.1109
  849loPI    C213570   1.687   8.393   4.044  0.1805  0.1497  0.0497
  849loPI    C313571   1.879   8.157   3.785  0.0314 -0.0043  0.0781
  849loPI   PO413572   1.593   7.874   4.407  0.0577 -0.0869  0.3240
  849loPI   GL113573   1.518   8.097   4.758 -0.1342 -0.2179 -0.0132
  849loPI   GL213574   1.237   8.133   4.683 -0.1960  0.0087  0.0470
  849loPI   C1A13575   1.624   8.228   5.193 -0.2221  0.0281  0.0802
  849loPI   C2A13576   1.397   8.233   5.548  0.4448 -0.0709  0.0442
  849loPI   C3A13577   1.526   8.294   5.965  0.1546 -0.2932  0.2140
  849loPI   C4A13578   1.458   8.347   6.358 -0.3117 -0.2577 -0.2566
  849loPI   C5A13579   1.318   8.345   6.743  0.0757 -0.1652 -0.0266
  849loPI   C6A13580   1.180   8.337   7.204 -0.1724 -0.2547  0.0491
  849loPI   C1B13581   1.097   8.315   5.089  0.0481 -0.2373 -0.0997
  849loPI   C2B13582   0.963   8.436   5.480  0.3860 -0.2769  0.0137
  849loPI   C3B13583   1.008   8.404   5.904  0.0726  0.1128  0.2744
  849loPI   C4B13584   0.980   8.401   6.300  0.0013 -0.1466  0.0011
  850loPI    C113585  17.245   3.261   4.711  0.0540 -0.1371 -0.1318
  850loPI    C213586  16.955   3.238   4.437  0.0072  0.1888 -0.1136
  850loPI    C313587  17.336   3.189   4.328 -0.0237  0.1577 -0.2089
  850loPI   PO413588  17.188   3.446   4.928 -0.2660 -0.1207  0.1013
  850loPI   GL113589  17.386   3.546   5.359  0.0323 -0.0889  0.1595
  850loPI   GL213590  17.264   3.930   5.329  0.0487  0.1344 -0.0899
  850loPI   C1A13591  17.493   3.395   5.882 -0.0117 -0.1352  0.2237
  850loPI   C2A13592  17.491   3.254   6.282  0.1468  0.0253 -0.4664
  850loPI   C3A13593  17.540   3.422   6.666  0.2284 -0.0546 -0.3478
  850loPI   C4A13594  17.568   3.772   6.963  0.4427  0.1203  0.2495
  850loPI   C5A13595  17.355   3.881   7.366 -0.2355  0.0398  0.0081
  850loPI   C6A13596  16.975   3.793   7.380 -0.1029 -0.1863  0.1499
  850loPI   C1B13597  17.295   4.253   5.643 -0.2201  0.0697 -0.4188
  850loPI   C2B13598  17.016   4.567   5.808 -0.2095 -0.0502  0.3849
  850loPI   C3B13599  16.715   4.688   5.979 -0.0342 -0.0737 -0.0803
  850loPI   C4B13600  16.270   4.628   5.949 -0.0847 -0.0056  0.1843
  851loPI    C113601  13.177  18.648   5.052 -0.2339  0.2454  0.1669
  851loPI    C213602  13.419  18.383   4.875 -0.0910  0.1189  0.5418
  851loPI    C313603  13.133  18.566   4.663 -0.0175 -0.1328  0.2174
  851loPI   PO413604  13.140  18.537   5.280 -0.2895  0.1890  0.0640
  851loPI   GL113605  13.089  18.246   5.669  0.3414 -0.3217  0.1901
  851loPI   GL213606  13.238  18.025   5.398 -0.4491 -0.2626 -0.0329
  851loPI   C1A13607  13.368  18.329   6.022 -0.4802  0.0083 -0.0632
  851loPI   C2A13608  13.435  18.321   6.455  0.0733  0.3906 -0.1174
  851loPI   C3A13609  13.241  18.239   6.869  0.0743 -0.2132 -0.3609
  851loPI   C4A13610  12.871  18.072   7.159  0.0461 -0.2323  0.1181
  851loPI   C5A13611  12.733  18.234   7.547  0.1899  0.0273  0.1393
  851loPI   C6A13612  12.450  18.257   7.829  0.0360  0.3098 -0.1773
  851loPI   C1B13613  13.255  17.831   5.973 -0.1589 -0.2718  0.3093
  851loPI   C2B13614  13.148  17.828   6.306  0.3063  0.0022 -0.1521
  851loPI   C3B13615  12.933  17.810   6.741 -0.1432  0.0835 -0.0446
  851loPI   C4B13616  12.544  17.696   6.869  0.0158 -0.1977 -0.0627
  852loPI    C113617  18.196   5.706   4.570 -0.4542 -0.2903 -0.0687
  852loPI    C213618  18.152   5.747   4.174 -0.0155  0.0885 -0.0863
  852loPI    C313619  18.518   5.744   4.336 -0.1777 -0.3331  0.2961
  852loPI   PO413620  18.026   5.902   4.706 -0.1236  0.1679  0.2324
  852loPI   GL113621  17.908   6.183   5.064  0.1259  0.0587  0.1672
  852loPI   GL213622  18.200   6.314   4.995 -0.3622  0.0877 -0.0008
  852loPI   C1A13623  17.659   6.388   5.331  0.1663  0.1121 -0.1829
  852loPI   C2A13624  17.643   6.485   5.834  0.1511  0.0111 -0.2660
  852loPI   C3A13625  17.623   6.428   6.173  0.0974 -0.2918  0.3707
  852loPI   C4A13626  17.695   6.439   6.601 -0.0050 -0.2635 -0.0599
  852loPI   C5A13627  17.734   6.505   7.028  0.4114  0.2474  0.3444
  852loPI   C6A13628  18.170   6.556   7.169 -0.2465 -0.0884 -0.1144
  852loPI   C1B13629  18.227   6.262   5.498 -0.2512  0.1897 -0.0218
  852loPI   C2B13630  18.149   6.362   5.918  0.0074 -0.0028  0.1275
  852loPI   C3B13631  18.119   6.333   6.372 -0.2816 -0.3366  0.0136
  852loPI   C4B13632  18.105   6.189   6.778 -0.2849  0.1302  0.2273
  853loPI    C113633  10.066   4.099   4.799  0.0762  0.2265 -0.0406
  853loPI    C213634  10.199   4.056   4.425  0.0109  0.0026 -0.0391
  853loPI    C313635  10.294   4.383   4.634  0.4124 -0.0708 -0.0987
  853loPI   PO413636   9.850   3.872   4.791  0.2208  0.0734 -0.0841
  853loPI   GL113637   9.803   3.894   5.337  0.0649  0.0324  0.1413
  853loPI   GL213638  10.114   3.942   5.271 -0.0376 -0.1381 -0.0107
  853loPI   C1A13639   9.569   4.104   5.685  0.2928 -0.2313 -0.2456
  853loPI   C2A13640   9.684   4.082   6.081 -0.0537 -0.0572 -0.3426
  853loPI   C3A13641   9.685   4.109   6.503 -0.0647 -0.0266  0.1306
  853loPI   C4A13642   9.754   4.158   6.913  0.2713  0.1331 -0.0817
  853loPI   C5A13643   9.785   3.665   7.069  0.3755  0.1069  0.0305
  853loPI   C6A13644  10.206   3.391   7.024  0.0684 -0.1358 -0.2509
  853loPI   C1B13645  10.114   3.969   5.777 -0.2055 -0.2994 -0.0658
  853loPI   C2B13646  10.152   3.888   6.300 -0.0725  0.0550  0.0953
  853loPI   C3B13647  10.181   3.858   6.698  0.1446  0.2903  0.2094
  853loPI   C4B13648  10.409   3.969   7.099 -0.0027  0.0755 -0.0046
  854loPI    C113649  14.516   8.209   4.112 -0.2978 -0.2552  0.2426
  854loPI    C213650  14.234   8.388   4.332 -0.0286  0.1852  0.2427
  854loPI    C313651  14.176   8.330   3.941 -0.1589  0.1808  0.2623
  854loPI   PO413652  14.564   8.015   4.298 -0.0779  0.0242 -0.0812
  854loPI   GL113653  14.626   8.036   4.715  0.1232  0.1637  0.1227
  854loPI   GL213654  14.932   8.292   4.935  0.4086 -0.1272 -0.3049
  854loPI   C1A13655  14.532   8.064   5.225  0.1416 -0.0060 -0.3191
  854loPI   C2A13656  14.632   8.078   5.732  0.1729  0.0772  0.0789
  854loPI   C3A13657  14.612   7.982   6.162 -0.0504 -0.1468  0.0574
  854loPI   C4A13658  14.629   7.929   6.575  0.0413 -0.1424  0.0338
  854loPI   C5A13659  14.738   7.521   6.826 -0.0668  0.1845 -0.1474
  854loPI   C6A13660  14.635   7.164   7.051  0.0263  0.1042 -0.0112
  854loPI   C1B13661  14.937   8.384   5.447  0.2711 -0.3320  0.0047
  854loPI   C2B13662  15.013   8.366   5.951 -0.2231  0.2086  0.0928
  854loPI   C3B13663  14.910   8.371   6.346 -0.0353 -0.1538  0.1654
  854loPI   C4B13664  15.041   8.419   6.806  0.1176  0.1040  0.0331
  855loPI    C113665  18.483   3.288   5.000  0.1284 -0.1116  0.0165
  855loPI    C213666  18.791   3.439   4.794 -0.0485  0.1562 -0.0559
  855loPI    C313667  18.416   3.500   4.667 -0.1486  0.1231  0.2168
  855loPI   PO413668  18.506   3.257   5.243 -0.3095 -0.1126 -0.0469
  855loPI   GL113669  18.361   3.111   5.540  0.1141  0.0446 -0.1241
  855loPI   GL213670  18.209   2.871   5.636 -0.0270  0.2729 -0.0492
  855loPI   C1A13671  18.310   3.318   5.916  0.1481  0.0501  0.0615
  855loPI   C2A13672  17.929   3.430   6.104 -0.1509 -0.2848  0.0799
  855loPI   C3A13673  17.679   3.783   6.297 -0.2682  0.4151 -0.0967
  855loPI   C4A13674  17.569   4.136   6.526  0.0786  0.1499 -0.1018
  855loPI   C5A13675  17.244   4.316   6.934 -0.2020  0.1311  0.2472
  855loPI   C6A13676  17.118   4.316   7.267 -0.0536 -0.0676  0.0930
  855loPI   C1B13677  18.217   2.845   6.066 -0.0486  0.1284 -0.2626
  855loPI   C2B13678  18.329   3.154   6.374  0.0295  0.2294  0.1385
  855loPI   C3B13679  18.177   3.535   6.542  0.1140 -0.2768  0.0279
  855loPI   C4B13680  18.109   3.954   6.617  0.0712  0.0225 -0.1236
  856loPI    C113681   6.567  16.247   4.363  0.2338  0.1605  0.0824
  856loPI    C213682   6.678  15.917   4.166  0.1745  0.1993 -0.0167
  856loPI    C313683   6.837  16.270   4.068  0.2214  0.2037  0.0743
  856loPI   PO413684   6.635  16.141   4.701 -0.3084  0.0299 -0.3629
  856loPI   GL113685   6.329  16.202   5.087 -0.2339 -0.2660  0.1966
  856loPI   GL213686   6.046  16.344   5.204  0.1515 -0.2811  0.2991
  856loPI   C1A13687   6.338  15.983   5.439 -0.1016 -0.1728  0.1527
  856loPI   C2A13688   6.262  15.798   5.824  0.5415 -0.0284  0.3098
  856loPI   C3A13689   6.498  15.735   6.091  0.3069 -0.1380 -0.0925
  856loPI   C4A13690   6.896  15.838   6.389 -0.3382 -0.3209  0.2908
  856loPI   C5A13691   7.184  15.903   6.780  0.1216  0.0915  0.1888
  856loPI   C6A13692   7.140  16.211   7.188  0.1481 -0.0215 -0.3290
  856loPI   C1B13693   6.248  16.637   5.368  0.0968 -0.1602 -0.3710
  856loPI   C2B13694   6.349  16.836   5.808  0.1403 -0.0016  0.3640
  856loPI   C3B13695   6.573  16.908   6.177  0.1154 -0.1165 -0.0260
  856loPI   C4B13696   6.776  16.953   6.575  0.4211 -0.0488 -0.0604
  857loPI    C113697   0.661   3.104   4.771  0.3090 -0.1078  0.0385
  857loPI    C213698   0.923   3.135   4.470  0.2031 -0.3521 -0.0819
  857loPI    C313699   0.539   3.054   4.393  0.0757  0.0650  0.0888
  857loPI   PO413700   0.719   2.953   4.941  0.0750  0.1722 -0.3629
  857loPI   GL113701   0.574   2.697   5.372  0.1629  0.1378  0.4572
  857loPI   GL213702   0.324   2.848   5.265 -0.1498  0.0188 -0.2794
  857loPI   C1A13703   0.585   2.607   5.798 -0.0526  0.1608  0.0825
  857loPI   C2A13704   0.616   2.566   6.245  0.2702  0.0955  0.3620
  857loPI   C3A13705   0.562   2.639   6.693 -0.1840 -0.0394 -0.0400
  857loPI   C4A13706   0.573   2.505   7.158 -0.0454  0.2724 -0.1920
  857loPI   C5A13707   0.362   2.796   7.419  0.0775 -0.1252 -0.1995
  857loPI   C6A13708   0.069   2.702   7.732  0.0197  0.2834 -0.0083
  857loPI   C1B13709   0.271   2.994   5.719 -0.4143  0.2725 -0.1703
  857loPI   C2B13710   0.451   3.043   6.156  0.1155  0.0058  0.0059
  857loPI   C3B13711   0.434   3.096   6.672  0.0022  0.3107 -0.1531
  857loPI   C4B13712   0.565   3.028   7.029 -0.2007 -0.1997 -0.2474
  858loPI    C113713   6.645  15.005   4.646 -0.2461 -0.2142  0.0572
  858loPI    C213714   6.809  15.119   4.300  0.1279 -0.1179  0.2596
  858loPI    C313715   6.451  14.940   4.303  0.1476 -0.1766 -0.1791
  858loPI   PO413716   6.742  15.158   4.789  0.4588 -0.3592  0.4047
  858loPI   GL113717   7.020  15.306   5.040 -0.2226  0.1219 -0.2859
  858loPI   GL213718   7.026  15.651   5.053 -0.0936  0.0468  0.0030
  858loPI   C1A13719   7.024  15.162   5.479 -0.0957  0.0919 -0.1072
  858loPI   C2A13720   7.199  14.997   5.829  0.0768 -0.3264 -0.0217
  858loPI   C3A13721   7.273  14.760   6.158 -0.0001 -0.0579 -0.1720
  858loPI   C4A13722   7.218  14.484   6.579  0.1301 -0.1669 -0.0598
  858loPI   C5A13723   7.062  14.424   7.037  0.0062  0.0612  0.1226
  858loPI   C6A13724   7.032  14.465   7.450 -0.0939 -0.0286 -0.1613
  858loPI   C1B13725   6.888  15.881   5.321 -0.1945 -0.2316  0.0199
  858loPI   C2B13726   6.927  15.976   5.839 -0.0264 -0.0371  0.3676
  858loPI   C3B13727   6.989  16.313   6.009  0.3170 -0.0811 -0.1602
  858loPI   C4B13728   6.886  16.719   5.880 -0.0159  0.1609 -0.0882
  859loPI    C113729   3.803   9.978   4.504 -0.0898 -0.2674  0.1949
  859loPI    C213730   3.535   9.960   4.208  0.1098 -0.0217 -0.0051
  859loPI    C313731   3.921   9.887   4.133  0.1868  0.2054  0.1585
  859loPI   PO413732   3.804  10.208   4.578 -0.1708 -0.0257 -0.2445
  859loPI   GL113733   3.776  10.504   5.001 -0.3179  0.0168  0.1777
  859loPI   GL213734   3.861  10.802   5.027 -0.2157 -0.2733  0.1956
  859loPI   C1A13735   3.635  10.388   5.322 -0.1584  0.2509 -0.0939
  859loPI   C2A13736   3.447  10.459   5.708  0.2429  0.0551  0.0798
  859loPI   C3A13737   3.140  10.405   6.019  0.2483 -0.0221 -0.0040
  859loPI   C4A13738   3.124  10.100   6.466 -0.0328  0.0761 -0.4243
  859loPI   C5A13739   2.988  10.153   6.987  0.0173 -0.0777  0.1089
  859loPI   C6A13740   2.651  10.125   7.254  0.1511 -0.2471 -0.1463
  859loPI   C1B13741   3.936  10.753   5.464  0.0684 -0.1297 -0.0972
  859loPI   C2B13742   4.115  10.872   5.732 -0.0453 -0.0980 -0.0474
  859loPI   C3B13743   4.309  10.787   6.177 -0.0242 -0.0717  0.0840
  859loPI   C4B13744   4.480  10.662   6.492 -0.0005 -0.0521 -0.0262
  860loPI    C113745   9.567   5.594   4.723 -0.0879  0.1633  0.0888
  860loPI    C213746   9.660   5.449   4.362  0.2937  0.0238  0.2386
  860loPI    C313747   9.763   5.823   4.461  0.4189 -0.0239  0.2915
  860loPI   PO413748   9.563   5.513   4.989 -0.0130  0.0389  0.1314
  860loPI   GL113749   9.719   5.614   5.349  0.0264 -0.2766 -0.3334
  860loPI   GL213750   9.880   5.460   5.397  0.1413  0.1317 -0.2309
  860loPI   C1A13751   9.732   5.976   5.644 -0.0035 -0.2325  0.0479
  860loPI   C2A13752   9.858   5.949   6.072  0.3154 -0.1267  0.1091
  860loPI   C3A13753   9.907   6.009   6.548 -0.1676  0.0942  0.0599
  860loPI   C4A13754   9.874   6.022   6.993 -0.2519  0.1133 -0.0647
  860loPI   C5A13755   9.660   5.836   7.426 -0.2787  0.2541  0.0475
  860loPI   C6A13756   9.679   5.954   7.836 -0.1691 -0.1066  0.0310
  860loPI   C1B13757   9.826   5.456   5.847 -0.1078 -0.2789 -0.0118
  860loPI   C2B13758   9.907   5.461   6.281  0.0652  0.1348 -0.0820
  860loPI   C3B13759   9.926   5.338   6.748 -0.0824 -0.2992  0.1123
  860loPI   C4B13760  10.103   5.592   6.957  0.1490  0.1342  0.1717
  861loPI    C113761   9.217  15.998   4.547 -0.1515 -0.0432 -0.2787
  861loPI    C213762   8.981  16.320   4.523 -0.1594 -0.0232  0.0239
  861loPI    C313763   8.831  15.956   4.451 -0.1976  0.0214 -0.1257
  861loPI   PO413764   9.314  16.072   4.838 -0.1751 -0.1242 -0.0872
  861loPI   GL113765   9.144  15.932   5.111  0.0367 -0.2950  0.0748
  861loPI   GL213766   8.867  16.026   4.996 -0.0931  0.2130  0.0804
  861loPI   C1A13767   8.965  15.713   5.448  0.2208  0.1552 -0.0072
  861loPI   C2A13768   8.701  15.743   5.712 -0.0724  0.0462 -0.2546
  861loPI   C3A13769   8.690  15.815   6.113 -0.4886 -0.0351 -0.0430
  861loPI   C4A13770   8.635  15.988   6.531 -0.0464  0.1665  0.1343
  861loPI   C5A13771   8.480  15.939   6.952 -0.0699  0.0412 -0.3685
  861loPI   C6A13772   8.743  16.004   7.227  0.2937  0.4079  0.2246
  861loPI   C1B13773   8.877  16.210   5.494 -0.0418 -0.0444 -0.0036
  861loPI   C2B13774   9.095  16.010   5.876  0.0944  0.0618  0.0912
  861loPI   C3B13775   9.184  16.001   6.358 -0.0865  0.1416 -0.1256
  861loPI   C4B13776   9.025  16.207   6.865  0.3778 -0.1324 -0.0444
  862loPI    C113777   9.937  17.201   4.554  0.3010  0.4001 -0.2415
  862loPI    C213778   9.702  17.312   4.250 -0.1680  0.2160  0.0429
  862loPI    C313779   9.756  16.923   4.330  0.1006  0.2604  0.0846
  862loPI   PO413780   9.784  17.302   4.725 -0.1097  0.0478 -0.1715
  862loPI   GL113781   9.775  17.341   5.123  0.3302  0.4456 -0.1751
  862loPI   GL213782   9.714  17.691   5.305 -0.2262 -0.0198  0.1389
  862loPI   C1A13783   9.943  17.089   5.410 -0.0135  0.1692  0.3917
  862loPI   C2A13784  10.063  16.982   5.884  0.3125 -0.1057 -0.1967
  862loPI   C3A13785  10.284  17.061   6.373  0.0292  0.0239 -0.0409
  862loPI   C4A13786  10.537  16.939   6.807 -0.0930 -0.0287 -0.0067
  862loPI   C5A13787  10.304  17.145   7.293 -0.3245  0.1585  0.2790
  862loPI   C6A13788  10.047  17.298   7.492  0.0607 -0.2587  0.0868
  862loPI   C1B13789   9.653  17.858   5.767 -0.1681 -0.1058 -0.2340
  862loPI   C2B13790   9.661  17.689   6.234  0.1042 -0.0403 -0.0069
  862loPI   C3B13791   9.568  17.768   6.678  0.0420 -0.1140  0.0566
  862loPI   C4B13792   9.309  17.905   7.138  0.0142  0.0626 -0.0062
  863loPI    C113793   9.145   4.414   4.827 -0.1450  0.3093  0.1493
  863loPI    C213794   8.804   4.220   4.906 -0.1175  0.2580  0.1426
  863loPI    C313795   8.883   4.342   4.533  0.0289 -0.0367  0.0749
  863loPI   PO413796   9.261   4.394   5.103 -0.1712  0.0785  0.3942
  863loPI   GL113797   9.555   4.665   5.458 -0.1056 -0.2682 -0.1271
  863loPI   GL213798   9.286   4.576   5.597  0.1187 -0.1537  0.1243
  863loPI   C1A13799   9.521   5.012   5.801 -0.3115 -0.0460 -0.0183
  863loPI   C2A13800   9.590   5.059   6.230  0.0499  0.1687 -0.2615
  863loPI   C3A13801   9.466   5.086   6.674 -0.2174 -0.0944  0.1674
  863loPI   C4A13802   9.392   5.218   7.102 -0.0988  0.1088 -0.0938
  863loPI   C5A13803   9.796   5.345   7.390 -0.0954  0.0356 -0.1264
  863loPI   C6A13804  10.044   5.245   7.562 -0.0413 -0.1996  0.1065
  863loPI   C1B13805   9.159   4.679   6.025 -0.0694  0.1193  0.3091
  863loPI   C2B13806   9.142   4.749   6.490 -0.2569 -0.0054 -0.0415
  863loPI   C3B13807   9.020   4.994   6.875  0.0804  0.1231  0.1015
  863loPI   C4B13808   8.888   4.992   7.362 -0.1348  0.1036 -0.1995
  864loPI    C113809  17.180   2.398   4.459  0.3505  0.2814  0.1602
  864loPI    C213810  17.022   2.765   4.474  0.1743  0.2036  0.2351
  864loPI    C313811  17.200   2.637   4.139  0.2391  0.3582  0.2101
  864loPI   PO413812  17.293   2.280   4.691  0.2359  0.1098  0.2717
  864loPI   GL113813  17.153   2.113   5.025  0.1005 -0.0349  0.1161
  864loPI   GL213814  17.170   2.233   5.234  0.1127 -0.0828  0.0773
  864loPI   C1A13815  17.040   1.805   5.459 -0.2475 -0.0225  0.0593
  864loPI   C2A13816  16.786   1.770   5.867 -0.1570  0.0992 -0.3669
  864loPI   C3A13817  16.738   1.607   6.282  0.1904 -0.2029 -0.0584
  864loPI   C4A13818  16.734   1.724   6.671 -0.2217  0.0300 -0.2126
  864loPI   C5A13819  16.672   1.512   7.038 -0.2907  0.0143 -0.1741
  864loPI   C6A13820  16.552   1.235   7.358 -0.1797 -0.0808 -0.0452
  864loPI   C1B13821  17.035   2.236   5.748  0.3153 -0.3154  0.2116
  864loPI   C2B13822  17.134   2.038   6.173  0.1182 -0.1924  0.1845
  864loPI   C3B13823  17.193   2.000   6.642 -0.4283 -0.0616 -0.0009
  864loPI   C4B13824  16.997   1.925   7.127 -0.2049  0.0986  0.0372
  865loPI    C113825  12.976   3.146   4.696 -0.1865  0.0971  0.2342
  865loPI    C213826  13.007   2.774   4.840 -0.4150  0.0455  0.1535
  865loPI    C313827  13.041   2.839   4.447  0.2337  0.1891  0.2234
  865loPI   PO413828  12.789   3.193   4.833  0.2098  0.0614 -0.2379
  865loPI   GL113829  12.700   3.283   5.317  0.0074  0.1184 -0.1031
  865loPI   GL213830  12.979   3.116   5.318  0.0041  0.0225  0.0646
  865loPI   C1A13831  12.701   3.512   5.674 -0.0386  0.1147  0.2067
  865loPI   C2A13832  12.781   3.566   6.122 -0.2829 -0.0498 -0.0070
  865loPI   C3A13833  12.969   3.694   6.487 -0.1317 -0.4627 -0.1068
  865loPI   C4A13834  12.855   3.548   6.944 -0.1498 -0.1204 -0.1232
  865loPI   C5A13835  12.898   3.612   7.400  0.0268  0.0342  0.1113
  865loPI   C6A13836  12.718   3.723   7.739 -0.0130 -0.0359  0.1609
  865loPI   C1B13837  13.079   3.002   5.675  0.0179 -0.1607 -0.1755
  865loPI   C2B13838  13.006   3.018   6.110 -0.2876  0.4079  0.2995
  865loPI   C3B13839  13.323   2.842   6.385 -0.0100  0.0917 -0.0941
  865loPI   C4B13840  13.529   3.012   6.762 -0.0414 -0.0018 -0.3303
  866loPI    C113841   0.650   4.983   4.596 -0.2478  0.0975 -0.0053
  866loPI    C213842   0.775   5.028   4.218  0.0535 -0.2541  0.0464
  866loPI    C313843   0.411   4.878   4.292 -0.0144 -0.1654 -0.1026
  866loPI   PO413844   0.854   4.945   4.762 -0.1288  0.0085  0.1206
  866loPI   GL113845   0.963   4.991   5.270  0.2609  0.1285  0.0156
  866loPI   GL213846   1.004   4.634   5.433  0.3961 -0.0961 -0.0174
  866loPI   C1A13847   0.815   5.260   5.594 -0.0300  0.3553  0.1739
  866loPI   C2A13848   0.866   5.222   6.047 -0.0265  0.1252  0.1862
  866loPI   C3A13849   0.795   5.132   6.445 -0.0551 -0.0288  0.1391
  866loPI   C4A13850   0.921   4.868   6.699 -0.1092  0.0652 -0.0460
  866loPI   C5A13851   0.762   4.969   7.173 -0.1175 -0.0214  0.2670
  866loPI   C6A13852   0.506   5.003   7.532 -0.1237  0.1157 -0.1374
  866loPI   C1B13853   0.922   4.780   5.744 -0.1422  0.0861  0.0536
  866loPI   C2B13854   0.946   4.718   6.165 -0.2411 -0.2439 -0.2229
  866loPI   C3B13855   0.925   4.377   6.437  0.0833  0.0312  0.0145
  866loPI   C4B13856   1.223   4.125   6.676  0.2649  0.0879 -0.0115
  867loPI    C113857   1.566   3.234   5.191 -0.1650  0.1617 -0.1010
  867loPI    C213858   1.775   3.337   4.866  0.0739 -0.0237 -0.0090
  867loPI    C313859   1.597   2.980   4.884 -0.1234  0.0727 -0.0235
  867loPI   PO413860   1.477   3.571   5.185 -0.0958 -0.3187 -0.0307
  867loPI   GL113861   1.528   3.877   5.424 -0.1663 -0.0113  0.2541
  867loPI   GL213862   1.436   3.911   5.702  0.0738  0.1646  0.0057
  867loPI   C1A13863   1.822   3.590   5.665  0.3147 -0.0528  0.2418
  867loPI   C2A13864   1.936   3.357   6.048  0.1692  0.1412  0.2833
  867loPI   C3A13865   1.956   3.061   6.346  0.0407  0.0580 -0.1302
  867loPI   C4A13866   1.942   2.992   6.799 -0.2180 -0.1144  0.1876
  867loPI   C5A13867   1.932   2.921   7.234 -0.0295  0.2797  0.2309
  867loPI   C6A13868   1.600   2.920   7.449  0.0315  0.2886  0.0552
  867loPI   C1B13869   1.715   4.055   6.008  0.0652  0.1659 -0.0227
  867loPI   C2B13870   1.659   4.076   6.437  0.2303 -0.0440  0.0841
  867loPI   C3B13871   1.842   3.971   6.751 -0.1499  0.4214  0.1899
  867loPI   C4B13872   2.262   3.828   6.867  0.1592  0.4444  0.0201
  868loPI    C113873  11.473  17.218   4.713 -0.1272 -0.0632  0.1777
  868loPI    C213874  11.816  17.423   4.685 -0.0638 -0.1891  0.0134
  868loPI    C313875  11.822  17.034   4.777 -0.1684 -0.1736  0.0879
  868loPI   PO413876  11.356  17.312   4.879  0.0405 -0.0093  0.0207
  868loPI   GL113877  11.134  17.238   5.134 -0.3314 -0.3243  0.1245
  868loPI   GL213878  11.012  16.945   5.298 -0.4269 -0.1025  0.0712
  868loPI   C1A13879  11.168  17.347   5.539 -0.1792 -0.1810  0.0062
  868loPI   C2A13880  11.154  17.195   5.989  0.2323  0.1498  0.0702
  868loPI   C3A13881  11.458  17.121   6.401  0.1404 -0.2456 -0.1884
  868loPI   C4A13882  11.777  17.279   6.581  0.3876 -0.2833  0.0841
  868loPI   C5A13883  12.151  17.483   6.588  0.0324 -0.0374  0.2132
  868loPI   C6A13884  12.625  17.417   6.487  0.2806 -0.1400  0.5077
  868loPI   C1B13885  10.918  16.879   5.674 -0.1072 -0.0948  0.0898
  868loPI   C2B13886  10.852  16.664   6.035  0.1491 -0.0241  0.0619
  868loPI   C3B13887  10.819  16.728   6.341  0.3102  0.1055 -0.4719
  868loPI   C4B13888  11.042  16.836   6.711 -0.0195  0.1664  0.1351
  869loPI    C113889  12.486   0.279   4.989 -0.2198 -0.2293  0.0352
  869loPI    C213890  12.265   0.384   4.672 -0.0432 -0.3221 -0.1213
  869loPI    C313891  12.620   0.556   4.733 -0.1967 -0.1039  0.1821
  869loPI   PO413892  12.297   0.273   5.197 -0.2811  0.0499  0.1320
  869loPI   GL113893  11.977   0.562   5.513  0.0795  0.0413 -0.0313
  869loPI   GL213894  11.647   0.515   5.589  0.0716 -0.0644  0.3771
  869loPI   C1A13895  12.062   0.695   5.880 -0.0050  0.0368 -0.1165
  869loPI   C2A13896  12.143   0.692   6.208 -0.2305 -0.3258 -0.1506
  869loPI   C3A13897  12.168   0.367   6.556  0.0582  0.4496  0.0800
  869loPI   C4A13898  12.390   0.106   6.822  0.0323 -0.0885 -0.0294
  869loPI   C5A13899  12.572   0.160   7.217 -0.0289  0.2873  0.0112
  869loPI   C6A13900  12.814   0.460   7.323 -0.3553 -0.2039 -0.1200
  869loPI   C1B13901  11.580   0.581   5.977 -0.0630  0.0835  0.0339
  869loPI   C2B13902  11.735   0.540   6.379 -0.0441 -0.0085  0.1585
  869loPI   C3B13903  11.577   0.533   6.739 -0.3390 -0.0910 -0.0457
  869loPI   C4B13904  11.395   0.449   7.116 -0.1001  0.2088  0.1161
  870loPI    C113905   8.259  11.630   4.198  0.0143 -0.0010  0.0788
  870loPI    C213906   8.448  11.279   4.168  0.1202  0.0547  0.0902
  870loPI    C313907   8.055  11.289   4.242  0.0915 -0.0637 -0.0420
  870loPI   PO413908   8.376  11.754   4.377 -0.1185  0.2828 -0.2546
  870loPI   GL113909   8.265  11.538   4.800  0.2111 -0.0753 -0.2438
  870loPI   GL213910   8.082  11.821   4.782  0.1868  0.2028  0.2035
  870loPI   C1A13911   8.140  11.583   5.236 -0.1568 -0.0527  0.1124
  870loPI   C2A13912   8.119  11.349   5.682  0.2977  0.2277 -0.0590
  870loPI   C3A13913   7.991  11.213   6.064 -0.2036  0.1892 -0.2131
  870loPI   C4A13914   7.717  11.200   6.406 -0.0850  0.2139 -0.2078
  870loPI   C5A13915   7.504  11.000   6.728  0.0749 -0.0313 -0.1969
  870loPI   C6A13916   7.552  10.898   7.113  0.0811  0.1345 -0.0070
  870loPI   C1B13917   7.806  11.918   5.157 -0.0780 -0.4062  0.0132
  870loPI   C2B13918   7.821  11.874   5.524 -0.0894  0.4515 -0.1864
  870loPI   C3B13919   7.904  11.930   5.952  0.2616  0.0605  0.1463
  870loPI   C4B13920   7.513  12.176   6.190 -0.1400 -0.0097  0.0975
  871loPI    C113921   8.926  17.078   4.993 -0.1488  0.2029  0.0366
  871loPI    C213922   8.833  17.156   4.612 -0.2748  0.2655  0.0796
  871loPI    C313923   8.779  16.788   4.760  0.1442  0.1374 -0.0712
  871loPI   PO413924   9.184  17.172   5.046 -0.0488 -0.3481 -0.2931
  871loPI   GL113925   9.412  17.148   5.425  0.0206  0.0181 -0.0793
  871loPI   GL213926   9.162  17.080   5.527 -0.2153  0.0415 -0.1728
  871loPI   C1A13927   9.644  17.333   5.815  0.2804 -0.0107 -0.3632
  871loPI   C2A13928   9.838  17.225   6.244 -0.2535  0.2940 -0.3982
  871loPI   C3A13929   9.700  17.274   6.662  0.0294 -0.2812  0.2355
  871loPI   C4A13930   9.404  17.360   6.942 -0.0348 -0.0324  0.1013
  871loPI   C5A13931   9.519  17.512   7.276 -0.2527  0.0927 -0.1321
  871loPI   C6A13932   9.418  17.772   7.630 -0.0705 -0.1302 -0.2539
  871loPI   C1B13933   9.080  17.165   5.880  0.1939 -0.2553 -0.1401
  871loPI   C2B13934   8.851  17.417   6.173 -0.2221 -0.0372 -0.0348
  871loPI   C3B13935   8.791  17.267   6.586  0.0679  0.3872  0.2914
  871loPI   C4B13936   8.976  16.978   6.829  0.1023 -0.3192  0.0641
  872loPI    C113937   4.689   5.943   4.701  0.1498  0.0691  0.1194
  872loPI    C213938   4.934   5.672   4.538  0.0613  0.0225  0.0625
  872loPI    C313939   4.982   6.061   4.456 -0.0694 -0.0123 -0.1891
  872loPI   PO413940   4.620   5.838   4.876  0.1645  0.0944 -0.0214
  872loPI   GL113941   4.830   5.637   5.307  0.0868 -0.1252 -0.3369
  872loPI   GL213942   5.131   5.605   5.366  0.1960  0.1500  0.2538
  872loPI   C1A13943   4.583   5.469   5.713  0.0038  0.0399  0.0953
  872loPI   C2A13944   4.466   5.192   6.131 -0.1351 -0.2964 -0.2951
  872loPI   C3A13945   4.579   5.126   6.531 -0.1240 -0.0171 -0.0612
  872loPI   C4A13946   4.449   5.000   6.897 -0.0265 -0.1684  0.1078
  872loPI   C5A13947   3.997   4.836   7.055  0.1346 -0.1268  0.0679
  872loPI   C6A13948   3.574   4.898   6.955  0.0971 -0.2099  0.1160
  872loPI   C1B13949   5.036   5.940   5.632  0.2851 -0.2712 -0.0293
  872loPI   C2B13950   4.947   6.429   5.689 -0.1224 -0.0609  0.0651
  872loPI   C3B13951   4.997   6.635   6.074  0.2055 -0.1269 -0.2298
  872loPI   C4B13952   5.155   6.731   6.506  0.2223 -0.1832 -0.1263
  873loPI    C113953   4.670  12.903   4.245 -0.1021 -0.0572  0.1220
  873loPI    C213954   4.612  12.569   4.033 -0.1720 -0.0749  0.1685
  873loPI    C313955   4.550  12.926   3.864  0.0476 -0.0805  0.0729
  873loPI   PO413956   4.555  12.833   4.507  0.2200  0.1160  0.5127
  873loPI   GL113957   4.553  12.564   4.841 -0.1475  0.0163 -0.1876
  873loPI   GL213958   4.556  12.293   4.937 -0.1774  0.0503  0.1089
  873loPI   C1A13959   4.229  12.583   5.135  0.0690 -0.0556  0.1064
  873loPI   C2A13960   4.134  12.676   5.420  0.0280  0.2348 -0.1273
  873loPI   C3A13961   3.968  12.695   5.817  0.0185  0.0049 -0.0505
  873loPI   C4A13962   3.893  12.826   6.175  0.2352  0.6294  0.2250
  873loPI   C5A13963   3.713  12.976   6.545  0.1232  0.3084 -0.3076
  873loPI   C6A13964   3.691  12.933   6.920 -0.0217 -0.2690  0.0134
  873loPI   C1B13965   4.650  12.381   5.342  0.0699  0.0299  0.2709
  873loPI   C2B13966   4.473  12.546   5.729  0.0250 -0.1244 -0.2660
  873loPI   C3B13967   4.414  12.745   6.118  0.2381 -0.1053  0.3254
  873loPI   C4B13968   4.676  12.718   6.519  0.0211 -0.0795  0.2959
  874loPI    C113969   0.650  19.326   4.801 -0.1171 -0.1339  0.1566
  874loPI    C213970   0.553  19.011   4.575 -0.0208 -0.0356 -0.0244
  874loPI    C313971   0.891  19.213   4.502  0.0136 -0.0047  0.2114
  874loPI   PO413972   0.392  19.485   4.951 -0.2176  0.3192  0.2232
  874loPI   GL113973   0.185  19.429   5.416 -0.0225  0.0891  0.1044
  874loPI   GL213974   0.494  19.347   5.391  0.2217  0.1277  0.1895
  874loPI   C1A13975  -0.123  19.308   5.715  0.2261  0.1372 -0.1916
  874loPI   C2A13976  -0.333  19.301   6.073  0.0700  0.0933  0.0538
  874loPI   C3A13977  -0.556  19.394   6.457 -0.1808 -0.5866  0.0120
  874loPI   C4A13978  -0.653  19.317   6.908 -0.3726  0.0767 -0.2753
  874loPI   C5A13979  -0.494  18.845   7.061  0.1522  0.1985 -0.0467
  874loPI   C6A13980  -0.758  18.493   7.281 -0.1507 -0.0857 -0.0262
  874loPI   C1B13981   0.744  19.675   5.603 -0.3014  0.4645  0.0181
  874loPI   C2B13982   0.926  19.997   5.873  0.0282  0.1660 -0.0714
  874loPI   C3B13983   1.019  20.077   6.361  0.1803 -0.2294 -0.0709
  874loPI   C4B13984   1.147  20.238   6.686  0.0146  0.0237 -0.0775
  875loPI    C113985  11.683   1.697   5.040  0.2340 -0.0857  0.1307
  875loPI    C213986  11.823   1.575   4.685  0.1229 -0.1462  0.1070
  875loPI    C313987  11.581   1.338   4.897 -0.1742  0.0703  0.0161
  875loPI   PO413988  11.862   1.800   5.120 -0.0453 -0.1660 -0.1452
  875loPI   GL113989  11.762   1.997   5.545 -0.0902  0.0724 -0.1854
  875loPI   GL213990  11.485   1.829   5.578 -0.2115 -0.1429 -0.0038
  875loPI   C1A13991  11.974   2.154   5.969 -0.1579 -0.1860 -0.0431
  875loPI   C2A13992  11.686   2.334   6.369  0.1887 -0.1178  0.1679
  875loPI   C3A13993  11.551   2.091   6.731 -0.0937 -0.3002  0.1391
  875loPI   C4A13994  11.478   1.916   7.085  0.1114 -0.1422  0.0041
  875loPI   C5A13995  11.405   1.689   7.419 -0.1024 -0.0509 -0.0080
  875loPI   C6A13996  11.215   1.255   7.527  0.3134  0.2085 -0.3477
  875loPI   C1B13997  11.509   2.000   6.020  0.0657 -0.2253 -0.1311
  875loPI   C2B13998  11.261   1.918   6.352 -0.3125  0.0498  0.1573
  875loPI   C3B13999  11.077   1.750   6.649  0.3349 -0.1718 -0.0810
  875loPI   C4B14000  10.956   1.850   6.963 -0.3672 -0.1291 -0.1127
  876loPI    C114001   5.334  14.055   4.239  0.1115  0.0666  0.0418
  876loPI    C214002   5.240  13.694   4.093 -0.0890  0.1516 -0.0429
  876loPI    C314003   4.953  13.967   4.151  0.0716  0.3239 -0.0507
  876loPI   PO414004   5.447  13.993   4.450 -0.3254 -0.2623  0.0012
  876loPI   GL114005   5.255  13.866   4.792 -0.1932  0.0996  0.1876
  876loPI   GL214006   5.158  14.168   4.802  0.1444 -0.1471  0.1690
  876loPI   C1A14007   5.262  13.698   5.287  0.1255  0.0785  0.0623
  876loPI   C2A14008   5.374  13.673   5.819  0.1004 -0.2281  0.3003
  876loPI   C3A14009   5.468  13.529   6.193 -0.0596 -0.0637 -0.1511
  876loPI   C4A14010   5.635  13.195   6.407  0.0726 -0.2239  0.1554
  876loPI   C5A14011   5.721  12.812   6.541 -0.0361 -0.1263  0.0388
  876loPI   C6A14012   5.574  12.393   6.360  0.0093 -0.0901  0.0998
  876loPI   C1B14013   5.260  14.317   5.128 -0.2134  0.3512  0.0998
  876loPI   C2B14014   5.373  14.514   5.598  0.1851 -0.0953 -0.3525
  876loPI   C3B14015   5.321  14.612   5.990 -0.2776 -0.1292  0.0698
  876loPI   C4B14016   5.221  14.883   6.251 -0.1920  0.2968  0.1412
  877loPI    C114017   5.310   0.117   4.735 -0.1021 -0.3634  0.1298
  877loPI    C214018   5.232   0.272   4.375  0.0611 -0.1369  0.1898
  877loPI    C314019   5.519  -0.003   4.417  0.0337 -0.1724  0.1451
  877loPI   PO414020   5.177   0.315   4.871  0.1022  0.0646 -0.1158
  877loPI   GL114021   5.083   0.462   5.248 -0.1166 -0.2061 -0.1608
  877loPI   GL214022   4.969   0.780   5.400  0.2648  0.3386  0.3758
  877loPI   C1A14023   5.224   0.308   5.663  0.1151 -0.0926  0.3719
  877loPI   C2A14024   5.335   0.022   5.922 -0.3312 -0.0456 -0.5466
  877loPI   C3A14025   5.738  -0.012   6.081  0.1552 -0.0171  0.4533
  877loPI   C4A14026   5.987  -0.238   6.380 -0.0458 -0.0560 -0.2070
  877loPI   C5A14027   6.366  -0.179   6.632  0.0765  0.1420 -0.0106
  877loPI   C6A14028   6.437  -0.179   7.085 -0.0773 -0.0421 -0.0059
  877loPI   C1B14029   4.846   0.568   5.752 -0.4920 -0.2091 -0.1009
  877loPI   C2B14030   4.996   0.597   6.105 -0.0824 -0.0804 -0.0672
  877loPI   C3B14031   5.268   0.758   6.518  0.0773  0.2998  0.1647
  877loPI   C4B14032   5.363   0.912   6.879  0.2834  0.2312 -0.0729
  878loPI    C114033  14.842  13.336   4.748  0.1502  0.0915  0.0305
  878loPI    C214034  15.026  13.081   4.501  0.1460  0.0921  0.0269
  878loPI    C314035  15.132  13.466   4.505 -0.0354  0.1461 -0.1651
  878loPI   PO414036  14.617  13.263   4.769  0.3388  0.1503  0.0548
  878loPI   GL114037  14.319  13.330   5.019  0.0076  0.0798 -0.0098
  878loPI   GL214038  14.214  13.558   5.199  0.0348 -0.1301 -0.2062
  878loPI   C1A14039  14.535  13.113   5.394 -0.2058 -0.1374  0.1550
  878loPI   C2A14040  14.885  12.980   5.533 -0.0987 -0.0377 -0.1468
  878loPI   C3A14041  14.707  12.967   5.937  0.1004  0.1218 -0.1051
  878loPI   C4A14042  14.899  12.956   6.388  0.3909 -0.1999  0.0612
  878loPI   C5A14043  14.679  13.004   6.666  0.1557  0.0547  0.1223
  878loPI   C6A14044  14.333  13.053   6.977 -0.0065 -0.0484  0.0023
  878loPI   C1B14045  14.185  13.385   5.552 -0.0296 -0.0275 -0.0763
  878loPI   C2B14046  14.476  13.481   5.902  0.0023 -0.0339  0.1890
  878loPI   C3B14047  14.818  13.390   6.211 -0.0607  0.3149  0.0647
  878loPI   C4B14048  14.998  13.396   6.689 -0.0297 -0.1172 -0.1398
  879loPI    C114049  14.045   7.261   4.570  0.1543  0.0878 -0.1154
  879loPI    C214050  13.922   7.110   4.220  0.0123  0.0697 -0.0587
  879loPI    C314051  13.915   7.505   4.281  0.1069  0.0785 -0.1020
  879loPI   PO414052  13.862   7.136   4.734  0.0253  0.2935 -0.1795
  879loPI   GL114053  13.973   6.941   5.078 -0.1978  0.3262  0.1580
  879loPI   GL214054  13.718   6.986   5.351 -0.0549 -0.2190  0.1254
  879loPI   C1A14055  14.168   7.177   5.426 -0.0239 -0.0652 -0.1664
  879loPI   C2A14056  14.243   7.201   5.798 -0.3945  0.0444 -0.2486
  879loPI   C3A14057  14.255   7.031   6.183  0.0508 -0.1278 -0.0667
  879loPI   C4A14058  14.335   7.148   6.660  0.0457  0.0159 -0.2500
  879loPI   C5A14059  14.177   6.942   7.102 -0.3207 -0.2565 -0.0158
  879loPI   C6A14060  13.938   6.932   7.447  0.2438 -0.0186 -0.2641
  879loPI   C1B14061  13.898   6.871   5.691 -0.2218 -0.2910  0.0094
  879loPI   C2B14062  13.788   6.605   6.172  0.0437 -0.3223  0.0862
  879loPI   C3B14063  14.007   6.736   6.542 -0.0026 -0.0946  0.0175
  879loPI   C4B14064  14.299   6.608   6.758  0.4152  0.0027 -0.2328
  880loPI    C114065   8.565   3.502   5.033  0.1992 -0.0089  0.0394
  880loPI    C214066   8.700   3.365   4.683  0.3030  0.0602  0.0518
  880loPI    C314067   8.764   3.156   5.018 -0.2956 -0.2999 -0.0429
  880loPI   PO414068   8.692   3.749   5.095 -0.3411  0.1154  0.3907
  880loPI   GL114069   9.041   3.942   5.336 -0.1343  0.0202 -0.1410
  880loPI   GL214070   9.308   3.751   5.488 -0.4036 -0.0123 -0.0237
  880loPI   C1A14071   9.020   4.110   5.752 -0.3550  0.0862  0.0454
  880loPI   C2A14072   9.222   4.216   6.117 -0.0959  0.0275 -0.1621
  880loPI   C3A14073   9.197   4.227   6.512  0.1827 -0.3483  0.0454
  880loPI   C4A14074   9.023   4.414   6.936  0.1166 -0.1744 -0.0171
  880loPI   C5A14075   9.017   4.493   7.451  0.3127 -0.0789 -0.0498
  880loPI   C6A14076   9.240   4.250   7.839  0.2350 -0.0506 -0.3961
  880loPI   C1B14077   9.265   3.582   5.761  0.2928  0.0143 -0.1689
  880loPI   C2B14078   9.136   3.713   6.184  0.0303 -0.2200 -0.0389
  880loPI   C3B14079   9.239   3.710   6.593 -0.0998  0.1524 -0.2174
  880loPI   C4B14080   9.158   3.874   6.956 -0.0545 -0.0954 -0.0569
  881loPI    C114081  19.612  17.029   4.542  0.1816 -0.1697 -0.0930
  881loPI    C214082  19.432  17.385   4.564  0.2965 -0.1207  0.0668
  881loPI    C314083  19.214  17.054   4.513  0.1898 -0.0277 -0.0868
  881loPI   PO414084  19.762  17.110   4.849 -0.1338  0.0579 -0.1111
  881loPI   GL114085  19.939  17.294   5.281  0.0919 -0.0351 -0.0866
  881loPI   GL214086  20.164  17.028   5.193 -0.0692  0.2093  0.1331
  881loPI   C1A14087  19.789  17.032   5.585 -0.0119  0.0153  0.0729
  881loPI   C2A14088  19.505  16.814   5.983  0.2212  0.1678  0.1557
  881loPI   C3A14089  19.236  16.896   6.417  0.3130  0.3034  0.1991
  881loPI   C4A14090  18.953  16.907   6.668  0.2929 -0.0986 -0.1565
  881loPI   C5A14091  18.616  17.046   6.777 -0.1192  0.1291  0.1880
  881loPI   C6A14092  18.376  17.342   6.963 -0.1013  0.3705 -0.3030
  881loPI   C1B14093  20.314  16.941   5.678 -0.4944 -0.2301  0.2588
  881loPI   C2B14094  20.429  16.932   6.117  0.0005  0.2832 -0.2669
  881loPI   C3B14095  20.428  17.064   6.498  0.0579 -0.2269 -0.0483
  881loPI   C4B14096  20.340  17.189   6.917  0.2065  0.2699 -0.1260
  882loPI    C114097   1.976  16.871   4.681 -0.0629 -0.0635 -0.0083
  882loPI    C214098   1.705  17.143   4.792 -0.1363 -0.1764  0.0918
  882loPI    C314099   1.775  17.077   4.403 -0.2731 -0.1671  0.0649
  882loPI   PO414100   1.987  16.707   4.843  0.0515 -0.0340 -0.0670
  882loPI   GL114101   2.036  16.695   5.242 -0.0597  0.2652  0.0132
  882loPI   GL214102   1.887  17.009   5.265  0.1753 -0.0175 -0.1082
  882loPI   C1A14103   2.124  16.528   5.647  0.1708  0.0923  0.0487
  882loPI   C2A14104   2.043  16.723   5.981  0.1774  0.0487  0.0156
  882loPI   C3A14105   2.291  16.880   6.335 -0.0389 -0.0560 -0.1232
  882loPI   C4A14106   2.002  17.019   6.701  0.0416 -0.3267 -0.0659
  882loPI   C5A14107   1.957  16.975   7.129  0.2424 -0.0056  0.1530
  882loPI   C6A14108   2.151  16.996   7.597 -0.2595 -0.2392  0.2099
  882loPI   C1B14109   2.013  17.104   5.707  0.1700 -0.4629 -0.0812
  882loPI   C2B14110   1.934  17.248   6.277  0.2963 -0.0061 -0.2355
  882loPI   C3B14111   1.899  17.594   6.560  0.3278 -0.1685  0.0171
  882loPI   C4B14112   1.909  17.561   6.943  0.0472 -0.1028  0.1039
  883loPI    C114113  19.100  10.602   3.862  0.0321  0.0568 -0.0973
  883loPI    C214114  19.217  10.219   3.868  0.1000  0.0792  0.2852
  883loPI    C314115  19.448  10.497   3.695  0.1555 -0.0191  0.1999
  883loPI   PO414116  19.089  10.578   4.207  0.2792 -0.1960  0.0592
  883loPI   GL114117  18.939  10.442   4.565  0.0618 -0.0425 -0.3200
  883loPI   GL214118  18.870  10.768   4.673  0.1244  0.0811  0.1632
  883loPI   C1A14119  19.166  10.508   4.969  0.1634  0.2187  0.2270
  883loPI   C2A14120  19.231  10.335   5.350  0.0644  0.0116 -0.0494
  883loPI   C3A14121  19.115  10.271   5.704 -0.0425  0.0366 -0.1649
  883loPI   C4A14122  19.122  10.333   6.199 -0.0546 -0.1747  0.0738
  883loPI   C5A14123  19.032  10.244   6.677 -0.3832  0.2485 -0.0260
  883loPI   C6A14124  19.038  10.502   7.034 -0.0768 -0.1512 -0.1177
  883loPI   C1B14125  19.007  10.957   5.040  0.2184  0.0548  0.1705
  883loPI   C2B14126  19.039  10.798   5.422  0.0050 -0.0428 -0.2601
  883loPI   C3B14127  18.994  10.801   5.861 -0.4263  0.1598  0.1723
  883loPI   C4B14128  18.954  10.793   6.256 -0.1332 -0.0467  0.0970
  884loPI    C114129   1.083  17.005   4.843 -0.0232  0.1783 -0.1507
  884loPI    C214130   1.250  17.232   4.559  0.0044  0.2625 -0.0677
  884loPI    C314131   0.867  17.122   4.528  0.1260 -0.0989 -0.3608
  884loPI   PO414132   1.278  17.037   5.077  0.0243  0.0363 -0.2338
  884loPI   GL114133   1.493  16.748   5.471 -0.0287  0.0860 -0.1375
  884loPI   GL214134   1.634  16.418   5.450 -0.0996  0.3508 -0.1471
  884loPI   C1A14135   1.189  16.521   5.722 -0.0231 -0.1753 -0.2169
  884loPI   C2A14136   1.179  16.451   6.170  0.1872 -0.1996  0.2816
  884loPI   C3A14137   1.154  16.567   6.549  0.1404 -0.0066  0.1683
  884loPI   C4A14138   1.207  16.769   6.893  0.2831 -0.1532 -0.3081
  884loPI   C5A14139   1.263  16.947   7.357  0.1174  0.0181  0.0940
  884loPI   C6A14140   0.936  16.850   7.736 -0.0820 -0.2317  0.2224
  884loPI   C1B14141   1.639  16.387   5.909 -0.1931  0.1263  0.1041
  884loPI   C2B14142   1.630  16.497   6.349  0.2518  0.1154 -0.4137
  884loPI   C3B14143   1.638  16.629   6.775  0.1108 -0.2568 -0.0895
  884loPI   C4B14144   1.599  16.540   7.191  0.0638 -0.0809 -0.0092
  885loPI    C114145  18.184   5.088   4.893 -0.0770  0.2266  0.1292
  885loPI    C214146  18.366   5.118   4.538 -0.3069  0.2060  0.0075
  885loPI    C314147  18.562   4.965   4.852 -0.1699  0.0282 -0.1627
  885loPI   PO414148  18.063   5.327   4.871 -0.0121  0.1420 -0.1216
  885loPI   GL114149  17.857   5.601   5.125  0.4259  0.1399  0.0637
  885loPI   GL214150  18.186   5.735   5.148 -0.1512 -0.2106 -0.1738
  885loPI   C1A14151  17.806   5.815   5.431  0.0341 -0.0232 -0.2021
  885loPI   C2A14152  17.752   6.042   5.752 -0.0498  0.2307 -0.2420
  885loPI   C3A14153  17.835   6.023   6.115 -0.0205  0.0281 -0.2096
  885loPI   C4A14154  17.679   5.913   6.543  0.1391  0.2470 -0.1545
  885loPI   C5A14155  17.606   5.978   6.956 -0.1297  0.0905  0.1682
  885loPI   C6A14156  17.287   5.874   7.195 -0.0213 -0.2624  0.0982
  885loPI   C1B14157  18.283   5.779   5.607 -0.0761 -0.0843  0.0922
  885loPI   C2B14158  18.283   5.839   5.994  0.1512 -0.2342  0.0441
  885loPI   C3B14159  18.193   5.824   6.447  0.0820 -0.0222  0.0745
  885loPI   C4B14160  17.967   5.607   6.831  0.2656 -0.2558 -0.1936
  886loPI    C114161  10.200   6.030   4.767  0.2655 -0.0247 -0.1437
  886loPI    C214162  10.532   6.159   4.584  0.2883 -0.0233 -0.1012
  886loPI    C314163  10.212   6.057   4.368  0.2338  0.2055 -0.1304
  886loPI   PO414164  10.097   6.151   4.979 -0.2395 -0.2246 -0.0675
  886loPI   GL114165  10.124   6.182   5.345  0.2298 -0.0789 -0.0799
  886loPI   GL214166  10.515   6.214   5.200  0.0192  0.2241  0.1084
  886loPI   C1A14167  10.143   6.332   5.771 -0.3885 -0.1863 -0.1580
  886loPI   C2A14168  10.249   6.297   6.094 -0.0647  0.1547  0.0801
  886loPI   C3A14169  10.411   6.207   6.516 -0.1480  0.2007  0.0519
  886loPI   C4A14170  10.381   6.017   6.916 -0.1608  0.2577  0.0077
  886loPI   C5A14171  10.146   5.870   7.373  0.0450  0.2220 -0.0576
  886loPI   C6A14172  10.343   5.617   7.687  0.0511 -0.1504  0.0115
  886loPI   C1B14173  10.635   6.095   5.640  0.3278  0.0022  0.0629
  886loPI   C2B14174  10.705   6.148   6.119 -0.2746  0.1194 -0.1535
  886loPI   C3B14175  10.846   5.972   6.566 -0.1736 -0.0499 -0.0090
  886loPI   C4B14176  10.936   5.870   6.995 -0.3941 -0.1626  0.3340
  887loPI    C114177  11.059  19.108   4.691 -0.0566 -0.3137 -0.1910
  887loPI    C214178  11.280  19.092   4.358  0.0647  0.0458 -0.1315
  887loPI    C314179  11.070  19.422   4.444  0.0941 -0.0145  0.1847
  887loPI   PO414180  11.188  19.053   4.852  0.0060  0.3360  0.1306
  887loPI   GL114181  11.155  19.135   5.215 -0.1215  0.0107  0.3218
  887loPI   GL214182  10.874  19.252   5.322 -0.1726  0.2772  0.3592
  887loPI   C1A14183  11.217  19.098   5.711 -0.1148  0.3836  0.0220
  887loPI   C2A14184  10.984  18.942   6.108 -0.2112 -0.1686 -0.1909
  887loPI   C3A14185  10.788  18.663   6.262 -0.3468  0.1398  0.1171
  887loPI   C4A14186  10.778  18.391   6.633 -0.0790 -0.0722 -0.0747
  887loPI   C5A14187  10.996  18.257   7.008 -0.0334  0.2198  0.0312
  887loPI   C6A14188  11.095  18.121   7.400  0.2174  0.1972  0.0983
  887loPI   C1B14189  10.645  19.123   5.692 -0.2732 -0.2347 -0.2184
  887loPI   C2B14190  10.526  19.139   6.097  0.3072  0.0462 -0.0133
  887loPI   C3B14191  10.305  18.845   6.387  0.1564 -0.0593  0.0567
  887loPI   C4B14192  10.224  18.808   6.816  0.3488 -0.0008 -0.0211
  888loPI    C114193   3.884   0.991   4.716  0.1519  0.3299 -0.2273
  888loPI    C214194   3.636   0.765   4.499  0.0635  0.1565  0.0496
  888loPI    C314195   4.001   0.850   4.360 -0.0654  0.2220 -0.2577
  888loPI   PO414196   3.724   1.236   4.771  0.3819 -0.2327 -0.1011
  888loPI   GL114197   3.743   1.548   5.245 -0.1963 -0.1701  0.0416
  888loPI   GL214198   3.814   1.697   5.514  0.0630  0.1042 -0.2105
  888loPI   C1A14199   3.422   1.375   5.524  0.0782  0.4620  0.1724
  888loPI   C2A14200   3.477   1.432   5.912  0.0061 -0.2276 -0.0818
  888loPI   C3A14201   3.713   1.280   6.343  0.0175  0.2457  0.1235
  888loPI   C4A14202   3.755   0.957   6.722 -0.0462 -0.0010  0.1425
  888loPI   C5A14203   3.756   0.974   7.139  0.1587  0.3436 -0.1245
  888loPI   C6A14204   3.980   0.958   7.506 -0.3203  0.0949  0.2086
  888loPI   C1B14205   3.732   2.002   5.870  0.1304  0.1652  0.3970
  888loPI   C2B14206   3.554   1.816   6.276  0.1917  0.0613 -0.3362
  888loPI   C3B14207   3.251   1.615   6.564  0.1748 -0.0212 -0.0919
  888loPI   C4B14208   3.080   1.588   6.994  0.1950 -0.2845 -0.1780
  889loPI    C114209   0.714   3.598   4.708 -0.1468 -0.1751  0.1293
  889loPI    C214210   0.356   3.481   4.573 -0.0379 -0.0774 -0.2561
  889loPI    C314211   0.657   3.541   4.316  0.2325 -0.0729  0.0550
  889loPI   PO414212   0.698   3.566   4.944  0.1064 -0.0272 -0.0198
  889loPI   GL114213   0.600   3.337   5.319 -0.1929  0.2436 -0.3281
  889loPI   GL214214   0.992   3.257   5.405 -0.1202  0.3089  0.2129
  889loPI   C1A14215   0.656   3.319   5.709 -0.1760 -0.1304 -0.0583
  889loPI   C2A14216   0.755   3.459   6.145  0.1566 -0.2445 -0.1337
  889loPI   C3A14217   0.641   3.853   6.411 -0.2265 -0.1287 -0.1271
  889loPI   C4A14218   0.659   3.977   6.847 -0.1907 -0.1381  0.1174
  889loPI   C5A14219   0.940   4.241   7.069  0.0216 -0.2860  0.1633
  889loPI   C6A14220   1.120   4.527   6.941 -0.0960 -0.0259  0.6107
  889loPI   C1B14221   1.187   3.433   5.778  0.0464  0.3289 -0.2647
  889loPI   C2B14222   1.417   3.591   6.083 -0.1954 -0.0312  0.0877
  889loPI   C3B14223   1.720   3.498   6.468 -0.3190  0.3587  0.2139
  889loPI   C4B14224   2.116   3.453   6.603 -0.4003 -0.0763 -0.1304
  890loPI    C114225  11.708   9.831   4.555 -0.3251 -0.0650 -0.0781
  890loPI    C214226  11.347   9.681   4.635 -0.3342 -0.0550 -0.1010
  890loPI    C314227  11.513   9.621   4.276 -0.2876 -0.1100 -0.0705
  890loPI   PO414228  11.740   9.902   4.832 -0.2442 -0.3886  0.0789
  890loPI   GL114229  11.801   9.769   5.255 -0.0692 -0.3197  0.1734
  890loPI   GL214230  11.572  10.068   5.250 -0.5309 -0.2067 -0.0275
  890loPI   C1A14231  11.952   9.570   5.560  0.2116 -0.1591 -0.1626
  890loPI   C2A14232  11.948   9.540   5.869  0.0396 -0.0944  0.0946
  890loPI   C3A14233  12.014   9.495   6.360  0.1103 -0.0622  0.0046
  890loPI   C4A14234  11.883   9.492   6.757 -0.0019 -0.1078 -0.0021
  890loPI   C5A14235  11.956   9.713   7.128  0.0791 -0.0212 -0.0697
  890loPI   C6A14236  12.199  10.027   7.401 -0.3636 -0.2052 -0.0090
  890loPI   C1B14237  11.433   9.967   5.605 -0.1823 -0.2565  0.1644
  890loPI   C2B14238  11.462   9.486   5.674  0.2428  0.2006  0.0883
  890loPI   C3B14239  11.597   9.286   6.047  0.1501 -0.3527 -0.0266
  890loPI   C4B14240  11.459   9.405   6.381 -0.1497 -0.1147 -0.0658
  891loPI    C114241  18.962  14.364   4.464  0.0007  0.2228  0.3266
  891loPI    C214242  18.814  14.359   4.092 -0.2229  0.1062  0.4151
  891loPI    C314243  19.205  14.419   4.151 -0.2108  0.2828  0.1706
  891loPI   PO414244  18.703  14.582   4.571 -0.0034  0.1923 -0.0186
  891loPI   GL114245  18.566  14.545   4.924  0.1402  0.0011 -0.3667
  891loPI   GL214246  18.770  14.251   4.958 -0.0585  0.1793  0.2683
  891loPI   C1A14247  18.580  14.733   5.348 -0.0469 -0.0322 -0.0457
  891loPI   C2A14248  18.685  14.675   5.806 -0.0156 -0.0012  0.1699
  891loPI   C3A14249  18.897  14.524   6.039  0.0885  0.2809  0.0229
  891loPI   C4A14250  18.697  14.541   6.459 -0.2998  0.2587  0.0980
  891loPI   C5A14251  18.532  14.247   6.729 -0.1285 -0.2652  0.1308
  891loPI   C6A14252  18.410  13.810   6.599 -0.0383 -0.2448  0.1836
  891loPI   C1B14253  18.750  14.218   5.376 -0.1450  0.0550 -0.2704
  891loPI   C2B14254  19.029  14.428   5.603  0.1068 -0.1066  0.3287
  891loPI   C3B14255  19.144  14.868   5.672  0.0609 -0.1545 -0.1920
  891loPI   C4B14256  19.020  15.073   6.101 -0.1125  0.0269  0.2778
  892loPI    C114257  19.098  16.684   4.812 -0.0251  0.0619  0.0756
  892loPI    C214258  19.466  16.548   4.733  0.0173  0.2494 -0.0562
  892loPI    C314259  19.148  16.382   4.555  0.0447  0.1422 -0.0057
  892loPI   PO414260  19.048  16.623   5.106  0.1723 -0.1363  0.0311
  892loPI   GL114261  19.143  16.592   5.541 -0.0827 -0.0576 -0.2338
  892loPI   GL214262  19.136  16.928   5.565  0.2916 -0.5479  0.2009
  892loPI   C1A14263  19.087  16.491   6.065 -0.1951  0.2013  0.0138
  892loPI   C2A14264  19.251  16.408   6.500 -0.1652 -0.2826  0.3203
  892loPI   C3A14265  19.241  16.346   6.869  0.1046 -0.0292  0.0059
  892loPI   C4A14266  19.069  16.042   7.293 -0.1161 -0.1125  0.1384
  892loPI   C5A14267  18.617  15.780   7.394 -0.0452  0.2834 -0.0246
  892loPI   C6A14268  18.300  15.454   7.560 -0.0604 -0.1866 -0.1834
  892loPI   C1B14269  18.932  16.947   5.988  0.4830  0.0045 -0.2033
  892loPI   C2B14270  18.683  17.057   6.288  0.0513 -0.2088  0.1018
  892loPI   C3B14271  18.439  17.436   6.452  0.0643  0.0035 -0.1761
  892loPI   C4B14272  18.010  17.410   6.497 -0.0579  0.0800  0.1819
  893loPI    C114273   3.139   1.980   4.294 -0.0385 -0.1936  0.0116
  893loPI    C214274   3.191   2.120   3.923  0.1530 -0.1065  0.0701
  893loPI    C314275   2.824   2.031   4.053  0.0502  0.1495 -0.0378
  893loPI   PO414276   3.206   2.113   4.464  0.0811 -0.0241  0.0236
  893loPI   GL114277   3.344   2.040   4.900 -0.0448  0.2192  0.0788
  893loPI   GL214278   3.682   2.123   5.039  0.1170 -0.1047 -0.2393
  893loPI   C1A14279   3.349   1.804   5.286 -0.3929 -0.4013 -0.1551
  893loPI   C2A14280   3.293   1.876   5.666 -0.3456 -0.1296  0.0341
  893loPI   C3A14281   2.996   1.910   6.085 -0.0013 -0.0470  0.2566
  893loPI   C4A14282   3.099   2.061   6.586  0.2274 -0.0289 -0.1549
  893loPI   C5A14283   3.183   2.062   6.954  0.1695  0.0635  0.0854
  893loPI   C6A14284   3.156   2.148   7.384 -0.2603  0.1541 -0.0377
  893loPI   C1B14285   3.638   2.292   5.510  0.2924 -0.0297 -0.0888
  893loPI   C2B14286   3.431   2.437   5.857  0.1043 -0.2829  0.1638
  893loPI   C3B14287   3.487   2.330   6.242  0.1160 -0.0294 -0.2491
  893loPI   C4B14288   3.437   2.405   6.684  0.0803 -0.1925 -0.0131
  894loPI    C114289   3.219   6.597   4.736  0.1320  0.1005  0.0140
  894loPI    C214290   3.357   6.584   4.361  0.1546  0.1519  0.0204
  894loPI    C314291   3.306   6.245   4.568 -0.0118  0.1112 -0.0848
  894loPI   PO414292   3.405   6.813   4.802  0.1975 -0.1215 -0.2534
  894loPI   GL114293   3.544   6.846   5.177  0.1053  0.1064 -0.2512
  894loPI   GL214294   3.164   6.963   5.224  0.0341 -0.1035 -0.1995
  894loPI   C1A14295   3.570   6.609   5.518 -0.0837  0.1349 -0.2210
  894loPI   C2A14296   3.509   6.752   5.907  0.2769 -0.1518 -0.0493
  894loPI   C3A14297   3.517   6.932   6.279 -0.2835 -0.1118 -0.1674
  894loPI   C4A14298   3.821   7.122   6.684 -0.5390 -0.3096 -0.0059
  894loPI   C5A14299   3.645   6.951   7.065  0.4093 -0.1437 -0.0574
  894loPI   C6A14300   3.188   6.968   7.187  0.0865  0.2936  0.0289
  894loPI   C1B14301   3.054   6.931   5.661  0.0462 -0.0220  0.1539
  894loPI   C2B14302   3.031   6.857   6.074  0.0756 -0.0575 -0.1710
  894loPI   C3B14303   2.890   7.069   6.423  0.3286  0.0474  0.1351
  894loPI   C4B14304   2.813   7.060   6.874 -0.1379 -0.1131 -0.1242
  895loPI    C114305   0.614  11.200   3.963 -0.0411 -0.0934  0.1056
  895loPI    C214306   0.620  11.037   3.598  0.0720  0.2124 -0.0322
  895loPI    C314307   0.338  11.304   3.694 -0.0241  0.0501  0.1429
  895loPI   PO414308   0.691  11.018   4.158 -0.0924  0.0088  0.0627
  895loPI   GL114309   0.889  11.055   4.533  0.1428 -0.0451  0.1313
  895loPI   GL214310   1.100  11.298   4.553  0.5701 -0.0157 -0.0178
  895loPI   C1A14311   0.507  10.924   4.863 -0.2851 -0.0096 -0.4039
  895loPI   C2A14312   0.223  10.755   5.187 -0.0287 -0.0229  0.0789
  895loPI   C3A14313   0.080  10.699   5.588  0.0352  0.1710  0.2129
  895loPI   C4A14314   0.034  10.575   5.955 -0.0447  0.1809 -0.3066
  895loPI   C5A14315   0.432  10.575   6.275  0.2043 -0.0246 -0.0023
  895loPI   C6A14316   0.790  10.469   6.238 -0.0587  0.2129  0.0510
  895loPI   C1B14317   0.965  11.414   4.902  0.0770  0.0674 -0.1507
  895loPI   C2B14318   0.739  11.477   5.317  0.0230 -0.0407  0.0011
  895loPI   C3B14319   0.670  11.860   5.585 -0.0675 -0.0332 -0.2053
  895loPI   C4B14320   0.632  12.353   5.763  0.0599  0.3028  0.1024
  896loPI    C114321   6.405  18.388   4.408 -0.2990 -0.2726 -0.0930
  896loPI    C214322   6.646  18.546   4.130 -0.1265  0.0265  0.2180
  896loPI    C314323   6.257  18.639   4.135 -0.2659 -0.4727 -0.2974
  896loPI   PO414324   6.526  18.437   4.660 -0.0961  0.1938 -0.1130
  896loPI   GL114325   6.764  18.437   5.074 -0.1670 -0.1356  0.1832
  896loPI   GL214326   6.921  18.706   5.303 -0.0800 -0.0420  0.1164
  896loPI   C1A14327   6.801  18.298   5.509 -0.0934  0.0539  0.0100
  896loPI   C2A14328   6.830  18.484   5.856 -0.2629 -0.1250 -0.2422
  896loPI   C3A14329   6.872  18.453   6.318 -0.3465 -0.0882  0.4214
  896loPI   C4A14330   6.864  18.400   6.719  0.0009  0.1021  0.1082
  896loPI   C5A14331   6.852  18.566   7.117 -0.0373 -0.1695  0.0059
  896loPI   C6A14332   6.720  18.841   7.455  0.1556 -0.1459 -0.1282
  896loPI   C1B14333   6.491  18.742   5.482  0.0049  0.0033  0.1038
  896loPI   C2B14334   6.392  18.833   5.911 -0.3127 -0.3176 -0.0418
  896loPI   C3B14335   6.525  18.837   6.398  0.4351 -0.0584  0.1479
  896loPI   C4B14336   6.743  18.906   6.740  0.3165 -0.2884 -0.0017
  897loPI    C114337  14.162   8.233   4.801 -0.0450  0.1108  0.2456
  897loPI    C214338  13.829   8.393   4.645  0.0734  0.0405 -0.0890
  897loPI    C314339  13.803   8.097   4.914 -0.1348  0.1226 -0.0171
  897loPI   PO414340  14.407   8.457   4.782  0.1088  0.1166 -0.2209
  897loPI   GL114341  14.491   8.747   5.094 -0.0532 -0.1806  0.0267
  897loPI   GL214342  14.411   8.998   5.314 -0.0444  0.2897 -0.1229
  897loPI   C1A14343  14.479   8.549   5.519 -0.3532  0.0104  0.1620
  897loPI   C2A14344  14.558   8.549   5.919 -0.1792  0.0796  0.1439
  897loPI   C3A14345  14.421   8.549   6.306  0.1420  0.0475  0.0512
  897loPI   C4A14346  14.539   8.361   6.761 -0.2627  0.2108 -0.2972
  897loPI   C5A14347  14.645   8.421   7.108  0.1455 -0.0354 -0.0207
  897loPI   C6A14348  15.228   8.412   7.287 -0.0854  0.1263  0.1501
  897loPI   C1B14349  14.569   9.017   5.694 -0.3078 -0.2072  0.1938
  897loPI   C2B14350  14.345   9.077   6.133 -0.1547  0.0291 -0.0387
  897loPI   C3B14351  14.428   9.024   6.527 -0.2759  0.2096  0.2314
  897loPI   C4B14352  14.356   8.852   6.993 -0.2372 -0.2497  0.1991
  898loPI    C114353   4.515   2.467   4.854 -0.1060  0.3048  0.2100
  898loPI    C214354   4.617   2.644   4.510 -0.0752  0.2219  0.1760
  898loPI    C314355   4.277   2.435   4.534 -0.2289  0.4788  0.2825
  898loPI   PO414356   4.714   2.400   4.960  0.1238  0.1172 -0.1445
  898loPI   GL114357   4.782   2.520   5.420 -0.1535  0.0227  0.1135
  898loPI   GL214358   4.910   2.198   5.355 -0.1381  0.1587  0.1770
  898loPI   C1A14359   4.525   2.339   5.739  0.0792  0.1982  0.2699
  898loPI   C2A14360   4.486   2.396   6.167  0.0051 -0.0970 -0.1095
  898loPI   C3A14361   4.371   2.306   6.557 -0.0387 -0.0461 -0.2473
  898loPI   C4A14362   4.146   2.438   6.922  0.1346 -0.0824 -0.0712
  898loPI   C5A14363   3.665   2.358   7.118 -0.1812  0.0908  0.0133
  898loPI   C6A14364   3.318   2.532   7.139  0.0648 -0.1684 -0.0374
  898loPI   C1B14365   4.956   2.108   5.807 -0.0609 -0.0560  0.0126
  898loPI   C2B14366   4.887   2.056   6.296  0.0857  0.2299  0.0325
  898loPI   C3B14367   4.764   2.152   6.708 -0.1358 -0.0438  0.2316
  898loPI   C4B14368   4.598   2.286   7.051 -0.1455  0.1679 -0.0983
  899loPI    C114369  14.417  18.835   4.894 -0.0509 -0.0103  0.0856
  899loPI    C214370  14.714  18.985   4.672 -0.0108 -0.1257  0.0610
  899loPI    C314371  14.603  18.603   4.627 -0.1947 -0.0701  0.0362
  899loPI   PO414372  14.572  18.917   5.155 -0.0229 -0.2909  0.0639
  899loPI   GL114373  14.747  18.834   5.586  0.1457  0.1398 -0.2332
  899loPI   GL214374  14.948  18.595   5.488  0.1002  0.0740 -0.1789
  899loPI   C1A14375  14.824  18.607   5.977  0.0388 -0.1446 -0.0794
  899loPI   C2A14376  14.941  18.781   6.334  0.0496  0.0718 -0.0145
  899loPI   C3A14377  15.203  18.620   6.685  0.1092  0.0173 -0.4068
  899loPI   C4A14378  15.290  18.633   7.093 -0.3411  0.0305  0.3897
  899loPI   C5A14379  15.419  18.821   7.481 -0.0634 -0.3882  0.1434
  899loPI   C6A14380  15.186  19.228   7.676 -0.1619 -0.1787  0.1421
  899loPI   C1B14381  15.281  18.757   5.877  0.0373  0.4540  0.2322
  899loPI   C2B14382  15.325  18.495   6.225 -0.0171  0.2004 -0.0455
  899loPI   C3B14383  15.592  18.231   6.236 -0.1108  0.0800  0.3486
  899loPI   C4B14384  15.524  17.952   6.489 -0.2431 -0.0061 -0.1158
  900loPI    C114385   6.822  17.871   4.638  0.0143 -0.0706 -0.1288
  900loPI    C214386   6.797  18.109   4.318  0.1909  0.1295  0.0041
  900loPI    C314387   6.998  18.230   4.642 -0.0576 -0.0357  0.2236
  900loPI   PO414388   6.638  17.854   4.715 -0.3504  0.3571 -0.0116
  900loPI   GL114389   6.530  17.986   5.056 -0.1445 -0.0709 -0.3314
  900loPI   GL214390   6.770  17.859   5.256  0.1176  0.0164  0.1556
  900loPI   C1A14391   6.363  18.283   5.322  0.0285  0.1499 -0.0618
  900loPI   C2A14392   6.318  18.329   5.749 -0.0869 -0.1830 -0.1837
  900loPI   C3A14393   6.409  18.439   6.186  0.1664  0.0958 -0.1335
  900loPI   C4A14394   6.355  18.381   6.555 -0.1935 -0.0386  0.0446
  900loPI   C5A14395   6.308  18.480   7.002  0.3623  0.3372  0.1684
  900loPI   C6A14396   6.162  18.791   7.200  0.3623 -0.0308  0.0102
  900loPI   C1B14397   6.628  17.829   5.636  0.0633 -0.1209  0.1088
  900loPI   C2B14398   6.679  18.022   6.023 -0.0047  0.0207 -0.0425
  900loPI   C3B14399   6.665  18.013   6.417  0.0352 -0.0433  0.4659
  900loPI   C4B14400   6.480  17.987   6.900  0.0664  0.2602 -0.2372
  901loPI    C114401   4.318  15.070   4.710 -0.2083  0.1427 -0.2031
  901loPI    C214402   4.443  15.449   4.730  0.0879  0.0355  0.0801
  901loPI    C314403   4.412  15.268   4.376  0.1413  0.2598 -0.0415
  901loPI   PO414404   4.441  14.886   4.843 -0.2683 -0.1474  0.1948
  901loPI   GL114405   4.370  14.836   5.200  0.5226  0.0114  0.1883
  901loPI   GL214406   4.201  14.588   5.224  0.4061 -0.1333  0.0554
  901loPI   C1A14407   4.681  14.985   5.484 -0.3217  0.0680 -0.0851
  901loPI   C2A14408   4.750  15.165   5.869 -0.0952 -0.2026 -0.1042
  901loPI   C3A14409   4.893  15.280   6.301  0.2767 -0.1264 -0.3000
  901loPI   C4A14410   5.215  15.243   6.670 -0.1062  0.0719 -0.0894
  901loPI   C5A14411   5.627  15.495   6.734 -0.3665 -0.0189 -0.0526
  901loPI   C6A14412   5.885  15.855   6.930 -0.1917  0.0127  0.2410
  901loPI   C1B14413   4.429  14.340   5.538  0.0440  0.2545  0.1314
  901loPI   C2B14414   4.402  14.380   5.924 -0.0648 -0.0463  0.0285
  901loPI   C3B14415   4.117  14.090   6.232  0.4320  0.0181 -0.1996
  901loPI   C4B14416   4.203  13.759   6.510  0.0502 -0.1651 -0.1452
  902loPI    C114417   8.256  10.030   4.183  0.0709 -0.0182 -0.1508
  902loPI    C214418   8.027   9.716   4.089  0.0374 -0.0066 -0.1083
  902loPI    C314419   8.200   9.931   3.799  0.0554 -0.0603 -0.1376
  902loPI   PO414420   8.097  10.104   4.445 -0.1789 -0.0578  0.1898
  902loPI   GL114421   8.174  10.280   4.861  0.0682  0.0698  0.2635
  902loPI   GL214422   8.241  10.600   4.945  0.0192 -0.0946 -0.1110
  902loPI   C1A14423   8.268   9.928   5.236 -0.0880 -0.2539 -0.0470
  902loPI   C2A14424   7.990   9.945   5.633  0.3217 -0.0142  0.1845
  902loPI   C3A14425   7.830   9.853   6.128  0.2133  0.4796 -0.0217
  902loPI   C4A14426   7.995   9.736   6.608  0.0080  0.2612 -0.0191
  902loPI   C5A14427   8.299   9.637   6.951  0.2868  0.3233 -0.2323
  902loPI   C6A14428   8.318   9.741   7.331  0.5647  0.0963  0.0222
  902loPI   C1B14429   8.143  10.407   5.351  0.0644 -0.1075 -0.0082
  902loPI   C2B14430   8.170  10.326   5.890 -0.2842  0.0824 -0.1343
  902loPI   C3B14431   8.059  10.181   6.350  0.1319 -0.2789  0.2681
  902loPI   C4B14432   8.151  10.187   6.755 -0.0332 -0.1368  0.0316
  903loPI    C114433   4.076  18.186   4.683  0.2413  0.2386  0.0102
  903loPI    C214434   4.159  17.968   4.358 -0.1447 -0.1028  0.1316
  903loPI    C314435   3.920  18.288   4.329 -0.1182 -0.0889  0.0668
  903loPI   PO414436   4.057  17.959   4.838 -0.2801  0.0935 -0.0247
  903loPI   GL114437   4.209  17.859   5.207  0.2545 -0.2380  0.2726
  903loPI   GL214438   4.090  17.651   5.435  0.2093  0.0886  0.1849
  903loPI   C1A14439   4.525  17.950   5.575 -0.0638 -0.1922 -0.0762
  903loPI   C2A14440   4.497  18.119   5.995 -0.1046  0.0411  0.2724
  903loPI   C3A14441   4.517  18.086   6.392 -0.0415  0.1688 -0.1841
  903loPI   C4A14442   4.705  18.075   6.725 -0.0998  0.3734 -0.1729
  903loPI   C5A14443   5.090  17.995   6.775 -0.2866 -0.1867 -0.1390
  903loPI   C6A14444   5.514  18.059   6.924 -0.1521 -0.1983  0.1344
  903loPI   C1B14445   4.138  17.700   5.815  0.0943 -0.2368  0.2771
  903loPI   C2B14446   4.232  17.691   6.247  0.2087  0.1060  0.3080
  903loPI   C3B14447   4.376  17.696   6.683 -0.2179  0.0690  0.0123
  903loPI   C4B14448   4.572  17.753   7.112 -0.0665 -0.0826  0.1764
  904loPI    C114449  10.289  17.602   4.516 -0.0566 -0.0578  0.2098
  904loPI    C214450  10.483  17.689   4.178 -0.1302 -0.1567  0.1417
  904loPI    C314451  10.136  17.491   4.164 -0.1999 -0.0450  0.2671
  904loPI   PO414452  10.398  17.457   4.642  0.1179 -0.3881  0.1030
  904loPI   GL114453  10.600  17.343   5.026 -0.0483  0.1659  0.0515
  904loPI   GL214454  10.254  17.218   5.055 -0.1138 -0.1205 -0.1118
  904loPI   C1A14455  10.571  17.229   5.512 -0.1920 -0.1319  0.3313
  904loPI   C2A14456  10.552  17.095   5.961  0.2729  0.0231  0.0737
  904loPI   C3A14457  10.748  17.190   6.373  0.2761 -0.2380  0.4886
  904loPI   C4A14458  10.944  17.335   6.672  0.0740  0.0085 -0.1069
  904loPI   C5A14459  11.323  17.417   6.818  0.0449 -0.1157 -0.0078
  904loPI   C6A14460  11.720  17.400   7.073  0.0079 -0.2280  0.1485
  904loPI   C1B14461  10.228  17.575   5.407  0.0312 -0.0239  0.1095
  904loPI   C2B14462  10.081  17.612   5.775 -0.1372  0.2268  0.1093
  904loPI   C3B14463  10.283  17.519   6.168 -0.0553 -0.0343 -0.3381
  904loPI   C4B14464  10.069  17.601   6.542  0.0174  0.3116  0.0971
  905loPI    C114465  16.310  15.537   4.631 -0.0016  0.5856  0.0729
  905loPI    C214466  15.944  15.383   4.683  0.1564  0.2332  0.1692
  905loPI    C314467  16.066  15.489   4.317  0.0961 -0.0074  0.0778
  905loPI   PO414468  16.345  15.589   4.905 -0.3162  0.1094 -0.2056
  905loPI   GL114469  16.550  15.428   5.191  0.0252  0.1410 -0.0974
  905loPI   GL214470  16.544  15.739   5.316 -0.2924 -0.1877  0.0359
  905loPI   C1A14471  16.697  15.305   5.569 -0.1074 -0.1270 -0.2646
  905loPI   C2A14472  16.845  15.155   5.860 -0.3276 -0.2927 -0.0100
  905loPI   C3A14473  17.001  15.244   6.254 -0.5388  0.3036  0.2254
  905loPI   C4A14474  17.455  15.129   6.453  0.0036 -0.0169  0.1114
  905loPI   C5A14475  17.663  15.038   6.948  0.0382 -0.1153  0.2484
  905loPI   C6A14476  17.983  15.185   7.286  0.2291 -0.2353  0.2712
  905loPI   C1B14477  16.450  15.681   5.806 -0.4972  0.0123 -0.1023
  905loPI   C2B14478  16.470  15.472   6.160 -0.0234  0.1426  0.0356
  905loPI   C3B14479  16.547  15.274   6.575 -0.2873  0.0832  0.1640
  905loPI   C4B14480  16.591  15.165   6.992  0.0837  0.2675 -0.1193
  906loPI    C114481  12.809   1.252   5.084 -0.3000  0.2310 -0.1536
  906loPI    C214482  12.805   1.361   4.699 -0.0768 -0.2313 -0.2948
  906loPI    C314483  12.577   1.056   4.823 -0.3699  0.1004  0.0046
  906loPI   PO414484  13.050   1.304   5.161  0.2783  0.0005  0.2409
  906loPI   GL114485  13.190   1.242   5.575 -0.0327  0.1305  0.0504
  906loPI   GL214486  13.263   1.639   5.553  0.0691  0.3943 -0.0025
  906loPI   C1A14487  13.347   1.206   5.964  0.0157 -0.5180 -0.2200
  906loPI   C2A14488  13.157   1.534   6.186  0.3664  0.1459 -0.0446
  906loPI   C3A14489  12.965   1.639   6.694 -0.0120  0.1758 -0.0267
  906loPI   C4A14490  13.134   1.751   6.995  0.3160 -0.1646 -0.0167
  906loPI   C5A14491  13.228   1.760   7.523  0.0549  0.4353  0.3042
  906loPI   C6A14492  12.969   1.724   8.006  0.0586  0.1149 -0.0056
  906loPI   C1B14493  13.569   1.619   5.892  0.1184 -0.1841  0.0594
  906loPI   C2B14494  13.832   1.342   6.070  0.1145 -0.2123 -0.1324
  906loPI   C3B14495  13.899   1.116   6.347  0.4425  0.0168  0.0114
  906loPI   C4B14496  13.976   0.983   6.773 -0.2849  0.1528 -0.5612
  907loPI    C114497   8.051  16.331   4.256  0.2111  0.2804  0.0062
  907loPI    C214498   7.788  16.622   4.178  0.2649  0.2687 -0.2239
  907loPI    C314499   7.810  16.303   3.938 -0.0135 -0.0807  0.2011
  907loPI   PO414500   7.973  16.134   4.499 -0.2509 -0.1526 -0.0384
  907loPI   GL114501   7.705  16.194   4.856 -0.1396 -0.1977 -0.2626
  907loPI   GL214502   8.066  16.261   5.004 -0.1844 -0.3280  0.2775
  907loPI   C1A14503   7.850  15.788   5.084 -0.0880 -0.0865 -0.1585
  907loPI   C2A14504   8.191  15.535   5.279 -0.0587  0.2223 -0.1898
  907loPI   C3A14505   8.215  15.528   5.772 -0.1561  0.2963 -0.2191
  907loPI   C4A14506   8.186  15.485   6.183 -0.2824 -0.0839  0.0811
  907loPI   C5A14507   7.972  15.327   6.582  0.4788 -0.0695 -0.1594
  907loPI   C6A14508   7.833  15.095   6.945  0.2554 -0.3270  0.3203
  907loPI   C1B14509   7.735  16.220   5.431  0.0686  0.3003  0.0515
  907loPI   C2B14510   7.840  16.444   5.854  0.1544  0.4213 -0.0073
  907loPI   C3B14511   7.677  16.521   6.329 -0.2196  0.0749  0.3013
  907loPI   C4B14512   7.570  16.678   6.749  0.0148 -0.2200 -0.0194
  908loPI    C114513   8.082   1.641   4.858 -0.1908 -0.0206 -0.0249
  908loPI    C214514   7.921   1.867   4.570  0.1009  0.1995 -0.0197
  908loPI    C314515   8.318   1.847   4.610  0.0739 -0.1675  0.1013
  908loPI   PO414516   7.962   1.719   5.106  0.1546  0.2206 -0.0626
  908loPI   GL114517   8.003   1.722   5.481 -0.2374  0.4612  0.2777
  908loPI   GL214518   7.925   1.995   5.594  0.0976  0.3549 -0.0988
  908loPI   C1A14519   8.278   1.638   5.795 -0.0772  0.3610 -0.0090
  908loPI   C2A14520   8.242   1.560   6.204  0.0494  0.3549 -0.0763
  908loPI   C3A14521   8.572   1.626   6.547  0.1110 -0.1691 -0.2246
  908loPI   C4A14522   8.812   1.902   6.969 -0.2577 -0.0906  0.1121
  908loPI   C5A14523   8.708   2.038   7.271  0.0139 -0.3554 -0.3634
  908loPI   C6A14524   8.406   2.111   7.578  0.1783 -0.2014  0.2110
  908loPI   C1B14525   8.158   2.099   6.044 -0.0490  0.1228 -0.1519
  908loPI   C2B14526   8.223   2.010   6.447 -0.2372  0.0913 -0.1567
  908loPI   C3B14527   7.973   1.907   6.955  0.0014  0.0284 -0.0304
  908loPI   C4B14528   7.975   1.694   7.396 -0.1059 -0.0877  0.2407
  909loPI    C114529   5.918   8.769   4.766 -0.2067  0.0176  0.1718
  909loPI    C214530   5.937   8.448   5.005  0.1860 -0.0957 -0.0022
  909loPI    C314531   5.656   8.470   4.720  0.0772 -0.2239  0.0936
  909loPI   PO414532   5.967   9.024   4.960  0.3649 -0.0882  0.0109
  909loPI   GL114533   6.127   8.903   5.280  0.0211  0.0625 -0.1377
  909loPI   GL214534   6.271   8.657   5.429  0.0311  0.2412 -0.1658
  909loPI   C1A14535   6.050   9.147   5.664 -0.1790 -0.0538 -0.1326
  909loPI   C2A14536   6.074   9.129   6.057  0.3333 -0.3031  0.2255
  909loPI   C3A14537   6.003   9.048   6.499  0.1905  0.0003 -0.2274
  909loPI   C4A14538   6.202   9.339   6.765  0.0321 -0.3399 -0.0926
  909loPI   C5A14539   6.423   9.503   7.056 -0.0805 -0.3594  0.0095
  909loPI   C6A14540   6.815   9.481   7.245  0.1580  0.4574 -0.2587
  909loPI   C1B14541   6.406   8.789   5.816  0.1272 -0.2751  0.1393
  909loPI   C2B14542   6.369   8.780   6.281  0.1596  0.4555  0.3722
  909loPI   C3B14543   6.486   8.927   6.656  0.2164  0.1614  0.1120
  909loPI   C4B14544   6.204   8.878   7.035 -0.0960  0.1015 -0.1260
  910loPI    C114545   5.160  16.558   4.674  0.0447  0.0154  0.1385
  910loPI    C214546   5.459  16.402   4.458 -0.1953 -0.2353 -0.0184
  910loPI    C314547   5.084  16.391   4.319 -0.2931 -0.0076  0.2185
  910loPI   PO414548   5.086  16.474   4.819 -0.0391 -0.0837  0.0301
  910loPI   GL114549   5.052  16.197   5.122 -0.1886 -0.0366  0.1553
  910loPI   GL214550   5.362  16.297   5.201 -0.4001  0.2602 -0.2308
  910loPI   C1A14551   4.877  16.063   5.414  0.2449 -0.0608  0.1449
  910loPI   C2A14552   4.746  16.114   5.830  0.0111  0.1002  0.2240
  910loPI   C3A14553   4.679  16.269   6.195 -0.0073 -0.1548  0.0934
  910loPI   C4A14554   4.794  16.555   6.551 -0.1456 -0.1190  0.0226
  910loPI   C5A14555   4.880  17.044   6.711  0.0311  0.1811  0.0121
  910loPI   C6A14556   5.235  17.126   6.926 -0.2241  0.0424 -0.0747
  910loPI   C1B14557   5.544  16.491   5.422 -0.1316  0.0634  0.2580
  910loPI   C2B14558   5.541  16.509   5.818  0.2078 -0.1758  0.1044
  910loPI   C3B14559   5.549  16.571   6.270 -0.2586  0.1581 -0.2660
  910loPI   C4B14560   5.819  16.308   6.617  0.0348  0.0027  0.3842
  911loPI    C114561  16.711   9.684   4.069 -0.0594 -0.0466  0.0156
  911loPI    C214562  16.411   9.538   3.848  0.0109 -0.1013 -0.0452
  911loPI    C314563  16.772   9.591   3.684  0.0708 -0.1669  0.0642
  911loPI   PO414564  16.681   9.539   4.308  0.0112 -0.0525 -0.0278
  911loPI   GL114565  16.426   9.480   4.506  0.2740  0.0790 -0.2153
  911loPI   GL214566  16.214   9.227   4.442 -0.0030 -0.4038 -0.3626
  911loPI   C1A14567  16.350   9.492   4.908 -0.3792  0.0655 -0.2806
  911loPI   C2A14568  16.452   9.664   5.323 -0.1255 -0.1210 -0.1140
  911loPI   C3A14569  16.521   9.704   5.745 -0.1496  0.1339 -0.0773
  911loPI   C4A14570  16.838   9.970   6.002 -0.1361 -0.0780  0.0519
  911loPI   C5A14571  16.938  10.170   6.479 -0.1041  0.0898 -0.2197
  911loPI   C6A14572  17.068  10.186   6.962 -0.1088  0.0099 -0.0073
  911loPI   C1B14573  16.199   9.034   4.880 -0.1514 -0.1496  0.0093
  911loPI   C2B14574  16.194   8.954   5.328  0.1404 -0.4309  0.0773
  911loPI   C3B14575  16.167   8.873   5.710  0.0968  0.3828  0.0233
  911loPI   C4B14576  16.304   8.859   6.102 -0.4241 -0.1301  0.2195
  912loPI    C114577  16.586  15.037   4.682 -0.2506 -0.2194  0.0595
  912loPI    C214578  16.561  15.236   4.336  0.1488 -0.0674  0.1125
  912loPI    C314579  16.250  15.021   4.466 -0.1017  0.0945 -0.2044
  912loPI   PO414580  16.807  14.926   4.738 -0.3599  0.3249  0.0762
  912loPI   GL114581  17.146  14.917   5.065 -0.0052 -0.3464  0.2858
  912loPI   GL214582  16.786  14.937   5.246 -0.0983  0.1302 -0.0243
  912loPI   C1A14583  17.188  14.964   5.572  0.0377 -0.0629  0.1897
  912loPI   C2A14584  17.332  14.915   5.924  0.0756 -0.1011 -0.0835
  912loPI   C3A14585  17.211  14.680   6.391 -0.0471  0.0585  0.0611
  912loPI   C4A14586  17.421  14.281   6.621  0.1601 -0.3927 -0.3836
  912loPI   C5A14587  17.326  13.987   6.888 -0.1062 -0.0694 -0.2691
  912loPI   C6A14588  17.036  13.627   7.036  0.1119  0.3428  0.0207
  912loPI   C1B14589  16.630  14.780   5.548  0.0053  0.1056 -0.0129
  912loPI   C2B14590  16.389  14.551   5.859  0.2653 -0.0444 -0.3535
  912loPI   C3B14591  16.102  14.639   6.142  0.0425 -0.0306  0.0664
  912loPI   C4B14592  15.890  14.435   6.508  0.0215 -0.0722 -0.2444
  913loPI    C114593  10.898   6.463   4.779 -0.2040  0.0056 -0.1350
  913loPI    C214594  11.197   6.650   4.591 -0.1208 -0.0935 -0.1022
  913loPI    C314595  10.959   6.401   4.389 -0.3077  0.1382 -0.1732
  913loPI   PO414596  10.936   6.365   4.955 -0.1143  0.0267  0.0257
  913loPI   GL114597  10.997   6.367   5.349 -0.1892  0.0694 -0.3221
  913loPI   GL214598  11.158   5.993   5.247  0.1149  0.0751 -0.5269
  913loPI   C1A14599  11.037   6.404   5.785  0.1831 -0.0539 -0.0475
  913loPI   C2A14600  11.208   6.325   6.238  0.1190 -0.0661  0.0292
  913loPI   C3A14601  11.300   6.306   6.720 -0.1235 -0.1403 -0.1403
  913loPI   C4A14602  11.396   6.332   7.102  0.3224  0.1508 -0.2561
  913loPI   C5A14603  11.728   6.558   7.258 -0.0561 -0.1061  0.3411
  913loPI   C6A14604  11.974   7.002   7.250 -0.1235 -0.1280  0.0887
  913loPI   C1B14605  11.339   6.052   5.657 -0.2336  0.2179 -0.4215
  913loPI   C2B14606  11.548   5.956   6.066  0.1284 -0.1744  0.2059
  913loPI   C3B14607  11.815   6.135   6.495  0.0199 -0.1167  0.1228
  913loPI   C4B14608  11.992   6.234   6.951  0.2015  0.2395 -0.0791
  914loPI    C114609  19.096   7.659   4.377 -0.0814 -0.1419  0.2969
  914loPI    C214610  18.701   7.599   4.355 -0.0813 -0.0012 -0.2731
  914loPI    C314611  18.952   7.337   4.188  0.0573  0.0367 -0.1266
  914loPI   PO414612  19.187   7.642   4.661 -0.0651 -0.0175 -0.0376
  914loPI   GL114613  19.333   7.945   4.941  0.1645 -0.2217 -0.0401
  914loPI   GL214614  19.204   8.258   4.954 -0.0858 -0.1672 -0.0074
  914loPI   C1A14615  19.161   7.898   5.379 -0.0905 -0.3237 -0.2430
  914loPI   C2A14616  19.123   7.913   5.826  0.2717  0.1104 -0.0150
  914loPI   C3A14617  19.136   7.864   6.192 -0.0410 -0.1161 -0.2846
  914loPI   C4A14618  19.074   7.836   6.509 -0.3674 -0.1482  0.1707
  914loPI   C5A14619  19.304   8.042   6.832  0.2149  0.0856 -0.5306
  914loPI   C6A14620  19.675   7.946   7.052 -0.1271  0.1056  0.1980
  914loPI   C1B14621  19.079   8.453   5.364  0.4134 -0.0331 -0.0402
  914loPI   C2B14622  18.993   8.400   5.721  0.0552  0.1648 -0.1346
  914loPI   C3B14623  19.044   8.427   6.180 -0.2107  0.1917  0.1757
  914loPI   C4B14624  18.942   8.454   6.609  0.0126 -0.2208  0.0887
  915loPI    C114625   0.074  16.042   4.753 -0.1134 -0.2044 -0.3396
  915loPI    C214626   0.379  15.825   4.611  0.0862  0.0221 -0.2636
  915loPI    C314627   0.442  16.198   4.742 -0.1931  0.0098 -0.0849
  915loPI   PO414628  -0.040  15.860   4.938 -0.4084 -0.0266 -0.0776
  915loPI   GL114629  -0.053  15.566   5.196 -0.0499  0.1276  0.0514
  915loPI   GL214630  -0.093  15.890   5.407 -0.2074 -0.0114 -0.3056
  915loPI   C1A14631  -0.010  15.367   5.584  0.0027  0.2007  0.0103
  915loPI   C2A14632   0.032  15.169   5.918  0.0470 -0.2047  0.0479
  915loPI   C3A14633   0.035  14.836   6.087  0.2221 -0.0438 -0.0471
  915loPI   C4A14634  -0.219  14.742   6.376  0.2576  0.1285  0.2145
  915loPI   C5A14635  -0.465  14.626   6.851 -0.1023 -0.1311  0.3495
  915loPI   C6A14636  -0.892  14.675   6.981 -0.2069  0.0041 -0.0330
  915loPI   C1B14637   0.329  15.840   5.653  0.1933 -0.4689 -0.3376
  915loPI   C2B14638   0.283  15.721   6.159  0.0435  0.0462 -0.0867
  915loPI   C3B14639   0.286  15.467   6.524  0.2332 -0.1107 -0.0005
  915loPI   C4B14640   0.274  15.036   6.502 -0.1369 -0.2861  0.2338
  916loPI    C114641  13.560  10.727   5.009  0.1391  0.1410  0.2470
  916loPI    C214642  13.608  10.940   4.674  0.4743 -0.1351  0.1137
  916loPI    C314643  13.486  11.120   5.010  0.1316  0.1439 -0.1537
  916loPI   PO414644  13.407  10.580   4.944 -0.0407 -0.1385 -0.3152
  916loPI   GL114645  13.193  10.621   5.353 -0.1774  0.0332  0.0917
  916loPI   GL214646  13.501  10.591   5.490 -0.0993 -0.0056 -0.0718
  916loPI   C1A14647  13.232  11.071   5.570  0.1087 -0.1062  0.3089
  916loPI   C2A14648  13.105  11.292   5.904 -0.0531  0.0544  0.3421
  916loPI   C3A14649  13.175  11.306   6.415 -0.2509  0.1134  0.1715
  916loPI   C4A14650  13.209  11.212   6.895  0.0340 -0.1483  0.2676
  916loPI   C5A14651  13.296  11.030   7.140 -0.1720  0.2487 -0.1503
  916loPI   C6A14652  13.429  10.882   7.499  0.0033  0.2127 -0.1599
  916loPI   C1B14653  13.423  10.788   5.895  0.0484 -0.1386  0.1839
  916loPI   C2B14654  13.342  10.848   6.348 -0.0683  0.0176 -0.0634
  916loPI   C3B14655  13.360  10.647   6.723 -0.0526 -0.2925 -0.1810
  916loPI   C4B14656  13.440  10.516   7.158  0.0647 -0.4356  0.2530
  917loPI    C114657   5.452  17.739   4.818 -0.2660 -0.0212  0.1749
  917loPI    C214658   5.419  17.401   5.030  0.1594 -0.1235  0.0868
  917loPI    C314659   5.332  17.401   4.640  0.1801 -0.1371  0.0821
  917loPI   PO414660   5.691  17.864   4.862  0.0644 -0.1424 -0.0416
  917loPI   GL114661   5.922  18.044   5.210 -0.1766 -0.1893 -0.3315
  917loPI   GL214662   5.770  17.790   5.342  0.1908 -0.1647 -0.3493
  917loPI   C1A14663   5.842  18.162   5.624 -0.3000  0.1248 -0.1064
  917loPI   C2A14664   6.029  18.090   6.087  0.1508 -0.3314 -0.2471
  917loPI   C3A14665   6.018  18.005   6.562 -0.2647  0.7347 -0.1089
  917loPI   C4A14666   6.004  17.816   7.008  0.1629 -0.1392  0.0082
  917loPI   C5A14667   6.289  17.530   7.256  0.0389  0.1093  0.1027
  917loPI   C6A14668   6.557  17.351   7.570  0.1657  0.0387 -0.2148
  917loPI   C1B14669   5.997  17.709   5.784 -0.2419  0.0250 -0.1606
  917loPI   C2B14670   6.303  17.719   6.136  0.0204  0.0172 -0.3864
  917loPI   C3B14671   6.684  17.446   6.346 -0.0985  0.3598  0.0103
  917loPI   C4B14672   7.039  17.199   6.033 -0.0322  0.1347 -0.0839
  918loPI    C114673   3.199  17.205   5.072 -0.1918  0.0541  0.0241
  918loPI    C214674   2.887  16.990   5.201  0.0369 -0.2861  0.0241
  918loPI    C314675   3.201  16.806   5.036  0.2042  0.0594 -0.0511
  918loPI   PO414676   3.100  17.430   5.167 -0.3286 -0.0887  0.0867
  918loPI   GL114677   3.317  17.666   5.500  0.2207 -0.0551  0.0548
  918loPI   GL214678   3.545  17.497   5.330 -0.0408 -0.3336  0.1908
  918loPI   C1A14679   3.123  17.753   5.962  0.2933 -0.2371 -0.1957
  918loPI   C2A14680   3.186  17.655   6.390 -0.2082 -0.0358 -0.0140
  918loPI   C3A14681   3.240  17.888   6.758  0.0383 -0.1302  0.0573
  918loPI   C4A14682   3.491  18.038   7.126  0.3384  0.3194 -0.1546
  918loPI   C5A14683   3.514  17.816   7.532 -0.2602 -0.0251  0.0937
  918loPI   C6A14684   3.431  17.765   8.014  0.0741 -0.2493 -0.0244
  918loPI   C1B14685   3.720  17.487   5.682 -0.3301  0.3332 -0.2339
  918loPI   C2B14686   3.684  17.705   6.034 -0.2703  0.1144 -0.1772
  918loPI   C3B14687   3.697  17.708   6.479  0.2058 -0.0072 -0.2151
  918loPI   C4B14688   3.806  17.516   6.854 -0.0892 -0.0625  0.4317
  919loPI    C114689   4.698  16.669   4.482 -0.0208  0.0442 -0.0322
  919loPI    C214690   4.482  16.692   4.146  0.0998 -0.3742 -0.1434
  919loPI    C314691   4.867  16.800   4.144  0.0317 -0.1239 -0.0718
  919loPI   PO414692   4.543  16.671   4.653 -0.2948 -0.1402  0.4421
  919loPI   GL114693   4.616  16.778   5.011 -0.0118 -0.1190  0.1227
  919loPI   GL214694   4.543  16.416   5.053 -0.3405 -0.0254  0.2788
  919loPI   C1A14695   4.565  16.932   5.406  0.2043  0.0153 -0.0854
  919loPI   C2A14696   4.839  17.174   5.771  0.0010 -0.2700 -0.2605
  919loPI   C3A14697   4.629  17.538   5.973  0.0405  0.0471  0.0234
  919loPI   C4A14698   4.763  17.628   6.378 -0.2149 -0.2804  0.0145
  919loPI   C5A14699   5.055  17.507   6.696 -0.0354 -0.1401 -0.0310
  919loPI   C6A14700   5.294  17.645   7.052 -0.1304 -0.1523 -0.1422
  919loPI   C1B14701   4.503  16.447   5.540  0.1376 -0.1964 -0.2062
  919loPI   C2B14702   4.620  16.663   5.862 -0.3921  0.0014  0.3011
  919loPI   C3B14703   4.655  16.944   6.181 -0.2131 -0.3234  0.2453
  919loPI   C4B14704   4.512  17.252   6.399 -0.0855  0.1218 -0.0933
  920loPI    C114705   0.320   9.749   3.946  0.2626 -0.0138 -0.0820
  920loPI    C214706   0.330  10.086   3.731 -0.0782  0.0048 -0.0750
  920loPI    C314707   0.386   9.733   3.552 -0.0662  0.0407 -0.1425
  920loPI   PO414708   0.153   9.826   4.204  0.3135  0.0898 -0.0994
  920loPI   GL114709   0.202   9.631   4.640  0.1131 -0.0658 -0.0230
  920loPI   GL214710   0.462   9.466   4.787 -0.3377 -0.0688  0.1141
  920loPI   C1A14711   0.167   9.673   5.087 -0.0345 -0.2059  0.2264
  920loPI   C2A14712   0.331   9.685   5.467  0.1441 -0.0237 -0.3485
  920loPI   C3A14713   0.235   9.597   5.845 -0.1961  0.0363 -0.0390
  920loPI   C4A14714   0.248   9.655   6.289  0.2398  0.0024 -0.0599
  920loPI   C5A14715   0.165   9.459   6.699  0.0812  0.1172  0.1184
  920loPI   C6A14716   0.095   9.187   6.982  0.2155  0.2054 -0.0052
  920loPI   C1B14717   0.364   9.149   5.109 -0.2264 -0.2371 -0.0084
  920loPI   C2B14718   0.302   9.181   5.544 -0.3341  0.2454 -0.0822
  920loPI   C3B14719   0.394   9.132   5.938 -0.3421  0.0076  0.0005
  920loPI   C4B14720   0.402   9.167   6.308  0.0931  0.2571 -0.3511
  921loPI    C114721   6.210   3.257   4.428 -0.1588 -0.0119  0.2187
  921loPI    C214722   6.567   3.323   4.261 -0.1226  0.1705  0.3662
  921loPI    C314723   6.284   3.131   4.055  0.0382  0.0822  0.2248
  921loPI   PO414724   6.311   3.179   4.668  0.0693  0.3294  0.0030
  921loPI   GL114725   6.586   3.157   5.074  0.0371 -0.1270  0.1292
  921loPI   GL214726   6.303   3.037   5.165 -0.1426 -0.1223  0.0431
  921loPI   C1A14727   6.736   3.219   5.438 -0.1657  0.4118  0.1005
  921loPI   C2A14728   6.758   3.565   5.637  0.1735 -0.0226  0.4053
  921loPI   C3A14729   6.723   3.728   6.125 -0.3819  0.0509 -0.2528
  921loPI   C4A14730   6.804   3.763   6.619 -0.0965 -0.4372  0.0399
  921loPI   C5A14731   6.751   4.022   6.904 -0.0658 -0.0248 -0.1895
  921loPI   C6A14732   6.609   4.074   7.341  0.2883 -0.2041  0.3321
  921loPI   C1B14733   6.245   3.138   5.612 -0.1233 -0.3537 -0.3831
  921loPI   C2B14734   6.487   3.334   6.029  0.0356  0.3247  0.3349
  921loPI   C3B14735   6.615   3.373   6.415  0.2848  0.2040  0.0619
  921loPI   C4B14736   6.825   3.242   6.696 -0.4372 -0.0829 -0.1529
  922loPI    C114737   7.868  10.730   4.329  0.0382 -0.1736 -0.0471
  922loPI    C214738   7.470  10.713   4.287  0.0404 -0.2362 -0.0436
  922loPI    C314739   7.695  10.877   3.999 -0.0057 -0.0104  0.0472
  922loPI   PO414740   7.874  10.721   4.630  0.0426  0.1505  0.1965
  922loPI   GL114741   7.849  10.994   4.894 -0.3420 -0.1000 -0.0704
  922loPI   GL214742   7.763  11.321   5.017 -0.1055 -0.2168  0.1409
  922loPI   C1A14743   7.926  10.942   5.319  0.0342 -0.1128 -0.1554
  922loPI   C2A14744   7.687  10.764   5.696  0.0818  0.0500 -0.1851
  922loPI   C3A14745   7.675  10.779   6.153  0.0118  0.1763  0.2836
  922loPI   C4A14746   7.776  10.609   6.601 -0.2066  0.1177 -0.0072
  922loPI   C5A14747   7.831  10.521   6.942 -0.2059 -0.0006 -0.4137
  922loPI   C6A14748   8.194  10.321   7.320 -0.0009  0.1986  0.3084
  922loPI   C1B14749   7.541  11.483   5.381  0.2719 -0.1638  0.1195
  922loPI   C2B14750   7.599  11.244   5.738  0.0208 -0.1521 -0.0066
  922loPI   C3B14751   7.325  11.116   6.018 -0.0640  0.1562 -0.1421
  922loPI   C4B14752   7.067  10.747   6.184 -0.1640 -0.2268 -0.3810
  923loPI    C114753   7.469   3.843   4.559  0.1205  0.1396  0.2892
  923loPI    C214754   7.672   4.142   4.387  0.1156 -0.0378 -0.0341
  923loPI    C314755   7.297   4.063   4.272  0.1774 -0.2772 -0.0762
  923loPI   PO414756   7.459   3.847   4.932 -0.1301  0.0910 -0.0125
  923loPI   GL114757   7.603   3.850   5.343 -0.1608 -0.0433 -0.2132
  923loPI   GL214758   7.600   3.609   5.381 -0.0532  0.3581  0.1589
  923loPI   C1A14759   7.477   4.003   5.745 -0.3496  0.1423 -0.0992
  923loPI   C2A14760   7.249   3.840   6.148  0.2237 -0.1400 -0.1966
  923loPI   C3A14761   7.375   3.806   6.648  0.0184 -0.2830  0.1921
  923loPI   C4A14762   7.256   3.986   7.081 -0.0255  0.0384 -0.0461
  923loPI   C5A14763   7.072   4.385   7.218 -0.1623  0.1453 -0.2843
  923loPI   C6A14764   6.923   4.549   6.856 -0.0462 -0.0307  0.0618
  923loPI   C1B14765   7.706   3.526   5.820 -0.0134  0.3682  0.1042
  923loPI   C2B14766   7.511   3.431   6.187 -0.0195  0.3401  0.0619
  923loPI   C3B14767   7.264   3.276   6.494  0.2581 -0.0098  0.1158
  923loPI   C4B14768   7.186   3.439   6.924 -0.0603  0.0695  0.0209
  924loPI    C114769   9.474  -0.005   4.772  0.3712 -0.1637 -0.0432
  924loPI    C214770   9.522   0.383   4.689 -0.2897  0.0470  0.4698
  924loPI    C314771   9.293   0.155   4.453 -0.0242 -0.0020  0.2542
  924loPI   PO414772   9.475  -0.001   5.082 -0.1413  0.0403  0.0001
  924loPI   GL114773   9.185  -0.085   5.351 -0.1530 -0.0047 -0.0455
  924loPI   GL214774   9.230  -0.356   5.379 -0.0883  0.0639 -0.0541
  924loPI   C1A14775   9.152   0.287   5.711 -0.1219  0.2623 -0.1401
  924loPI   C2A14776   9.122   0.334   6.064  0.1107  0.1247 -0.1254
  924loPI   C3A14777   9.196   0.427   6.484 -0.3698 -0.1497  0.1284
  924loPI   C4A14778   9.181   0.081   6.917 -0.0181 -0.0884  0.1148
  924loPI   C5A14779   9.012  -0.344   7.086  0.2084  0.0252 -0.0646
  924loPI   C6A14780   8.783  -0.749   7.202 -0.1535  0.0079 -0.0948
  924loPI   C1B14781   9.096  -0.335   5.726  0.3021 -0.2215 -0.0502
  924loPI   C2B14782   9.072  -0.135   5.940 -0.0213  0.3736 -0.0564
  924loPI   C3B14783   9.003  -0.059   6.357  0.1740 -0.3936  0.0261
  924loPI   C4B14784   8.764  -0.154   6.689  0.1110 -0.2270 -0.0876
  925loPI    C114785   0.247   9.288   4.302  0.1336 -0.2284 -0.0280
  925loPI    C214786   0.241   9.074   4.640  0.0326 -0.3433 -0.1019
  925loPI    C314787   0.364   8.905   4.299  0.0042 -0.2673 -0.1499
  925loPI   PO414788  -0.044   9.353   4.264  0.0048 -0.0286  0.1029
  925loPI   GL114789  -0.306   9.561   4.590 -0.0710 -0.0349  0.0255
  925loPI   GL214790  -0.503   9.543   4.818  0.0339  0.0457 -0.0113
  925loPI   C1A14791  -0.114   9.315   4.916  0.2122  0.0722 -0.1253
  925loPI   C2A14792  -0.176   9.370   5.333  0.1793 -0.0755  0.0229
  925loPI   C3A14793  -0.133   9.239   5.817 -0.1932  0.1672  0.3294
  925loPI   C4A14794  -0.205   9.327   6.299  0.1578 -0.1253 -0.1923
  925loPI   C5A14795  -0.197   9.731   6.553 -0.1640 -0.0611  0.0734
  925loPI   C6A14796   0.029   9.923   6.851  0.0418  0.0095  0.0610
  925loPI   C1B14797  -0.616   9.423   5.275 -0.0648  0.1311  0.0409
  925loPI   C2B14798  -0.621   9.346   5.776 -0.3996  0.1330  0.0296
  925loPI   C3B14799  -0.661   9.305   6.171 -0.1671 -0.2376 -0.1030
  925loPI   C4B14800  -0.777   9.356   6.610 -0.0559 -0.1528 -0.1055
  926loPI    C114801  13.708   4.984   5.001 -0.1340 -0.1675  0.2881
  926loPI    C214802  13.479   4.808   4.725  0.0562 -0.1561  0.1210
  926loPI    C314803  13.852   4.920   4.634  0.0223  0.1103  0.2979
  926loPI   PO414804  13.702   4.798   5.168  0.2007 -0.0500 -0.2490
  926loPI   GL114805  13.778   4.486   5.479 -0.0679  0.0814 -0.1775
  926loPI   GL214806  13.474   4.402   5.462  0.1519  0.0646  0.0733
  926loPI   C1A14807  13.842   4.800   5.805 -0.0635 -0.0934 -0.0626
  926loPI   C2A14808  13.928   4.777   6.198  0.3885 -0.1753 -0.0755
  926loPI   C3A14809  13.853   4.620   6.587 -0.2721  0.0364 -0.2122
  926loPI   C4A14810  13.706   4.766   6.922 -0.1929 -0.0558 -0.1938
  926loPI   C5A14811  13.443   5.084   7.106  0.3022 -0.0712  0.1692
  926loPI   C6A14812  13.431   5.303   7.585 -0.1880  0.0621 -0.1637
  926loPI   C1B14813  13.210   4.418   5.751  0.1555 -0.0495  0.1872
  926loPI   C2B14814  13.000   4.531   6.103 -0.0902 -0.0347 -0.0160
  926loPI   C3B14815  12.933   4.654   6.476 -0.1475 -0.0874 -0.0781
  926loPI   C4B14816  12.772   4.835   6.738  0.0411 -0.1924  0.0709
  927loPI    C114817  17.577   5.273   4.572 -0.0489  0.0556 -0.0777
  927loPI    C214818  17.937   5.302   4.400  0.0202  0.2742  0.0987
  927loPI    C314819  17.676   5.604   4.370 -0.1490  0.1173 -0.0271
  927loPI   PO414820  17.554   5.270   4.861 -0.1452 -0.2350 -0.1044
  927loPI   GL114821  17.654   5.020   5.258 -0.0001  0.0461  0.3092
  927loPI   GL214822  17.903   4.796   5.442  0.0600 -0.1530 -0.1299
  927loPI   C1A14823  17.725   5.378   5.508 -0.0954  0.1552 -0.3178
  927loPI   C2A14824  17.939   5.507   5.877 -0.2334  0.0851 -0.0999
  927loPI   C3A14825  17.874   5.522   6.220  0.2074  0.0037  0.2545
  927loPI   C4A14826  17.482   5.454   6.407 -0.1785 -0.0524 -0.3115
  927loPI   C5A14827  17.102   5.531   6.458  0.0655  0.1619  0.1302
  927loPI   C6A14828  16.790   5.890   6.281  0.1405  0.1000 -0.1836
  927loPI   C1B14829  18.036   4.943   5.870 -0.0824  0.0677  0.1771
  927loPI   C2B14830  17.974   4.972   6.312  0.0484  0.2235  0.0217
  927loPI   C3B14831  17.848   5.132   6.764 -0.0287 -0.1836  0.3181
  927loPI   C4B14832  17.593   4.932   7.124  0.0601  0.0852 -0.1882
  928loPI    C114833   1.146   0.689   4.635 -0.0383 -0.1699  0.0182
  928loPI    C214834   1.456   0.588   4.404  0.0828 -0.3291  0.2460
  928loPI    C314835   1.084   0.500   4.288  0.1055  0.0187 -0.1123
  928loPI   PO414836   1.314   0.644   4.915  0.0488  0.1275 -0.0276
  928loPI   GL114837   1.552   0.838   5.218  0.0841  0.0693  0.2079
  928loPI   GL214838   1.489   1.220   5.281  0.0874 -0.2259  0.4157
  928loPI   C1A14839   1.729   0.903   5.567  0.0137  0.3165 -0.1030
  928loPI   C2A14840   1.714   0.924   6.031 -0.0645 -0.1079  0.0182
  928loPI   C3A14841   1.697   0.833   6.419  0.0473  0.0447 -0.1916
  928loPI   C4A14842   1.627   0.700   6.841 -0.4057  0.0705 -0.1547
  928loPI   C5A14843   1.400   0.677   7.228 -0.0987 -0.2283  0.0560
  928loPI   C6A14844   1.343   1.018   7.607 -0.0221 -0.3558  0.1653
  928loPI   C1B14845   1.588   1.338   5.710  0.1399  0.0913  0.1164
  928loPI   C2B14846   1.603   1.503   6.043 -0.1217  0.0625 -0.2258
  928loPI   C3B14847   1.628   1.762   6.389 -0.1224  0.1668  0.1977
  928loPI   C4B14848   1.725   1.688   6.759  0.3329 -0.3294  0.2711
  929loPI    C114849  11.409  14.943   4.431  0.0759 -0.1302  0.0454
  929loPI    C214850  11.630  14.677   4.232  0.0662 -0.1030 -0.0019
  929loPI    C314851  11.649  15.064   4.135 -0.1590 -0.1266 -0.1466
  929loPI   PO414852  11.460  14.846   4.724  0.1927 -0.1643 -0.1798
  929loPI   GL114853  11.561  14.667   5.049  0.0569  0.0047 -0.1387
  929loPI   GL214854  11.591  14.379   4.992  0.1076 -0.0644  0.0292
  929loPI   C1A14855  11.859  14.607   5.457  0.0486  0.0659 -0.0252
  929loPI   C2A14856  12.029  14.464   5.860  0.1208  0.0534  0.1092
  929loPI   C3A14857  12.161  14.567   6.263 -0.1369  0.1090  0.0081
  929loPI   C4A14858  12.396  14.414   6.611 -0.0815  0.0991 -0.1472
  929loPI   C5A14859  12.298  14.199   7.046  0.4157  0.0300  0.0967
  929loPI   C6A14860  12.418  14.073   7.491  0.1656 -0.5356  0.1709
  929loPI   C1B14861  11.388  14.275   5.351  0.2447  0.2516 -0.0609
  929loPI   C2B14862  11.615  14.226   5.750 -0.1138 -0.0636 -0.3112
  929loPI   C3B14863  11.648  14.224   6.111 -0.0137  0.1818  0.1765
  929loPI   C4B14864  12.020  14.091   6.423  0.4245 -0.0909  0.0046
  930loPI    C114865  18.273  11.144   3.873 -0.0529 -0.0634  0.1100
  930loPI    C214866  18.364  10.999   3.512 -0.3999  0.0989 -0.0477
  930loPI    C314867  18.448  11.380   3.602 -0.0083 -0.0321  0.1657
  930loPI   PO414868  18.362  10.986   4.076  0.1151  0.0392 -0.1181
  930loPI   GL114869  18.564  11.164   4.441 -0.0704  0.2738  0.1828
  930loPI   GL214870  18.361  11.153   4.610  0.1753  0.0534 -0.0466
  930loPI   C1A14871  18.780  11.346   4.827  0.2791 -0.0140  0.2068
  930loPI   C2A14872  18.871  11.318   5.256 -0.2567  0.1105 -0.0572
  930loPI   C3A14873  18.851  11.335   5.717  0.1833  0.2341 -0.0171
  930loPI   C4A14874  18.830  11.220   6.101  0.1410 -0.2573  0.1665
  930loPI   C5A14875  18.855  11.274   6.505  0.0285  0.0539 -0.3749
  930loPI   C6A14876  19.060  11.024   6.922  0.1515  0.0749  0.3897
  930loPI   C1B14877  18.490  11.003   5.004 -0.2697 -0.2307 -0.1253
  930loPI   C2B14878  18.567  10.957   5.387  0.3092 -0.2232 -0.0213
  930loPI   C3B14879  18.455  10.860   5.823 -0.2523 -0.1184  0.3884
  930loPI   C4B14880  18.429  10.847   6.163 -0.2431 -0.0620 -0.0504
  931loPI    C114881  16.916  13.971   4.497 -0.0841  0.0218 -0.2183
  931loPI    C214882  16.666  13.684   4.620 -0.1150  0.1036 -0.0883
  931loPI    C314883  16.820  13.671   4.251  0.0898 -0.2214  0.0050
  931loPI   PO414884  17.126  14.011   4.699  0.2930 -0.1110  0.0810
  931loPI   GL114885  17.074  14.162   5.125  0.1049  0.0766 -0.0096
  931loPI   GL214886  17.413  14.037   5.180  0.2641 -0.1445 -0.1093
  931loPI   C1A14887  17.019  13.827   5.549 -0.5319  0.2537 -0.0735
  931loPI   C2A14888  16.850  13.903   5.885  0.0488 -0.1493 -0.0516
  931loPI   C3A14889  16.831  13.611   6.248  0.2054  0.0084  0.3163
  931loPI   C4A14890  16.851  13.220   6.548 -0.1476  0.2833 -0.0668
  931loPI   C5A14891  17.111  13.122   6.874 -0.1509  0.2354  0.0096
  931loPI   C6A14892  17.222  13.076   7.256  0.2876  0.0888 -0.0327
  931loPI   C1B14893  17.761  14.120   5.475 -0.4059  0.0342  0.1302
  931loPI   C2B14894  17.920  14.111   5.902  0.0901  0.2750  0.3504
  931loPI   C3B14895  18.100  14.146   6.294 -0.1012 -0.3577  0.1115
  931loPI   C4B14896  18.003  14.287   6.593 -0.1179  0.2377 -0.0803
  932loPI    C114897  15.524  15.225   4.966 -0.0372 -0.0693  0.0483
  932loPI    C214898  15.392  15.432   5.282 -0.0549  0.0501 -0.0367
  932loPI    C314899  15.495  15.623   4.946 -0.3302 -0.0998 -0.2105
  932loPI   PO414900  15.732  15.108   5.020  0.1687  0.1952  0.0394
  932loPI   GL114901  15.897  15.255   5.327  0.2906  0.1611 -0.0059
  932loPI   GL214902  16.150  15.427   5.460 -0.0361 -0.0416  0.0584
  932loPI   C1A14903  16.080  14.891   5.561  0.0686  0.2847  0.1517
  932loPI   C2A14904  16.355  15.032   5.866  0.0298  0.0555 -0.1481
  932loPI   C3A14905  16.569  14.911   6.230 -0.2484  0.0062  0.1012
  932loPI   C4A14906  16.705  14.730   6.677 -0.1060  0.0909  0.0307
  932loPI   C5A14907  16.953  14.383   6.902 -0.0891  0.0414 -0.0541
  932loPI   C6A14908  17.162  14.288   7.289 -0.1225 -0.2280  0.0591
  932loPI   C1B14909  16.004  15.363   5.874  0.3410 -0.1539  0.2838
  932loPI   C2B14910  16.020  15.160   6.278  0.0029  0.0226 -0.1246
  932loPI   C3B14911  16.230  14.880   6.640 -0.0037 -0.0413  0.1660
  932loPI   C4B14912  16.245  14.777   7.055 -0.0626  0.1640 -0.1054
  933loPI    C114913   8.503  16.328   4.435 -0.3304  0.2387  0.0633
  933loPI    C214914   8.724  16.580   4.217 -0.1684  0.1726  0.1499
  933loPI    C314915   8.522  16.286   4.037 -0.0730  0.1470  0.0836
  933loPI   PO414916   8.392  16.463   4.649  0.0269 -0.1358  0.1106
  933loPI   GL114917   8.508  16.437   4.950  0.0391 -0.1252 -0.3040
  933loPI   GL214918   8.665  16.550   5.206  0.0639  0.2386  0.0634
  933loPI   C1A14919   8.435  16.029   5.218 -0.5658  0.2952 -0.1009
  933loPI   C2A14920   8.236  15.946   5.541 -0.0216  0.1315 -0.1621
  933loPI   C3A14921   8.284  16.038   5.947 -0.0206  0.1318  0.0952
  933loPI   C4A14922   8.321  16.303   6.281  0.1273  0.0853  0.3012
  933loPI   C5A14923   8.537  16.492   6.669  0.1544  0.1224 -0.2822
  933loPI   C6A14924   8.313  16.878   6.848  0.1883 -0.1125  0.0086
  933loPI   C1B14925   8.868  16.724   5.476  0.1034  0.3919 -0.0989
  933loPI   C2B14926   9.056  16.606   5.868  0.2258  0.0127 -0.0604
  933loPI   C3B14927   9.059  16.926   6.318  0.1272  0.0362  0.1247
  933loPI   C4B14928   9.343  17.279   6.328 -0.0434  0.3073 -0.0419
  934loPI    C114929   6.834  10.752   4.705 -0.0901 -0.0195  0.0380
  934loPI    C214930   7.068  10.994   4.488  0.0850 -0.0070  0.2373
  934loPI    C314931   6.932  10.653   4.330  0.3445 -0.0774  0.1604
  934loPI   PO414932   6.836  10.903   4.943 -0.0255  0.2613 -0.5025
  934loPI   GL114933   6.945  10.744   5.285 -0.0510 -0.0471  0.1638
  934loPI   GL214934   6.876  10.443   5.199  0.1844 -0.1724 -0.0067
  934loPI   C1A14935   6.963  11.180   5.532  0.1214  0.1512 -0.0600
  934loPI   C2A14936   6.828  11.228   5.929  0.2306 -0.3900  0.1712
  934loPI   C3A14937   6.956  11.334   6.285 -0.0323  0.1091  0.3169
  934loPI   C4A14938   7.300  11.440   6.491 -0.4474 -0.2323 -0.3697
  934loPI   C5A14939   7.669  11.524   6.839  0.1857 -0.2298  0.0508
  934loPI   C6A14940   7.953  11.452   7.195  0.0208 -0.2386  0.0386
  934loPI   C1B14941   6.945  10.245   5.751 -0.0262 -0.2015  0.2123
  934loPI   C2B14942   6.972  10.277   6.146  0.2330  0.3645 -0.4697
  934loPI   C3B14943   7.061  10.324   6.520  0.4242  0.2931 -0.0062
  934loPI   C4B14944   7.337  10.514   6.775 -0.0612 -0.1902 -0.1746
  935loPI    C114945   5.386  17.003   4.375  0.2177 -0.0718 -0.0087
  935loPI    C214946   5.707  16.936   4.146  0.0139  0.2288 -0.3943
  935loPI    C314947   5.371  16.728   4.085  0.1768 -0.2110  0.1240
  935loPI   PO414948   5.477  16.937   4.647 -0.1985  0.2741 -0.1908
  935loPI   GL114949   5.272  16.895   5.167  0.0466  0.1867  0.2226
  935loPI   GL214950   4.954  16.622   5.301 -0.2270  0.1429  0.0419
  935loPI   C1A14951   5.234  16.888   5.554 -0.0573 -0.0947 -0.2635
  935loPI   C2A14952   5.322  16.979   5.912  0.0924  0.1026 -0.0393
  935loPI   C3A14953   5.125  16.894   6.309  0.0095 -0.2295  0.0297
  935loPI   C4A14954   5.270  16.683   6.657  0.3020 -0.0448 -0.5471
  935loPI   C5A14955   5.323  16.273   6.894 -0.1065 -0.2813  0.0235
  935loPI   C6A14956   5.273  15.964   7.047  0.1129 -0.0048  0.2261
  935loPI   C1B14957   5.037  16.459   5.611  0.0226 -0.1992 -0.0984
  935loPI   C2B14958   5.111  16.512   6.020  0.1188  0.2987 -0.0623
  935loPI   C3B14959   5.192  16.219   6.400  0.3353 -0.0240 -0.0196
  935loPI   C4B14960   5.488  15.933   6.497  0.4404  0.2520 -0.2466
  936loPI    C114961   2.892   7.611   4.612  0.0435 -0.0925  0.1564
  936loPI    C214962   3.197   7.503   4.378 -0.0444 -0.1284  0.0577
  936loPI    C314963   3.010   7.851   4.314  0.0080 -0.0828  0.1501
  936loPI   PO414964   2.871   7.632   4.852  0.2269  0.2878 -0.2485
  936loPI   GL114965   3.123   7.536   5.329  0.0511  0.2468 -0.3450
  936loPI   GL214966   3.017   7.358   5.456 -0.0123 -0.1279  0.3032
  936loPI   C1A14967   2.943   7.826   5.844  0.0742  0.2771  0.0406
  936loPI   C2A14968   2.851   8.218   5.977  0.3766 -0.1653 -0.2289
  936loPI   C3A14969   2.902   8.588   6.297  0.0868  0.0223 -0.1271
  936loPI   C4A14970   2.765   8.847   6.618  0.3112 -0.0392 -0.0204
  936loPI   C5A14971   2.683   8.770   6.984  0.0108 -0.0374 -0.0578
  936loPI   C6A14972   2.533   8.782   7.408 -0.1129 -0.1628  0.2603
  936loPI   C1B14973   2.684   7.307   5.731  0.0148 -0.1849 -0.2586
  936loPI   C2B14974   2.434   7.336   6.182  0.1012 -0.2306  0.0843
  936loPI   C3B14975   2.527   7.449   6.657 -0.3169  0.0766  0.0333
  936loPI   C4B14976   2.662   7.859   6.822  0.0901 -0.2242  0.0834
  937loPI    C114977  11.072  10.043   4.813 -0.0639 -0.1123  0.1216
  937loPI    C214978  11.375  10.233   4.634  0.0744 -0.1810  0.2799
  937loPI    C314979  11.070  10.094   4.416  0.0822  0.0210  0.1369
  937loPI   PO414980  11.085   9.964   4.981  0.4072 -0.1464  0.0525
  937loPI   GL114981  10.969   9.979   5.340 -0.1539 -0.1186 -0.1539
  937loPI   GL214982  10.861   9.656   5.365 -0.0687 -0.3759 -0.0808
  937loPI   C1A14983  11.029  10.288   5.733 -0.0527  0.0946 -0.2985
  937loPI   C2A14984  10.987  10.564   6.119  0.1404 -0.2019 -0.0262
  937loPI   C3A14985  10.916  10.785   6.492 -0.0531 -0.1213  0.0470
  937loPI   C4A14986  11.230  10.935   6.785 -0.1757 -0.2356 -0.0415
  937loPI   C5A14987  11.422  11.059   7.136  0.0239  0.4378 -0.0810
  937loPI   C6A14988  11.765  10.948   7.415  0.1367 -0.2354  0.2691
  937loPI   C1B14989  11.029   9.733   5.765  0.2133 -0.2895  0.1624
  937loPI   C2B14990  11.283   9.829   6.036 -0.1632  0.1694  0.0954
  937loPI   C3B14991  11.271  10.218   6.390 -0.1257  0.1525  0.1824
  937loPI   C4B14992  11.376  10.478   6.757 -0.1286 -0.1605 -0.2351
  938loPI    C114993   7.822   2.343   4.835  0.0576 -0.1292  0.2413
  938loPI    C214994   8.080   2.646   4.795 -0.0689 -0.0465  0.0337
  938loPI    C314995   8.112   2.324   4.561 -0.0866 -0.0847  0.0835
  938loPI   PO414996   7.849   2.411   5.219 -0.0364 -0.1412 -0.1579
  938loPI   GL114997   7.928   2.665   5.540  0.0787 -0.1554 -0.1975
  938loPI   GL214998   8.190   2.448   5.637 -0.1983  0.0278 -0.0702
  938loPI   C1A14999   7.691   2.427   5.874  0.1430  0.0148  0.0610
  938loPI   C2A15000   7.656   2.251   6.290 -0.0421  0.0557  0.0308
  938loPI   C3A15001   7.563   2.087   6.702 -0.0260 -0.2015  0.2566
  938loPI   C4A15002   7.471   2.034   7.109 -0.0029 -0.3119 -0.0032
  938loPI   C5A15003   7.637   2.136   7.443  0.0951  0.3182  0.1542
  938loPI   C6A15004   7.603   1.880   7.883  0.2380  0.2898  0.0431
  938loPI   C1B15005   8.079   2.588   6.064 -0.3437  0.0877 -0.1760
  938loPI   C2B15006   7.997   2.618   6.457 -0.0934 -0.2340 -0.1230
  938loPI   C3B15007   7.962   2.380   6.777 -0.1501 -0.0327  0.4113
  938loPI   C4B15008   8.082   2.353   7.273 -0.3039 -0.0435  0.5209
  939loPI    C115009  14.892   9.945   4.309  0.0313  0.0379 -0.0481
  939loPI    C215010  15.174   9.737   4.115  0.0198  0.0094 -0.0344
  939loPI    C315011  14.810   9.579   4.169  0.1020 -0.0912  0.2405
  939loPI   PO415012  14.929  10.016   4.522  0.1760  0.0456 -0.1121
  939loPI   GL115013  15.001   9.853   4.941  0.0838  0.2134 -0.2033
  939loPI   GL215014  14.653   9.893   4.980 -0.3202 -0.0385 -0.0126
  939loPI   C1A15015  15.159   9.926   5.377 -0.0507 -0.1659 -0.1846
  939loPI   C2A15016  15.127   9.739   5.758  0.1498 -0.3129 -0.1705
  939loPI   C3A15017  15.113   9.769   6.145  0.2183 -0.1392 -0.2251
  939loPI   C4A15018  15.032   9.745   6.568  0.1290  0.2875 -0.2996
  939loPI   C5A15019  14.744   9.759   6.840 -0.1794  0.0796  0.1835
  939loPI   C6A15020  14.328   9.959   6.956  0.0583 -0.0809  0.0805
  939loPI   C1B15021  14.686   9.893   5.424  0.1271  0.2909 -0.1811
  939loPI   C2B15022  14.649  10.025   5.880  0.2268 -0.0473  0.2044
  939loPI   C3B15023  14.606  10.392   6.081 -0.1437  0.0278  0.1033
  939loPI   C4B15024  14.224  10.642   6.199  0.0906 -0.1757 -0.0943
  940loPI    C115025  13.991   3.060   4.612  0.0817 -0.0351  0.0382
  940loPI    C215026  14.258   2.974   4.326  0.0593 -0.0311  0.0161
  940loPI    C315027  13.868   2.990   4.238  0.0529 -0.0246  0.0458
  940loPI   PO415028  14.077   3.230   4.772  0.0009 -0.1493 -0.1484
  940loPI   GL115029  14.180   3.097   5.241  0.2639  0.0417  0.0532
  940loPI   GL215030  13.822   3.150   5.247  0.0539 -0.1602 -0.2033
  940loPI   C1A15031  14.267   3.230   5.707  0.0799  0.0450  0.1548
  940loPI   C2A15032  14.017   3.022   6.098 -0.0690 -0.0614  0.1425
  940loPI   C3A15033  13.937   3.116   6.546 -0.1330  0.0985 -0.1604
  940loPI   C4A15034  13.936   3.271   6.954  0.1489  0.2291  0.0474
  940loPI   C5A15035  13.664   3.257   7.357 -0.0917 -0.0756  0.0956
  940loPI   C6A15036  13.808   3.124   7.704 -0.2303 -0.2194 -0.1068
  940loPI   C1B15037  13.639   3.079   5.682  0.0897 -0.0517  0.0185
  940loPI   C2B15038  13.413   3.244   6.143  0.2700  0.0668  0.2339
  940loPI   C3B15039  13.308   3.351   6.517  0.1222 -0.2155  0.1741
  940loPI   C4B15040  13.297   3.366   7.041  0.0038  0.0355  0.0889
  941loPI    C115041   8.273  12.755   4.445 -0.0561  0.1082  0.0631
  941loPI    C215042   7.898  12.632   4.510 -0.1158  0.1058 -0.2674
  941loPI    C315043   7.975  13.021   4.457 -0.0505  0.1210 -0.0702
  941loPI   PO415044   8.439  12.654   4.588  0.2725  0.0565 -0.1394
  941loPI   GL115045   8.464  12.504   4.968  0.0427 -0.0776  0.1055
  941loPI   GL215046   8.423  12.665   5.221  0.0162 -0.0078 -0.1535
  941loPI   C1A15047   8.370  12.058   5.204  0.2849 -0.1226  0.4354
  941loPI   C2A15048   8.317  11.869   5.630  0.1623 -0.0722  0.0380
  941loPI   C3A15049   8.295  11.668   6.085  0.0051  0.1259 -0.2100
  941loPI   C4A15050   8.224  11.814   6.524  0.2417 -0.0682 -0.2730
  941loPI   C5A15051   8.335  11.524   6.896  0.3497 -0.2717 -0.0393
  941loPI   C6A15052   8.553  11.225   7.009 -0.1669 -0.1037 -0.0754
  941loPI   C1B15053   8.603  12.932   5.480  0.0583 -0.0273  0.0817
  941loPI   C2B15054   8.575  13.143   5.918 -0.2073  0.0915  0.1458
  941loPI   C3B15055   8.789  13.161   6.300 -0.0167 -0.1905 -0.1116
  941loPI   C4B15056   8.842  13.256   6.732 -0.0950  0.0186  0.0742
  942loPI    C115057  11.547  16.330   4.761 -0.1477  0.0496 -0.1380
  942loPI    C215058  11.667  15.994   4.580  0.0078  0.0307 -0.0030
  942loPI    C315059  11.478  16.278   4.370  0.3316  0.0818 -0.2341
  942loPI   PO415060  11.746  16.500   4.886 -0.0162  0.0432  0.0523
  942loPI   GL115061  11.981  16.337   5.337  0.2546  0.1135 -0.2091
  942loPI   GL215062  11.758  16.613   5.453  0.3271 -0.1774 -0.3056
  942loPI   C1A15063  12.238  16.617   5.688  0.1128 -0.1600  0.2201
  942loPI   C2A15064  12.257  16.544   6.174  0.2968  0.0447  0.1393
  942loPI   C3A15065  12.336  16.552   6.576 -0.1150 -0.1276 -0.3016
  942loPI   C4A15066  12.462  16.653   7.013  0.1835 -0.0546  0.3204
  942loPI   C5A15067  12.594  16.886   7.371  0.0012  0.4426 -0.1697
  942loPI   C6A15068  12.306  17.234   7.475 -0.0494  0.1263  0.2383
  942loPI   C1B15069  11.776  16.389   5.795 -0.0566 -0.1244  0.1231
  942loPI   C2B15070  11.707  16.116   6.210  0.1720 -0.2079  0.2355
  942loPI   C3B15071  11.682  15.970   6.589 -0.0098 -0.1051  0.1474
  942loPI   C4B15072  11.516  15.570   6.600  0.0205 -0.1382 -0.4790
  943loPI    C115073  11.878   8.442   4.807 -0.1100 -0.0474  0.0827
  943loPI    C215074  12.044   8.285   4.480  0.0985  0.2154  0.0587
  943loPI    C315075  11.789   8.591   4.447  0.1493  0.2672  0.1442
  943loPI   PO415076  12.141   8.378   5.004  0.0790 -0.0293  0.1810
  943loPI   GL115077  12.400   8.353   5.425  0.1221 -0.0544  0.1344
  943loPI   GL215078  12.648   8.355   5.515 -0.2409  0.0455  0.0622
  943loPI   C1A15079  12.227   8.250   5.813 -0.2614 -0.0039  0.2980
  943loPI   C2A15080  12.235   8.438   6.223 -0.0140 -0.1205  0.3666
  943loPI   C3A15081  12.113   8.777   6.504  0.1251 -0.2955 -0.0668
  943loPI   C4A15082  12.027   9.031   6.804  0.2466 -0.1413 -0.1853
  943loPI   C5A15083  11.995   9.186   7.204  0.3825 -0.1617  0.0704
  943loPI   C6A15084  11.734   9.391   7.624  0.1414 -0.0974 -0.0690
  943loPI   C1B15085  12.735   8.440   5.918 -0.1199 -0.3493  0.0367
  943loPI   C2B15086  13.001   8.757   6.242  0.0955  0.0444  0.0582
  943loPI   C3B15087  13.243   8.713   6.546 -0.0951  0.0170 -0.0414
  943loPI   C4B15088  13.441   8.621   6.985  0.0784 -0.2923  0.2758
  944loPI    C115089  12.435   3.692   4.881  0.2306 -0.0917  0.0266
  944loPI    C215090  12.719   3.717   4.601  0.0071  0.1223 -0.1866
  944loPI    C315091  12.420   3.455   4.559  0.0297  0.0816 -0.0949
  944loPI   PO415092  12.479   3.650   5.073 -0.2332 -0.2076 -0.1898
  944loPI   GL115093  12.196   3.460   5.424 -0.3912 -0.0993  0.0739
  944loPI   GL215094  12.269   3.787   5.541 -0.1866 -0.2763 -0.0092
  944loPI   C1A15095  12.189   3.333   5.843  0.1248 -0.1387  0.4183
  944loPI   C2A15096  12.347   3.326   6.176  0.0507  0.0928  0.2157
  944loPI   C3A15097  12.591   3.270   6.500 -0.0307  0.0252 -0.1362
  944loPI   C4A15098  12.969   3.067   6.662 -0.1304 -0.1023 -0.0851
  944loPI   C5A15099  13.151   2.812   7.040 -0.1865 -0.2692 -0.1771
  944loPI   C6A15100  13.095   2.591   7.496  0.0597  0.0469 -0.1493
  944loPI   C1B15101  12.334   3.834   6.001 -0.2018 -0.1751  0.0732
  944loPI   C2B15102  12.414   3.819   6.428  0.3269  0.1790  0.1497
  944loPI   C3B15103  12.419   3.714   6.832  0.1335  0.1070 -0.2225
  944loPI   C4B15104  12.386   3.716   7.317 -0.1717  0.0868  0.0142
  945loPI    C115105   3.225  16.253   5.012 -0.2479 -0.0378  0.0197
  945loPI    C215106   3.122  15.870   5.064 -0.1727 -0.0505  0.0787
  945loPI    C315107   3.048  16.052   4.715  0.1015 -0.2204 -0.0708
  945loPI   PO415108   3.218  16.354   5.188  0.2558  0.1585 -0.2425
  945loPI   GL115109   3.211  16.632   5.455  0.0200  0.4563 -0.2445
  945loPI   GL215110   2.792  16.629   5.540  0.0077 -0.1036  0.0517
  945loPI   C1A15111   3.487  16.507   5.780 -0.0302 -0.3619  0.1827
  945loPI   C2A15112   3.772  16.449   6.074 -0.2675 -0.2175  0.0996
  945loPI   C3A15113   3.683  16.326   6.373  0.0414  0.0860  0.0605
  945loPI   C4A15114   3.578  16.090   6.802 -0.1817  0.1265 -0.3297
  945loPI   C5A15115   3.476  16.019   7.323 -0.1091  0.3114  0.2100
  945loPI   C6A15116   3.427  16.118   7.627  0.0748  0.2064 -0.2756
  945loPI   C1B15117   3.013  16.470   5.931 -0.1791  0.0843 -0.2105
  945loPI   C2B15118   2.982  16.242   6.373 -0.0833  0.0641  0.0749
  945loPI   C3B15119   2.798  15.754   6.510 -0.2602 -0.0716  0.1579
  945loPI   C4B15120   2.632  15.735   6.976  0.1248  0.0576 -0.1375
  946loPI    C115121  17.098   6.106   4.298 -0.1772 -0.2120  0.0993
  946loPI    C215122  17.306   6.007   3.971 -0.0877  0.0037  0.0892
  946loPI    C315123  16.907   6.032   3.955 -0.0841  0.0050 -0.0009
  946loPI   PO415124  17.268   6.143   4.475 -0.1047  0.1451  0.4283
  946loPI   GL115125  17.283   6.304   4.871  0.2073 -0.4747  0.1714
  946loPI   GL215126  17.026   6.024   4.886  0.1387 -0.1479  0.0449
  946loPI   C1A15127  17.159   6.355   5.325 -0.0197  0.1251  0.0758
  946loPI   C2A15128  17.065   6.572   5.691  0.0998  0.0752  0.2494
  946loPI   C3A15129  17.090   6.664   6.091 -0.1733 -0.3018 -0.0826
  946loPI   C4A15130  17.172   6.649   6.523 -0.0282 -0.0499 -0.2029
  946loPI   C5A15131  17.095   6.729   6.840 -0.1841 -0.1477  0.0855
  946loPI   C6A15132  16.831   6.724   7.117  0.0507  0.0367  0.0968
  946loPI   C1B15133  16.780   5.951   5.283 -0.2913 -0.0452 -0.1262
  946loPI   C2B15134  16.718   5.926   5.754  0.3291  0.0791 -0.0462
  946loPI   C3B15135  16.701   6.282   6.017  0.1236  0.1236 -0.0960
  946loPI   C4B15136  16.743   6.381   6.391 -0.4052 -0.2759 -0.0745
  947loPI    C115137  11.478   2.136   4.854  0.0762 -0.0826  0.1519
  947loPI    C215138  11.633   2.500   4.795 -0.0767 -0.0131  0.1740
  947loPI    C315139  11.870   2.178   4.789 -0.0042  0.0421 -0.2908
  947loPI   PO415140  11.387   2.112   5.157 -0.4177 -0.3497  0.0219
  947loPI   GL115141  11.019   1.979   5.322  0.4525 -0.0878 -0.2356
  947loPI   GL215142  10.830   1.711   5.510  0.0911 -0.1475 -0.0510
  947loPI   C1A15143  11.023   2.131   5.749  0.0759  0.5096  0.0374
  947loPI   C2A15144  10.782   2.100   6.072 -0.0747  0.2266  0.0060
  947loPI   C3A15145  10.618   2.059   6.564 -0.1823  0.0002 -0.3475
  947loPI   C4A15146  10.386   1.945   6.951 -0.1298  0.0797  0.0671
  947loPI   C5A15147   9.935   2.028   6.992 -0.0376  0.2891 -0.0388
  947loPI   C6A15148   9.744   2.466   6.840  0.0745  0.1736  0.1224
  947loPI   C1B15149  10.947   1.627   5.932  0.1053  0.3914 -0.0144
  947loPI   C2B15150  11.072   1.372   6.246 -0.1679 -0.0717  0.1563
  947loPI   C3B15151  11.050   1.219   6.661 -0.1030 -0.0636  0.0177
  947loPI   C4B15152  10.911   1.148   7.040  0.0521 -0.0306 -0.0941
  948loPI    C115153  11.115  14.156   4.519  0.0691 -0.0127 -0.0790
  948loPI    C215154  11.482  14.317   4.515  0.0381  0.0570 -0.1932
  948loPI    C315155  11.183  14.495   4.317 -0.0431 -0.0342 -0.1539
  948loPI   PO415156  11.075  14.128   4.786  0.1700 -0.2221 -0.0348
  948loPI   GL115157  10.930  14.223   5.152  0.0277 -0.0512 -0.0195
  948loPI   GL215158  10.749  13.956   5.130 -0.0183 -0.0132 -0.2275
  948loPI   C1A15159  10.938  14.375   5.591 -0.3503 -0.0588  0.1093
  948loPI   C2A15160  10.622  14.523   5.813  0.2149 -0.1411  0.0776
  948loPI   C3A15161  10.505  14.743   6.222  0.1172 -0.1742 -0.1434
  948loPI   C4A15162  10.356  14.552   6.572  0.2384  0.1207  0.2098
  948loPI   C5A15163  10.087  14.491   6.986  0.2625  0.2360  0.1386
  948loPI   C6A15164   9.932  14.327   7.376  0.0384 -0.1989  0.1594
  948loPI   C1B15165  10.592  13.969   5.628  0.2499  0.2751 -0.0378
  948loPI   C2B15166  10.385  13.860   6.037 -0.2195 -0.3096 -0.3273
  948loPI   C3B15167   9.912  13.854   6.116 -0.0992 -0.0348 -0.1744
  948loPI   C4B15168   9.539  13.663   6.096 -0.0084 -0.0775  0.0335
  949loPI    C115169  14.399  14.196   4.551 -0.1776 -0.1195 -0.0206
  949loPI    C215170  14.428  14.353   4.184 -0.3555  0.0781  0.0475
  949loPI    C315171  14.408  13.956   4.231  0.1746  0.0229 -0.1224
  949loPI   PO415172  14.257  14.502   4.642 -0.1551 -0.0924 -0.0254
  949loPI   GL115173  14.041  14.703   4.915 -0.2695 -0.0333  0.2558
  949loPI   GL215174  13.765  14.666   5.218 -0.2285  0.2373 -0.4802
  949loPI   C1A15175  14.178  14.731   5.437 -0.2783 -0.0459 -0.0967
  949loPI   C2A15176  14.202  14.787   5.942  0.0628  0.0430 -0.1025
  949loPI   C3A15177  14.051  14.860   6.366 -0.2957 -0.0568  0.3425
  949loPI   C4A15178  13.847  15.245   6.523 -0.0656  0.0878 -0.1383
  949loPI   C5A15179  13.984  15.666   6.531 -0.1006 -0.0247 -0.0297
  949loPI   C6A15180  13.819  16.016   6.792  0.0150 -0.0746  0.0626
  949loPI   C1B15181  13.599  14.624   5.629  0.5411  0.0712  0.2519
  949loPI   C2B15182  13.298  14.580   5.996 -0.0554  0.0503 -0.0633
  949loPI   C3B15183  13.149  14.708   6.522  0.0345 -0.2749  0.0117
  949loPI   C4B15184  13.157  14.684   7.032 -0.1646 -0.0658  0.4204
  950loPI    C115185  11.413  17.796   4.890  0.2589  0.0742  0.0201
  950loPI    C215186  11.395  18.172   4.754  0.1153  0.0003 -0.1689
  950loPI    C315187  11.646  17.910   4.585  0.2075  0.0073 -0.0442
  950loPI   PO415188  11.424  17.784   5.175  0.2547 -0.0098  0.2492
  950loPI   GL115189  11.525  17.905   5.598  0.1605 -0.0681 -0.1031
  950loPI   GL215190  11.821  18.086   5.562  0.2305 -0.0457  0.1727
  950loPI   C1A15191  11.380  18.063   6.063 -0.2317  0.1347  0.0168
  950loPI   C2A15192  11.282  18.364   6.418 -0.1382 -0.2567  0.4279
  950loPI   C3A15193  11.364  18.651   6.758  0.2222  0.2889  0.3330
  950loPI   C4A15194  11.142  18.867   7.086  0.1116 -0.0352 -0.1372
  950loPI   C5A15195  10.884  18.626   7.317  0.1794 -0.1553  0.5389
  950loPI   C6A15196  10.513  18.502   7.190  0.0606  0.1302 -0.2445
  950loPI   C1B15197  12.005  18.018   5.998  0.2161  0.2271  0.1330
  950loPI   C2B15198  12.216  18.212   6.321  0.2275 -0.0142  0.3985
  950loPI   C3B15199  12.343  18.180   6.741  0.0029 -0.0978 -0.1378
  950loPI   C4B15200  12.302  18.102   7.194  0.3499  0.3057  0.0711
  951loPI    C115201   3.384  19.097   4.519  0.2402  0.0206 -0.0117
  951loPI    C215202   3.242  18.867   4.224  0.2248  0.0255 -0.0081
  951loPI    C315203   3.160  19.258   4.230  0.1516  0.0094  0.0503
  951loPI   PO415204   3.354  19.067   4.766 -0.2198  0.0981  0.2145
  951loPI   GL115205   3.172  18.958   5.077  0.0013  0.2306  0.1182
  951loPI   GL215206   3.279  18.590   5.223  0.0361  0.1578  0.1872
  951loPI   C1A15207   3.168  19.168   5.482 -0.0456 -0.1044 -0.0136
  951loPI   C2A15208   3.067  19.472   5.860  0.0727  0.1362 -0.2793
  951loPI   C3A15209   3.035  19.514   6.301 -0.1511 -0.0337  0.0300
  951loPI   C4A15210   3.018  19.702   6.711 -0.0733 -0.3319  0.0500
  951loPI   C5A15211   3.120  19.688   7.141 -0.1918  0.0412  0.0565
  951loPI   C6A15212   3.198  19.554   7.568  0.0376 -0.0219  0.1396
  951loPI   C1B15213   3.254  18.596   5.713 -0.0466 -0.2411  0.1098
  951loPI   C2B15214   3.242  18.551   6.104 -0.2777  0.1309 -0.0854
  951loPI   C3B15215   3.228  18.572   6.521  0.2091  0.0134  0.2524
  951loPI   C4B15216   3.326  18.672   6.840 -0.1014  0.0246 -0.0137
  952loPI    C115217   7.102  18.989   4.701  0.0272 -0.0504 -0.0388
  952loPI    C215218   6.962  18.680   4.488 -0.3910  0.1246 -0.0294
  952loPI    C315219   7.000  19.039   4.317 -0.1540  0.1301  0.0309
  952loPI   PO415220   7.010  18.998   4.925  0.0252 -0.0474 -0.1223
  952loPI   GL115221   7.153  19.170   5.306  0.0674  0.5385  0.1672
  952loPI   GL215222   6.953  19.499   5.391  0.0059  0.1380  0.0700
  952loPI   C1A15223   7.234  19.272   5.755 -0.2885 -0.0132 -0.0177
  952loPI   C2A15224   6.908  19.406   6.106  0.0969  0.0561  0.0173
  952loPI   C3A15225   6.916  19.337   6.559 -0.0358  0.0199 -0.3353
  952loPI   C4A15226   6.879  19.440   6.977  0.1511  0.0536  0.2081
  952loPI   C5A15227   6.959  19.284   7.312 -0.2412  0.1267 -0.0031
  952loPI   C6A15228   7.078  19.338   7.732  0.0005  0.1261 -0.3345
  952loPI   C1B15229   6.882  19.775   5.768 -0.2013 -0.1177 -0.0287
  952loPI   C2B15230   7.053  19.851   6.223 -0.2519 -0.5187 -0.1933
  952loPI   C3B15231   6.995  19.843   6.545 -0.2107 -0.0230 -0.0902
  952loPI   C4B15232   6.901  20.014   6.970 -0.3362 -0.0839 -0.1392
  953loPI    C115233  14.216  13.689   4.616 -0.0671 -0.1402  0.1812
  953loPI    C215234  13.967  13.582   4.321  0.0746 -0.0474  0.0265
  953loPI    C315235  14.186  13.305   4.508 -0.0313 -0.1092  0.0599
  953loPI   PO415236  14.124  13.874   4.881  0.1935 -0.0888  0.2629
  953loPI   GL115237  14.168  14.013   5.344 -0.1189 -0.1540  0.1201
  953loPI   GL215238  14.344  14.220   5.214 -0.0129  0.1658 -0.0251
  953loPI   C1A15239  13.997  14.352   5.681 -0.3803  0.0707 -0.1730
  953loPI   C2A15240  13.780  14.420   6.110 -0.2611  0.2235 -0.0623
  953loPI   C3A15241  13.551  14.488   6.547 -0.2437  0.2861 -0.1696
  953loPI   C4A15242  13.465  14.258   6.921 -0.1605 -0.1155  0.5079
  953loPI   C5A15243  13.662  14.004   7.081  0.1674  0.0168 -0.0964
  953loPI   C6A15244  14.125  13.964   7.181  0.1646 -0.1727  0.0150
  953loPI   C1B15245  14.501  14.353   5.617 -0.3513  0.3811  0.1088
  953loPI   C2B15246  14.597  14.475   5.898 -0.2042  0.2063 -0.1986
  953loPI   C3B15247  14.230  14.401   6.219  0.0518  0.0769  0.2777
  953loPI   C4B15248  14.028  14.454   6.687 -0.1160  0.0284  0.0333
  954loPI    C115249   3.697   9.474   4.422  0.0929  0.0983 -0.0848
  954loPI    C215250   3.777   9.109   4.281 -0.1167  0.0131  0.0125
  954loPI    C315251   4.018   9.415   4.191 -0.1253 -0.0815 -0.3494
  954loPI   PO415252   3.446   9.515   4.427  0.0830  0.0223  0.0522
  954loPI   GL115253   3.318   9.598   4.824  0.0907  0.1070  0.0210
  954loPI   GL215254   3.643   9.704   4.932 -0.0224  0.2349 -0.2160
  954loPI   C1A15255   3.338   9.329   5.167  0.2318  0.1527  0.0784
  954loPI   C2A15256   3.170   9.124   5.522 -0.3723 -0.1158 -0.2376
  954loPI   C3A15257   2.793   9.232   5.797 -0.0472 -0.0919  0.0950
  954loPI   C4A15258   2.747   9.147   6.204  0.4696  0.1669  0.2378
  954loPI   C5A15259   2.615   9.338   6.649  0.2378 -0.0351  0.0413
  954loPI   C6A15260   2.499   9.673   6.918  0.2563 -0.0357  0.2424
  954loPI   C1B15261   3.597   9.838   5.311  0.0189 -0.1526  0.1362
  954loPI   C2B15262   3.766   9.905   5.751  0.0254  0.2342  0.0151
  954loPI   C3B15263   3.994   9.966   6.158  0.0742  0.0085  0.1015
  954loPI   C4B15264   4.181  10.300   6.356 -0.1382 -0.1768  0.0174
  955loPI    C115265   7.944   7.640   4.931  0.0964 -0.0593  0.0546
  955loPI    C215266   8.174   7.967   4.935  0.1950 -0.1260 -0.0857
  955loPI    C315267   7.870   7.934   5.192  0.3088 -0.0136  0.0652
  955loPI   PO415268   7.997   7.438   4.929  0.3645 -0.1638 -0.1543
  955loPI   GL115269   7.818   7.241   5.318 -0.1573  0.3625 -0.0841
  955loPI   GL215270   7.555   7.048   5.464  0.0236  0.0180  0.1329
  955loPI   C1A15271   7.948   7.535   5.597  0.0992  0.0315  0.1103
  955loPI   C2A15272   7.907   7.557   6.066  0.2220  0.1076  0.0466
  955loPI   C3A15273   7.765   7.259   6.451  0.0715  0.0418  0.1046
  955loPI   C4A15274   7.604   6.899   6.647  0.0548 -0.0567  0.0639
  955loPI   C5A15275   7.512   6.793   6.996 -0.0270 -0.0870  0.2910
  955loPI   C6A15276   7.731   6.625   7.345  0.1242  0.2487  0.1554
  955loPI   C1B15277   7.619   7.184   5.977  0.3853  0.2478 -0.1320
  955loPI   C2B15278   7.319   7.496   6.188  0.1598 -0.1332  0.1012
  955loPI   C3B15279   6.903   7.600   6.375  0.0060  0.3919 -0.0335
  955loPI   C4B15280   6.705   7.965   6.509  0.2885 -0.0982 -0.0249
  956loPI    C115281  17.307  15.333   4.727  0.0865 -0.0276  0.0087
  956loPI    C215282  17.563  15.108   4.936  0.0132 -0.0731  0.0506
  956loPI    C315283  17.362  14.950   4.629 -0.0228 -0.0588  0.0665
  956loPI   PO415284  17.178  15.483   4.874 -0.1296  0.1722 -0.3044
  956loPI   GL115285  17.093  15.428   5.262  0.2382 -0.0209  0.0209
  956loPI   GL215286  17.370  15.368   5.358  0.1203 -0.1855  0.1087
  956loPI   C1A15287  17.022  15.787   5.614 -0.1997  0.1162 -0.1675
  956loPI   C2A15288  16.946  15.630   6.026  0.0765 -0.1395 -0.0463
  956loPI   C3A15289  16.753  15.722   6.502  0.0316  0.2055 -0.1137
  956loPI   C4A15290  16.388  15.892   6.708  0.1949 -0.1958  0.0611
  956loPI   C5A15291  16.366  15.782   7.163 -0.3703  0.1595 -0.0594
  956loPI   C6A15292  16.385  15.608   7.422 -0.1592  0.1525 -0.0911
  956loPI   C1B15293  17.324  15.392   5.809 -0.1167  0.1421 -0.1254
  956loPI   C2B15294  17.542  15.470   6.095 -0.2707  0.1768 -0.1075
  956loPI   C3B15295  17.739  15.842   6.349 -0.0222 -0.0073 -0.2654
  956loPI   C4B15296  17.686  16.244   6.362 -0.2415  0.2215 -0.2513
  957loPI    C115297   1.421  11.792   3.780 -0.0862  0.0257  0.0282
  957loPI    C215298   1.666  11.595   3.533 -0.0589  0.0541  0.0329
  957loPI    C315299   1.271  11.585   3.471 -0.0563  0.0127  0.0224
  957loPI   PO415300   1.474  11.732   4.092  0.2122  0.0465 -0.0000
  957loPI   GL115301   1.277  11.765   4.462 -0.0763  0.2803  0.0938
  957loPI   GL215302   1.077  11.871   4.623  0.0262 -0.0699 -0.2217
  957loPI   C1A15303   1.653  11.711   4.806  0.0645 -0.0434 -0.1913
  957loPI   C2A15304   1.888  11.631   5.015  0.0195 -0.0800 -0.2088
  957loPI   C3A15305   1.924  11.336   5.478  0.1442 -0.0568  0.2852
  957loPI   C4A15306   1.478  11.232   5.729  0.2041 -0.0112  0.1912
  957loPI   C5A15307   0.972  11.256   5.721 -0.0711  0.2261  0.3098
  957loPI   C6A15308   0.691  11.521   5.901  0.3772  0.0462  0.0069
  957loPI   C1B15309   1.233  11.853   5.030  0.1229  0.1224  0.1070
  957loPI   C2B15310   1.132  11.751   5.425 -0.2238 -0.2698 -0.1715
  957loPI   C3B15311   1.343  11.692   5.903  0.1236  0.0208 -0.1541
  957loPI   C4B15312   1.648  11.494   6.199  0.3099  0.1337 -0.2704
  958loPI    C115313  15.487  14.129   4.966 -0.1335  0.2689  0.2995
  958loPI    C215314  15.835  14.111   5.163  0.0066 -0.2020  0.0248
  958loPI    C315315  15.815  14.295   4.809 -0.1395  0.2387  0.2547
  958loPI   PO415316  15.338  14.200   5.145 -0.1292  0.0075 -0.1130
  958loPI   GL115317  15.518  14.421   5.460 -0.3162  0.1446  0.0541
  958loPI   GL215318  15.861  14.450   5.647 -0.2809 -0.2796 -0.0843
  958loPI   C1A15319  15.374  14.231   5.813 -0.1410 -0.0092  0.0624
  958loPI   C2A15320  15.029  14.193   6.009 -0.0627 -0.5290  0.3116
  958loPI   C3A15321  14.873  14.378   6.345 -0.0500  0.2141  0.1085
  958loPI   C4A15322  14.559  14.503   6.610  0.0401 -0.3066  0.0476
  958loPI   C5A15323  14.327  14.893   6.777 -0.0736 -0.1010  0.0685
  958loPI   C6A15324  13.872  14.943   6.934  0.0525  0.1027 -0.0869
  958loPI   C1B15325  15.895  14.104   5.928 -0.1170  0.0663  0.0489
  958loPI   C2B15326  15.628  14.006   6.274 -0.3737 -0.1138  0.1082
  958loPI   C3B15327  15.296  14.216   6.465 -0.1308 -0.0929  0.0833
  958loPI   C4B15328  15.010  14.331   6.807 -0.1590 -0.1387 -0.1365
  959loPI    C115329   8.961   1.848   4.987 -0.2007 -0.2949 -0.0383
  959loPI    C215330   9.065   2.082   4.679 -0.1729 -0.1483  0.0809
  959loPI    C315331   8.868   1.739   4.614 -0.3333 -0.0261 -0.0864
  959loPI   PO415332   8.868   2.084   5.199  0.1152  0.0367 -0.2185
  959loPI   GL115333   8.661   2.288   5.523  0.0842 -0.0562  0.0406
  959loPI   GL215334   8.488   2.027   5.534 -0.2669 -0.0283 -0.3107
  959loPI   C1A15335   8.599   2.457   5.914  0.0501 -0.0814  0.4674
  959loPI   C2A15336   8.480   2.439   6.319 -0.3351 -0.1069 -0.1000
  959loPI   C3A15337   8.470   2.344   6.785 -0.0718 -0.1428 -0.0712
  959loPI   C4A15338   8.462   2.548   7.077  0.1197 -0.1292 -0.1309
  959loPI   C5A15339   8.701   2.572   7.526 -0.0379 -0.0976  0.1325
  959loPI   C6A15340   8.592   2.886   7.917 -0.1482  0.0685  0.1756
  959loPI   C1B15341   8.654   1.938   5.889 -0.2020  0.1178  0.0003
  959loPI   C2B15342   8.787   2.063   6.219  0.0586 -0.2131  0.1286
  959loPI   C3B15343   9.043   1.922   6.541 -0.0224 -0.0586 -0.1118
  959loPI   C4B15344   9.616   1.950   6.569 -0.0148  0.1982  0.2533
  960loPI    C115345  14.366   1.068   4.833  0.0617  0.0835  0.0507
  960loPI    C215346  14.601   0.899   4.557  0.1810  0.2590  0.0431
  960loPI    C315347  14.243   1.044   4.453 -0.0072 -0.1580  0.0864
  960loPI   PO415348  14.436   0.985   5.096  0.1600  0.2336 -0.0731
  960loPI   GL115349  14.655   0.943   5.369 -0.0776 -0.0462 -0.2051
  960loPI   GL215350  14.779   1.273   5.460 -0.2646  0.0188  0.1722
  960loPI   C1A15351  14.700   0.893   5.879  0.4629 -0.2627 -0.2550
  960loPI   C2A15352  14.837   0.865   6.352 -0.1420  0.4868 -0.2585
  960loPI   C3A15353  14.846   0.822   6.802 -0.1138 -0.0197  0.0472
  960loPI   C4A15354  14.713   0.916   7.205 -0.2462 -0.0899  0.0879
  960loPI   C5A15355  14.752   1.165   7.593  0.1644 -0.1129  0.2781
  960loPI   C6A15356  14.564   1.192   7.925  0.1666  0.1927 -0.1601
  960loPI   C1B15357  14.867   1.414   5.870  0.2341 -0.0640  0.1347
  960loPI   C2B15358  14.924   1.313   6.264  0.0473 -0.1313  0.1069
  960loPI   C3B15359  14.918   1.388   6.732 -0.0531 -0.0174 -0.0979
  960loPI   C4B15360  15.189   1.201   7.004  0.0040  0.1749  0.0452
  961loPI    C115361   4.458  17.122   4.459  0.0733  0.0220  0.0669
  961loPI    C215362   4.362  17.454   4.258  0.2668 -0.0392 -0.1312
  961loPI    C315363   4.103  17.150   4.278  0.0082  0.1954  0.2177
  961loPI   PO415364   4.499  17.180   4.753  0.0573 -0.3432 -0.2949
  961loPI   GL115365   4.364  17.306   5.139 -0.0525 -0.0670 -0.2976
  961loPI   GL215366   4.082  17.119   5.294 -0.1133 -0.0413 -0.1157
  961loPI   C1A15367   4.531  17.453   5.492 -0.2698 -0.1104 -0.0104
  961loPI   C2A15368   4.977  17.706   5.709  0.0016 -0.1558 -0.0328
  961loPI   C3A15369   5.212  17.532   6.049 -0.0846  0.2515  0.3495
  961loPI   C4A15370   5.442  17.297   6.407 -0.0551 -0.1633 -0.1075
  961loPI   C5A15371   5.688  17.399   6.791  0.2764 -0.0465 -0.2275
  961loPI   C6A15372   5.943  17.183   7.126  0.1960 -0.0691  0.1183
  961loPI   C1B15373   4.177  17.227   5.722 -0.1482  0.0403  0.0700
  961loPI   C2B15374   3.946  17.297   6.070 -0.0097 -0.3611  0.0253
  961loPI   C3B15375   4.048  17.321   6.493 -0.0445 -0.1893 -0.2080
  961loPI   C4B15376   4.358  17.245   6.865 -0.2515 -0.0052  0.4195
  962loPI    C115377  15.320  11.839   4.630  0.0360 -0.1017 -0.1140
  962loPI    C215378  15.500  12.172   4.759 -0.2612  0.0491 -0.0793
  962loPI    C315379  15.587  12.025   4.397  0.0334  0.0379 -0.0070
  962loPI   PO415380  15.181  11.759   4.872 -0.0136 -0.1967  0.2162
  962loPI   GL115381  15.136  11.624   5.228 -0.1319 -0.1458  0.0137
  962loPI   GL215382  15.328  11.425   5.202 -0.0652 -0.0209 -0.1940
  962loPI   C1A15383  15.284  11.662   5.719 -0.0200 -0.0857 -0.0767
  962loPI   C2A15384  15.293  11.603   6.185 -0.1781 -0.2037 -0.1960
  962loPI   C3A15385  15.323  11.568   6.556 -0.2215  0.0198  0.0304
  962loPI   C4A15386  15.411  11.390   6.942 -0.2921 -0.6039  0.3203
  962loPI   C5A15387  15.361  11.121   7.296 -0.2304  0.2187 -0.0457
  962loPI   C6A15388  15.302  10.705   7.300  0.0027 -0.0349 -0.1425
  962loPI   C1B15389  15.266  11.199   5.511 -0.0909 -0.0715  0.2824
  962loPI   C2B15390  14.958  11.175   5.874  0.0097 -0.1409  0.1192
  962loPI   C3B15391  14.900  11.362   6.231 -0.1368 -0.0589 -0.2260
  962loPI   C4B15392  14.542  11.674   6.364  0.1001 -0.2675  0.1812
  963loPI    C115393   9.503   2.702   4.889  0.2229 -0.1354 -0.0487
  963loPI    C215394   9.580   3.064   4.739 -0.0463 -0.2154 -0.3939
  963loPI    C315395   9.557   2.748   4.495 -0.1700 -0.4054 -0.1407
  963loPI   PO415396   9.556   2.684   5.130 -0.1021  0.0107  0.0478
  963loPI   GL115397   9.350   2.597   5.508  0.1759  0.1419  0.6369
  963loPI   GL215398   9.174   2.436   5.425  0.0270 -0.0196  0.2770
  963loPI   C1A15399   9.519   2.673   5.845  0.2077  0.2360 -0.0438
  963loPI   C2A15400   9.566   2.721   6.278 -0.1426 -0.0691  0.0169
  963loPI   C3A15401   9.444   2.808   6.750 -0.0278 -0.0123 -0.1760
  963loPI   C4A15402   9.440   2.419   7.194  0.0791  0.0442 -0.0697
  963loPI   C5A15403   9.463   2.031   7.424 -0.1024  0.1754 -0.0732
  963loPI   C6A15404   9.717   1.698   7.292 -0.2548  0.1914 -0.1651
  963loPI   C1B15405   9.094   2.278   5.873  0.0627 -0.0053  0.0094
  963loPI   C2B15406   9.245   2.265   6.210  0.1284  0.0924 -0.1266
  963loPI   C3B15407   9.322   2.306   6.674  0.6123 -0.1393  0.2977
  963loPI   C4B15408   9.324   1.947   6.938 -0.0532  0.0925  0.0446
  964loPI    C115409  10.459   4.873   4.712  0.0567  0.2602 -0.0896
  964loPI    C215410  10.750   4.611   4.793  0.0019  0.1970 -0.0970
  964loPI    C315411  10.671   4.712   4.414 -0.1375  0.0398 -0.1111
  964loPI   PO415412  10.281   4.947   4.996 -0.0960  0.0582  0.2429
  964loPI   GL115413  10.327   5.227   5.294 -0.1777  0.1554 -0.0172
  964loPI   GL215414   9.997   4.979   5.380  0.2445  0.1701  0.0873
  964loPI   C1A15415  10.429   5.349   5.721 -0.0862  0.2398  0.1325
  964loPI   C2A15416  10.368   5.247   6.103 -0.4254  0.2177  0.0970
  964loPI   C3A15417  10.397   5.141   6.504 -0.0493  0.1959 -0.2571
  964loPI   C4A15418  10.522   5.348   6.946 -0.2687  0.1507  0.1532
  964loPI   C5A15419  10.700   5.540   7.241  0.0929  0.0382  0.0305
  964loPI   C6A15420  10.662   5.951   7.367 -0.2102 -0.0911  0.0006
  964loPI   C1B15421  10.011   4.906   5.794  0.1822  0.1376 -0.2808
  964loPI   C2B15422  10.014   4.879   6.278 -0.0329  0.0313 -0.0453
  964loPI   C3B15423   9.992   4.867   6.629  0.2092 -0.0537 -0.3020
  964loPI   C4B15424   9.840   4.907   7.116  0.0566  0.0313  0.0319
  965loPI    C115425   1.205  11.097   4.104  0.0717 -0.1031 -0.1591
  965loPI    C215426   1.476  11.241   3.847  0.0825 -0.0509 -0.1188
  965loPI    C315427   1.088  11.236   3.748  0.0484  0.2642 -0.0130
  965loPI   PO415428   1.380  10.962   4.233 -0.1822  0.0885 -0.3340
  965loPI   GL115429   1.320  10.714   4.706  0.0069  0.1617  0.1812
  965loPI   GL215430   1.492  10.767   5.022  0.3475  0.3135 -0.1853
  965loPI   C1A15431   1.016  10.875   4.972 -0.1161 -0.0153  0.5039
  965loPI   C2A15432   0.749  10.968   5.315 -0.1758  0.2831 -0.1251
  965loPI   C3A15433   0.429  11.113   5.506 -0.0752 -0.0366  0.5100
  965loPI   C4A15434   0.407  11.053   5.950 -0.3033 -0.0522 -0.0632
  965loPI   C5A15435   0.664  11.106   6.258 -0.3113  0.1240 -0.0914
  965loPI   C6A15436   1.039  10.907   6.465  0.2118  0.2774  0.0655
  965loPI   C1B15437   1.264  10.829   5.486  0.1789  0.2522 -0.4523
  965loPI   C2B15438   1.322  10.923   5.998  0.1806 -0.0998  0.0317
  965loPI   C3B15439   1.172  11.295   6.153  0.0961  0.0814 -0.1359
  965loPI   C4B15440   1.243  11.561   6.454 -0.0971 -0.3840 -0.1961
  966loPI    C115441   4.649  18.240   4.522 -0.0479 -0.2676 -0.0776
  966loPI    C215442   4.665  17.887   4.334 -0.1172 -0.2994 -0.0242
  966loPI    C315443   4.567  18.217   4.131 -0.0005 -0.3021 -0.0856
  966loPI   PO415444   4.508  18.120   4.834 -0.0372  0.1620 -0.1876
  966loPI   GL115445   4.448  18.344   5.285 -0.2193 -0.0227 -0.3416
  966loPI   GL215446   4.140  18.375   5.301 -0.0887  0.1739 -0.0207
  966loPI   C1A15447   4.582  18.568   5.557 -0.3379 -0.1353 -0.0202
  966loPI   C2A15448   4.694  18.557   6.047 -0.1615 -0.2064  0.0401
  966loPI   C3A15449   4.818  18.464   6.448  0.0060  0.0299  0.0926
  966loPI   C4A15450   4.882  18.488   6.900  0.1057 -0.1878  0.0342
  966loPI   C5A15451   4.892  18.152   7.318  0.0172  0.0516  0.1277
  966loPI   C6A15452   4.991  18.060   7.810  0.0829 -0.0218 -0.0161
  966loPI   C1B15453   4.127  18.272   5.683  0.0263  0.0163 -0.1041
  966loPI   C2B15454   4.004  18.185   6.109  0.0755 -0.0549 -0.1287
  966loPI   C3B15455   4.049  18.125   6.500 -0.0123  0.1987  0.0631
  966loPI   C4B15456   4.026  17.994   6.949  0.2489  0.1131  0.1293
  967loPI    C115457   3.855   7.085   4.579  0.0713  0.1629  0.1455
  967loPI    C215458   3.496   7.067   4.404  0.0424  0.0087  0.2187
  967loPI    C315459   3.822   7.145   4.185 -0.0220  0.0452  0.1351
  967loPI   PO415460   3.813   7.182   4.842  0.2505 -0.0861 -0.1482
  967loPI   GL115461   3.878   7.223   5.264 -0.1469  0.0697 -0.0429
  967loPI   GL215462   4.014   6.971   5.409  0.1819  0.1220  0.1833
  967loPI   C1A15463   3.516   7.216   5.532  0.1178 -0.1056  0.1710
  967loPI   C2A15464   3.452   7.280   5.903  0.3208  0.3636 -0.2523
  967loPI   C3A15465   3.095   7.454   6.193  0.2543 -0.1054  0.1008
  967loPI   C4A15466   3.032   7.533   6.602  0.2006  0.0151 -0.0543
  967loPI   C5A15467   2.947   7.512   6.986 -0.1409 -0.2001  0.0823
  967loPI   C6A15468   2.711   7.763   7.325  0.4339  0.2713 -0.0931
  967loPI   C1B15469   3.893   7.075   5.823  0.0004 -0.0524 -0.0267
  967loPI   C2B15470   3.908   7.322   6.175 -0.1011  0.4563  0.1610
  967loPI   C3B15471   4.047   7.720   6.438  0.1358  0.1138  0.1020
  967loPI   C4B15472   4.381   7.811   6.550 -0.3257  0.0472 -0.2945
  968loPI    C115473  17.873  11.601   4.287  0.1664 -0.1030  0.1487
  968loPI    C215474  17.578  11.401   4.104  0.2626 -0.1274  0.0186
  968loPI    C315475  17.605  11.798   4.064 -0.0363 -0.0597  0.4255
  968loPI   PO415476  17.936  11.452   4.528  0.0494 -0.0720 -0.2858
  968loPI   GL115477  17.930  11.123   4.901 -0.1633 -0.1049  0.1395
  968loPI   GL215478  17.791  11.387   5.029 -0.1198  0.3377  0.0604
  968loPI   C1A15479  18.094  11.109   5.325  0.2796 -0.0373  0.2372
  968loPI   C2A15480  17.969  11.071   5.716  0.0573 -0.1552 -0.1607
  968loPI   C3A15481  17.965  11.010   6.127  0.2925 -0.0295  0.0278
  968loPI   C4A15482  18.086  10.929   6.495 -0.1739 -0.1702 -0.0313
  968loPI   C5A15483  18.440  10.786   6.667  0.1784 -0.0672 -0.1566
  968loPI   C6A15484  18.560  10.723   6.990 -0.0968  0.1418  0.0059
  968loPI   C1B15485  17.925  11.606   5.440  0.2373 -0.1928  0.1142
  968loPI   C2B15486  17.942  11.633   5.906  0.5202  0.1739 -0.2788
  968loPI   C3B15487  17.872  11.507   6.305 -0.2146 -0.0573 -0.1290
  968loPI   C4B15488  17.521  11.723   6.527 -0.2199 -0.0308  0.2666
  969loPI    C115489   2.646  13.032   4.306 -0.3420  0.0637  0.0522
  969loPI    C215490   2.783  13.322   4.545  0.1203 -0.0684 -0.0427
  969loPI    C315491   2.413  13.345   4.393  0.0016  0.2612  0.2825
  969loPI   PO415492   2.617  12.808   4.483 -0.0776 -0.0392 -0.2907
  969loPI   GL115493   2.575  12.549   4.766  0.2275 -0.0650  0.2636
  969loPI   GL215494   2.853  12.425   4.865 -0.0284 -0.1007  0.3847
  969loPI   C1A15495   2.433  12.406   5.091 -0.5711  0.1270  0.1388
  969loPI   C2A15496   2.352  12.410   5.565  0.0655 -0.2062  0.2062
  969loPI   C3A15497   2.502  12.503   5.969 -0.0940 -0.2281 -0.1398
  969loPI   C4A15498   2.533  12.369   6.461 -0.2093  0.1778 -0.3947
  969loPI   C5A15499   2.343  12.505   6.879  0.0553 -0.0200 -0.0057
  969loPI   C6A15500   2.101  12.532   7.152 -0.1167 -0.2099  0.1755
  969loPI   C1B15501   3.073  12.651   5.331 -0.0433  0.3079  0.0273
  969loPI   C2B15502   3.024  12.570   5.792 -0.3161 -0.1079  0.0174
  969loPI   C3B15503   2.984  12.451   6.271 -0.1833 -0.0629  0.0158
  969loPI   C4B15504   3.095  12.306   6.726 -0.1095  0.2531 -0.0566
  970loPI    C115505   1.813   4.498   4.779 -0.0816  0.1038  0.0078
  970loPI    C215506   1.695   4.141   4.913 -0.2288  0.1668  0.0484
  970loPI    C315507   1.450   4.359   4.685 -0.0413  0.1299 -0.1926
  970loPI   PO415508   1.851   4.672   5.007 -0.1302 -0.0763  0.0539
  970loPI   GL115509   1.892   4.430   5.400  0.1403 -0.1104  0.2088
  970loPI   GL215510   1.951   4.130   5.446 -0.0203  0.2340 -0.1814
  970loPI   C1A15511   1.894   4.525   5.879 -0.0800  0.0096  0.0777
  970loPI   C2A15512   2.015   4.429   6.277 -0.2533  0.1165  0.0804
  970loPI   C3A15513   2.189   4.393   6.598 -0.1432  0.2516  0.0288
  970loPI   C4A15514   2.301   4.514   6.967 -0.2619  0.0534 -0.1060
  970loPI   C5A15515   2.597   4.564   7.331 -0.1186 -0.0629  0.1303
  970loPI   C6A15516   2.946   4.637   7.671  0.1010 -0.3585  0.2755
  970loPI   C1B15517   2.201   4.106   5.871 -0.1175 -0.1808  0.0537
  970loPI   C2B15518   2.416   4.244   6.150 -0.2346  0.0116  0.1440
  970loPI   C3B15519   2.670   4.319   6.497 -0.3125 -0.0373 -0.0267
  970loPI   C4B15520   2.861   4.401   6.814  0.0291 -0.1285 -0.1611
  971loPI    C115521  16.269  14.563   4.717 -0.1357  0.0725 -0.1696
  971loPI    C215522  16.538  14.586   4.422  0.0686 -0.2160 -0.0118
  971loPI    C315523  16.154  14.509   4.338  0.1435 -0.3986 -0.1955
  971loPI   PO415524  16.435  14.656   4.959 -0.1718 -0.1714  0.0753
  971loPI   GL115525  16.527  14.379   5.238  0.2120  0.2374 -0.2711
  971loPI   GL215526  16.343  14.243   5.364  0.0968 -0.0215  0.0369
  971loPI   C1A15527  16.866  14.345   5.563  0.3093 -0.0838 -0.0105
  971loPI   C2A15528  16.878  14.618   5.979  0.0535  0.0235  0.1827
  971loPI   C3A15529  16.884  14.348   6.318 -0.2735  0.1655  0.2973
  971loPI   C4A15530  16.687  13.922   6.569 -0.0741 -0.3236 -0.1507
  971loPI   C5A15531  16.581  13.802   6.997 -0.1597 -0.0243  0.1530
  971loPI   C6A15532  16.763  14.031   7.309  0.1589  0.0821 -0.0771
  971loPI   C1B15533  16.358  14.069   5.711 -0.6753  0.0051 -0.0081
  971loPI   C2B15534  16.437  14.177   6.160 -0.0924  0.0625  0.0988
  971loPI   C3B15535  16.389  14.406   6.492  0.3746  0.0589 -0.0827
  971loPI   C4B15536  16.443  14.337   6.892  0.1505  0.1227  0.1854
  972loPI    C115537  17.516  10.539   4.320 -0.1609 -0.0490 -0.0912
  972loPI    C215538  17.332  10.868   4.185 -0.1243 -0.0692 -0.1911
  972loPI    C315539  17.565  10.654   3.940  0.0583 -0.0262 -0.0574
  972loPI   PO415540  17.646  10.587   4.460  0.2642  0.0728 -0.1446
  972loPI   GL115541  17.858  10.395   4.814 -0.0213  0.2403  0.3530
  972loPI   GL215542  17.591  10.615   4.943 -0.2843 -0.0463  0.1443
  972loPI   C1A15543  17.689  10.202   5.257  0.1633 -0.0781 -0.2640
  972loPI   C2A15544  17.727  10.174   5.676  0.2153 -0.2613  0.2892
  972loPI   C3A15545  17.761  10.182   6.055  0.0565 -0.5207  0.0519
  972loPI   C4A15546  17.866  10.031   6.498 -0.1087 -0.0548  0.0812
  972loPI   C5A15547  18.075   9.934   6.963  0.3824  0.1436  0.0574
  972loPI   C6A15548  17.874   9.608   7.214 -0.1239  0.3159 -0.1015
  972loPI   C1B15549  17.659  10.687   5.413  0.1104 -0.1233 -0.0295
  972loPI   C2B15550  17.692  10.672   5.852  0.0148  0.1376  0.6342
  972loPI   C3B15551  17.725  10.583   6.313 -0.1275  0.2784 -0.0673
  972loPI   C4B15552  17.646  10.847   6.747 -0.0601 -0.0322 -0.4008
  973loPI    C115553  13.461  14.781   4.833 -0.2282  0.2229 -0.2839
  973loPI    C215554  13.392  14.476   4.585 -0.2246  0.1146 -0.1530
  973loPI    C315555  13.715  14.706   4.534 -0.0567 -0.0976 -0.0644
  973loPI   PO415556  13.119  14.830   4.910 -0.1881 -0.0373  0.1568
  973loPI   GL115557  12.933  15.231   5.159 -0.4672 -0.0943  0.2262
  973loPI   GL215558  12.845  14.823   5.290  0.1813 -0.0323 -0.1502
  973loPI   C1A15559  13.002  15.431   5.559  0.1619 -0.0248  0.3556
  973loPI   C2A15560  13.009  15.436   6.011 -0.3275 -0.2107  0.2013
  973loPI   C3A15561  12.933  15.240   6.459 -0.3418 -0.1576 -0.3382
  973loPI   C4A15562  12.773  14.895   6.785 -0.2094  0.1815  0.0206
  973loPI   C5A15563  12.636  14.703   7.162  0.0456 -0.0544  0.1141
  973loPI   C6A15564  12.488  14.534   7.579 -0.0447  0.2269  0.1498
  973loPI   C1B15565  12.954  14.537   5.632 -0.0033  0.0647  0.1695
  973loPI   C2B15566  13.069  14.133   5.895  0.1619  0.1046  0.0153
  973loPI   C3B15567  13.021  13.844   6.024  0.2506  0.1744 -0.3153
  973loPI   C4B15568  12.979  13.513   6.083 -0.1529 -0.0600 -0.2198
  974loPI    C115569  18.662  16.518   4.682  0.0945 -0.1462 -0.0456
  974loPI    C215570  18.744  16.892   4.565  0.2911 -0.1431  0.0968
  974loPI    C315571  18.723  16.598   4.294  0.1468 -0.0320 -0.0142
  974loPI   PO415572  18.527  16.569   4.945 -0.0716 -0.3380 -0.1009
  974loPI   GL115573  18.553  16.348   5.272 -0.1261 -0.0665 -0.1898
  974loPI   GL215574  18.820  16.223   5.420 -0.1164  0.3804  0.1373
  974loPI   C1A15575  18.529  16.649   5.622  0.0907 -0.1440 -0.0880
  974loPI   C2A15576  18.596  16.619   6.053 -0.0673 -0.3458 -0.0616
  974loPI   C3A15577  18.623  16.457   6.330 -0.0812  0.1769 -0.1371
  974loPI   C4A15578  18.580  16.569   6.694 -0.2481 -0.0598 -0.1107
  974loPI   C5A15579  18.596  16.577   7.051 -0.0500  0.1659  0.0461
  974loPI   C6A15580  18.459  16.741   7.535  0.0045  0.1320  0.2922
  974loPI   C1B15581  18.650  16.198   5.850  0.1238  0.0844 -0.1255
  974loPI   C2B15582  18.831  16.034   6.160  0.1372  0.1308 -0.0330
  974loPI   C3B15583  18.844  16.106   6.583  0.1153 -0.1061  0.3149
  974loPI   C4B15584  18.670  16.117   6.966  0.1120  0.0981 -0.2970
  975loPI    C115585   9.246   6.350   4.792 -0.1350  0.0786  0.0096
  975loPI    C215586   9.335   6.505   4.434  0.1850  0.1772  0.1279
  975loPI    C315587   9.324   6.108   4.483  0.0465  0.1627 -0.0117
  975loPI   PO415588   9.420   6.453   4.943  0.2947  0.1286  0.0642
  975loPI   GL115589   9.661   6.445   5.400  0.0078  0.2091  0.1127
  975loPI   GL215590   9.417   6.643   5.418 -0.0144 -0.1368 -0.2451
  975loPI   C1A15591   9.642   6.431   5.881  0.4037 -0.3717  0.2995
  975loPI   C2A15592   9.709   6.360   6.265 -0.2810 -0.1125 -0.1480
  975loPI   C3A15593   9.990   6.517   6.470  0.3932  0.0943 -0.2311
  975loPI   C4A15594  10.132   6.508   6.849  0.2088  0.2282  0.0219
  975loPI   C5A15595  10.019   6.328   7.320 -0.2538 -0.0671 -0.0630
  975loPI   C6A15596  10.115   6.345   7.745 -0.0891  0.1134 -0.0057
  975loPI   C1B15597   9.575   6.937   5.702 -0.0737 -0.1488  0.1386
  975loPI   C2B15598   9.618   7.234   5.894 -0.3589  0.0997 -0.0028
  975loPI   C3B15599   9.817   7.365   6.201 -0.3817 -0.3335 -0.1766
  975loPI   C4B15600   9.656   7.614   6.585  0.2507 -0.0135 -0.1269
  976loPI    C115601  18.316   9.464   3.820 -0.0111  0.3139  0.2818
  976loPI    C215602  18.000   9.291   3.993 -0.0370  0.2103  0.1324
  976loPI    C315603  18.121   9.171   3.631  0.1926  0.2278  0.2018
  976loPI   PO415604  18.444   9.571   3.987 -0.1526  0.0043 -0.0612
  976loPI   GL115605  18.663   9.641   4.338 -0.0166  0.0547 -0.0280
  976loPI   GL215606  18.131   9.518   4.406  0.0661  0.0731 -0.1687
  976loPI   C1A15607  18.467   9.604   4.740  0.5956  0.0116  0.1970
  976loPI   C2A15608  18.299   9.561   5.235 -0.1421  0.1566 -0.2290
  976loPI   C3A15609  18.349   9.590   5.666 -0.2502 -0.3073 -0.3147
  976loPI   C4A15610  18.335   9.548   6.113  0.0810 -0.2348  0.2491
  976loPI   C5A15611  18.271   9.684   6.486 -0.2468  0.0423 -0.3145
  976loPI   C6A15612  18.166   9.447   6.850 -0.2899  0.3129 -0.0588
  976loPI   C1B15613  18.146   9.229   4.821  0.0879  0.1397 -0.2283
  976loPI   C2B15614  17.930   9.164   5.192  0.1478 -0.1295 -0.3197
  976loPI   C3B15615  17.959   9.294   5.578  0.1323  0.2317 -0.2207
  976loPI   C4B15616  17.939   9.163   5.990 -0.1446 -0.1683  0.0447
  977loPI    C115617  19.281   3.710   4.656 -0.1259 -0.0975  0.1080
  977loPI    C215618  18.937   3.797   4.470 -0.0857  0.0495  0.1015
  977loPI    C315619  19.202   3.552   4.297 -0.1467  0.0093  0.0651
  977loPI   PO415620  19.254   3.606   4.833  0.1354 -0.3571 -0.0830
  977loPI   GL115621  19.312   3.725   5.300 -0.3895 -0.3561 -0.0107
  977loPI   GL215622  19.502   4.043   5.365  0.1160  0.0349 -0.1858
  977loPI   C1A15623  19.608   3.488   5.534 -0.0312 -0.1030  0.0853
  977loPI   C2A15624  19.565   3.413   5.979 -0.0719 -0.0767  0.1791
  977loPI   C3A15625  19.639   3.481   6.441 -0.0879 -0.0825  0.2411
  977loPI   C4A15626  19.664   3.682   6.799  0.3768  0.3420 -0.0918
  977loPI   C5A15627  19.640   3.869   7.280  0.1165  0.1743  0.0550
  977loPI   C6A15628  19.641   4.147   7.622 -0.3645  0.0793  0.0299
  977loPI   C1B15629  19.559   4.394   5.666 -0.2882  0.1397  0.0062
  977loPI   C2B15630  19.503   4.563   6.075 -0.1893 -0.4273  0.2928
  977loPI   C3B15631  19.321   4.558   6.399 -0.0272  0.2492  0.1076
  977loPI   C4B15632  19.285   4.502   6.863 -0.0183 -0.3805  0.1863
  978loPI    C115633   3.764  15.969   4.745 -0.0249 -0.2349 -0.2529
  978loPI    C215634   3.462  16.073   4.504 -0.1500 -0.0000 -0.0006
  978loPI    C315635   3.829  16.019   4.354 -0.2616 -0.0279 -0.2684
  978loPI   PO415636   3.678  16.014   4.962  0.1134  0.3259 -0.0433
  978loPI   GL115637   3.598  15.836   5.292  0.2564  0.1946 -0.1638
  978loPI   GL215638   3.444  16.001   5.459  0.0895  0.0423 -0.1200
  978loPI   C1A15639   3.787  15.712   5.688  0.1963 -0.6180  0.2993
  978loPI   C2A15640   3.927  15.871   6.125  0.2240 -0.1360  0.0718
  978loPI   C3A15641   4.004  15.941   6.561  0.1025  0.0266  0.1208
  978loPI   C4A15642   3.983  15.890   7.040 -0.3098  0.1248 -0.2821
  978loPI   C5A15643   4.399  15.662   7.198 -0.0232  0.3265  0.0106
  978loPI   C6A15644   4.625  15.430   7.528 -0.4074  0.2098  0.1782
  978loPI   C1B15645   3.468  15.999   5.980 -0.2381  0.2941 -0.0953
  978loPI   C2B15646   3.338  15.805   6.426  0.0557  0.2916 -0.2099
  978loPI   C3B15647   3.221  15.400   6.696 -0.0529 -0.2328  0.0164
  978loPI   C4B15648   3.360  14.997   6.701 -0.1389 -0.1759  0.0205
  979loPI    C115649   2.321   0.562   4.614  0.0087  0.2232  0.0138
  979loPI    C215650   2.384   0.749   4.266  0.1134  0.0636 -0.0544
  979loPI    C315651   2.682   0.547   4.441 -0.0352 -0.1584 -0.0540
  979loPI   PO415652   2.249   0.697   4.853  0.2264 -0.1955  0.0678
  979loPI   GL115653   2.149   0.640   5.182 -0.2276 -0.1143 -0.2172
  979loPI   GL215654   2.389   0.670   5.319 -0.0145  0.1477 -0.2011
  979loPI   C1A15655   1.854   0.457   5.317 -0.0782 -0.1087  0.2749
  979loPI   C2A15656   1.839   0.412   5.730 -0.1450  0.2540  0.1247
  979loPI   C3A15657   1.961   0.419   6.173  0.2231 -0.1666 -0.2721
  979loPI   C4A15658   1.992   0.450   6.651 -0.0097 -0.0232  0.3560
  979loPI   C5A15659   1.756   0.269   7.033 -0.1591 -0.1748  0.1686
  979loPI   C6A15660   1.867  -0.120   7.306  0.3996 -0.0600  0.0162
  979loPI   C1B15661   2.213   0.795   5.709  0.0297 -0.2659  0.1257
  979loPI   C2B15662   2.227   0.832   6.099  0.4203 -0.1278 -0.1510
  979loPI   C3B15663   2.321   0.851   6.502 -0.0222 -0.2696 -0.1585
  979loPI   C4B15664   2.333   0.685   6.947  0.2639  0.3597 -0.0273
  980loPI    C115665  14.676  17.617   4.663 -0.2646  0.2606  0.2997
  980loPI    C215666  14.752  17.257   4.821  0.0479  0.2099  0.0441
  980loPI    C315667  14.639  17.288   4.438  0.2791  0.4003 -0.0111
  980loPI   PO415668  14.551  17.719   4.847  0.0252 -0.1008 -0.1277
  980loPI   GL115669  14.314  17.625   5.187  0.0947 -0.0287 -0.1149
  980loPI   GL215670  14.352  17.946   5.280  0.1272 -0.1800  0.3297
  980loPI   C1A15671  14.037  17.496   5.552  0.0258 -0.0041  0.1615
  980loPI   C2A15672  14.036  17.411   5.957  0.2693  0.0229 -0.0328
  980loPI   C3A15673  13.985  17.494   6.359  0.0431 -0.2372 -0.1839
  980loPI   C4A15674  14.131  17.647   6.718  0.2484 -0.0714 -0.0732
  980loPI   C5A15675  14.267  17.768   7.146  0.0782  0.0451  0.1183
  980loPI   C6A15676  14.394  18.059   7.365  0.0344  0.0176 -0.0487
  980loPI   C1B15677  14.478  17.784   5.671 -0.1160 -0.0109  0.0707
  980loPI   C2B15678  14.463  17.635   6.048  0.3396  0.3241 -0.1797
  980loPI   C3B15679  14.843  17.536   6.189 -0.0196  0.2636  0.0855
  980loPI   C4B15680  15.187  17.539   6.498 -0.3474  0.3287  0.2093
  981loPI    C115681  19.102  18.936   4.538 -0.0669 -0.0038  0.0281
  981loPI    C215682  18.736  19.046   4.655 -0.0427  0.0859  0.0204
  981loPI    C315683  18.993  19.320   4.518  0.0412  0.0292  0.0632
  981loPI   PO415684  19.189  18.873   4.730  0.0589 -0.0928 -0.2102
  981loPI   GL115685  19.016  18.813   5.163  0.1294  0.2304  0.0182
  981loPI   GL215686  19.217  19.010   5.348  0.0223 -0.1984  0.1334
  981loPI   C1A15687  19.005  18.623   5.619  0.4909 -0.0159  0.2339
  981loPI   C2A15688  19.122  18.378   6.017 -0.2041 -0.1502 -0.0099
  981loPI   C3A15689  19.102  18.141   6.361  0.2870  0.1827  0.1550
  981loPI   C4A15690  19.196  17.964   6.686 -0.1010  0.0219  0.1420
  981loPI   C5A15691  19.247  17.804   7.002  0.2837 -0.0609  0.1040
  981loPI   C6A15692  19.026  17.883   7.412  0.2943 -0.2465 -0.1245
  981loPI   C1B15693  18.837  19.085   5.652 -0.0197  0.1485 -0.0869
  981loPI   C2B15694  18.574  19.225   5.964 -0.0157  0.1392  0.0755
  981loPI   C3B15695  18.390  19.276   6.364  0.2491 -0.0618 -0.2363
  981loPI   C4B15696  18.273  19.379   6.706  0.0319 -0.0363  0.3505
  982loPI    C115697  16.265   6.386   4.389 -0.1558  0.0274 -0.1261
  982loPI    C215698  16.235   5.988   4.371  0.2079 -0.0048 -0.1020
  982loPI    C315699  16.437   6.186   4.088  0.0050  0.1672 -0.1289
  982loPI   PO415700  16.371   6.486   4.622 -0.1369  0.2898 -0.0263
  982loPI   GL115701  16.465   6.320   4.995 -0.1485 -0.0634 -0.0441
  982loPI   GL215702  16.749   6.422   4.964 -0.2211  0.0532 -0.0242
  982loPI   C1A15703  16.198   6.561   5.321  0.2072  0.0785  0.0842
  982loPI   C2A15704  16.216   6.579   5.753 -0.0847 -0.1325  0.1170
  982loPI   C3A15705  16.253   6.506   6.178  0.0072  0.0998  0.1980
  982loPI   C4A15706  16.316   6.495   6.635  0.2705  0.3345  0.2901
  982loPI   C5A15707  16.061   6.494   6.923 -0.0465 -0.1305  0.0265
  982loPI   C6A15708  16.364   6.550   7.163 -0.0991 -0.1291 -0.0704
  982loPI   C1B15709  16.675   6.432   5.425  0.0378  0.0131 -0.1074
  982loPI   C2B15710  16.617   6.861   5.733  0.0118 -0.0397 -0.2707
  982loPI   C3B15711  16.626   6.834   6.170  0.2060 -0.3653  0.0708
  982loPI   C4B15712  16.621   6.862   6.652  0.2132  0.3360 -0.3910
  983loPI    C115713  11.252   8.068   4.563  0.0690 -0.3398 -0.2623
  983loPI    C215714  11.220   8.388   4.325  0.1598  0.0450  0.2253
  983loPI    C315715  10.905   8.148   4.381  0.0988  0.0272 -0.1651
  983loPI   PO415716  11.412   8.240   4.745 -0.2141 -0.3779 -0.0112
  983loPI   GL115717  11.491   8.173   5.136  0.4079 -0.1628  0.2783
  983loPI   GL215718  11.396   7.988   5.428 -0.0256 -0.1129  0.1770
  983loPI   C1A15719  11.382   8.497   5.542 -0.1546 -0.0393 -0.0255
  983loPI   C2A15720  11.400   8.438   5.973 -0.1922 -0.0814  0.1795
  983loPI   C3A15721  11.302   8.489   6.358 -0.2013 -0.3764 -0.1008
  983loPI   C4A15722  11.199   8.335   6.683  0.0110  0.0437 -0.1044
  983loPI   C5A15723  11.281   8.112   7.075  0.2964 -0.1018  0.1851
  983loPI   C6A15724  11.206   8.281   7.510 -0.2385  0.0269 -0.1793
  983loPI   C1B15725  11.284   7.929   5.830 -0.0101 -0.3755 -0.1068
  983loPI   C2B15726  11.359   7.995   6.226  0.1516 -0.2426 -0.2951
  983loPI   C3B15727  11.540   8.019   6.684 -0.0826  0.1159 -0.1693
  983loPI   C4B15728  11.819   8.127   7.080 -0.2970  0.1987  0.0681
  984loPI    C115729   5.812  16.053   4.527  0.0679 -0.0503  0.0940
  984loPI    C215730   6.106  16.323   4.549 -0.0128  0.0644 -0.1934
  984loPI    C315731   6.175  15.965   4.385  0.1307 -0.1475  0.3105
  984loPI   PO415732   5.703  16.079   4.893  0.0113 -0.0060 -0.0525
  984loPI   GL115733   5.723  15.920   5.305  0.1854 -0.2402  0.2107
  984loPI   GL215734   5.403  15.774   5.209  0.0267  0.3339 -0.1229
  984loPI   C1A15735   5.813  16.077   5.631 -0.0479  0.1157  0.1054
  984loPI   C2A15736   6.013  16.487   5.874  0.2303 -0.0052 -0.4136
  984loPI   C3A15737   6.122  16.649   6.267  0.0821  0.0727 -0.0793
  984loPI   C4A15738   6.440  16.627   6.640  0.1799 -0.3426  0.3891
  984loPI   C5A15739   6.612  16.546   7.124  0.1436  0.0581 -0.2641
  984loPI   C6A15740   6.734  16.349   7.433  0.2355 -0.0052 -0.0563
  984loPI   C1B15741   5.255  15.863   5.653 -0.1411  0.3964 -0.1312
  984loPI   C2B15742   5.345  15.993   6.016 -0.0929 -0.3120 -0.1494
  984loPI   C3B15743   5.715  16.135   6.144  0.1420 -0.0710 -0.3862
  984loPI   C4B15744   6.072  16.115   6.227  0.0584 -0.2778 -0.2135
  985loPI    C115745  13.703  19.253   4.865  0.1622 -0.0950  0.0597
  985loPI    C215746  13.337  19.107   4.796  0.1031  0.1678 -0.2053
  985loPI    C315747  13.659  18.878   4.731 -0.0062 -0.0124 -0.1210
  985loPI   PO415748  13.642  19.358   5.213 -0.0750 -0.0990 -0.0572
  985loPI   GL115749  13.526  19.534   5.626  0.1397 -0.1227 -0.2525
  985loPI   GL215750  13.518  19.148   5.712  0.0875  0.1786  0.2237
  985loPI   C1A15751  13.602  19.710   5.937  0.0855  0.0853 -0.1549
  985loPI   C2A15752  13.815  19.927   6.331 -0.1112  0.2045  0.1393
  985loPI   C3A15753  13.916  19.928   6.711  0.3311  0.0162 -0.2039
  985loPI   C4A15754  14.234  19.658   6.960  0.2657  0.1829  0.0559
  985loPI   C5A15755  14.504  19.387   7.205 -0.0280  0.1630 -0.1337
  985loPI   C6A15756  14.919  19.362   7.269 -0.0840  0.2282 -0.0538
  985loPI   C1B15757  13.265  19.297   6.013 -0.2716  0.2196  0.0573
  985loPI   C2B15758  13.571  19.337   6.359 -0.2826  0.1238  0.2137
  985loPI   C3B15759  13.912  19.439   6.626  0.1318 -0.1093  0.0218
  985loPI   C4B15760  14.226  19.100   6.868 -0.2936 -0.3443  0.0679
  986loPI    C115761   9.542   0.753   4.984 -0.1273 -0.1524 -0.1604
  986loPI    C215762   9.645   0.828   4.605  0.0430  0.0119 -0.0827
  986loPI    C315763   9.463   1.110   4.823 -0.0311 -0.0732 -0.0339
  986loPI   PO415764   9.773   0.554   5.071 -0.0757  0.1136 -0.1574
  986loPI   GL115765   9.872   0.271   5.431  0.2599 -0.2054 -0.0353
  986loPI   GL215766   9.541   0.298   5.452 -0.0367  0.0198 -0.3726
  986loPI   C1A15767   9.943   0.426   5.859  0.0211  0.0266 -0.0690
  986loPI   C2A15768   9.866   0.457   6.349 -0.1878 -0.0034 -0.0952
  986loPI   C3A15769   9.632   0.443   6.695 -0.0061  0.0754 -0.1324
  986loPI   C4A15770   9.449   0.470   7.098 -0.1437  0.0699 -0.0434
  986loPI   C5A15771   9.331   0.768   7.395  0.1313 -0.2215  0.1105
  986loPI   C6A15772   9.001   1.079   7.446  0.2557  0.1284  0.0132
  986loPI   C1B15773   9.659  -0.015   5.744  0.0366  0.0024  0.1062
  986loPI   C2B15774   9.533  -0.237   6.082  0.3073  0.3473  0.2971
  986loPI   C3B15775   9.509   0.034   6.468  0.1296 -0.1883 -0.0869
  986loPI   C4B15776   9.373  -0.386   6.753 -0.2777  0.3533  0.2098
  987loPI    C115777  11.269   4.605   4.674  0.0249  0.0936  0.0128
  987loPI    C215778  11.120   4.913   4.468 -0.1622 -0.1117 -0.1636
  987loPI    C315779  11.130   4.549   4.303 -0.1039 -0.2346  0.1071
  987loPI   PO415780  11.241   4.614   4.966  0.2074  0.0777 -0.0027
  987loPI   GL115781  11.027   4.786   5.330 -0.1578  0.1717 -0.1656
  987loPI   GL215782  10.698   4.828   5.294  0.2365 -0.0179  0.0009
  987loPI   C1A15783  11.014   4.637   5.724  0.5368  0.1045  0.2747
  987loPI   C2A15784  10.940   4.522   6.247  0.3230 -0.1919 -0.1263
  987loPI   C3A15785  10.995   4.534   6.656  0.0086 -0.2888 -0.2656
  987loPI   C4A15786  11.206   4.516   7.101 -0.1783  0.1423  0.0711
  987loPI   C5A15787  11.324   4.601   7.478 -0.3050  0.0546 -0.2081
  987loPI   C6A15788  11.425   4.484   7.849 -0.2936 -0.1311 -0.1899
  987loPI   C1B15789  10.481   4.855   5.710  0.1622  0.1126  0.1465
  987loPI   C2B15790  10.490   4.718   6.149  0.2897  0.0674 -0.4595
  987loPI   C3B15791  10.485   4.665   6.575 -0.0463  0.0793  0.1022
  987loPI   C4B15792  10.379   4.880   6.919  0.0864 -0.0359 -0.1937
  988loPI    C115793  10.560   5.612   4.586 -0.1527  0.0626  0.1200
  988loPI    C215794  10.244   5.487   4.376 -0.0250 -0.1058  0.0257
  988loPI    C315795  10.540   5.685   4.193 -0.1360  0.1700  0.1386
  988loPI   PO415796  10.561   5.426   4.846  0.0904  0.2283  0.1314
  988loPI   GL115797  10.668   5.611   5.317 -0.2347  0.2685  0.0524
  988loPI   GL215798  10.396   5.722   5.236  0.1243 -0.3067  0.1947
  988loPI   C1A15799  10.850   5.618   5.720 -0.1298 -0.0787 -0.0301
  988loPI   C2A15800  11.091   5.790   6.125 -0.0025 -0.1298 -0.0567
  988loPI   C3A15801  11.298   5.849   6.571 -0.0741 -0.1303 -0.0180
  988loPI   C4A15802  11.585   5.839   6.959 -0.2175  0.2026 -0.0277
  988loPI   C5A15803  11.768   5.902   7.453 -0.0951 -0.3117  0.1444
  988loPI   C6A15804  11.795   5.812   7.907 -0.0237  0.1523  0.0711
  988loPI   C1B15805  10.207   5.796   5.586  0.0988  0.1206 -0.0974
  988loPI   C2B15806  10.341   5.752   5.995 -0.0041  0.0431 -0.1891
  988loPI   C3B15807  10.379   5.646   6.479 -0.1194 -0.0857  0.2249
  988loPI   C4B15808  10.816   5.476   6.485  0.0458  0.1230  0.1031
  989loPI    C115809  15.964  12.389   4.714  0.2318 -0.1050 -0.1268
  989loPI    C215810  15.662  12.650   4.728  0.3700  0.0552 -0.0914
  989loPI    C315811  15.780  12.500   4.377  0.1966 -0.0720 -0.0968
  989loPI   PO415812  15.978  12.181   4.857  0.1343  0.1136  0.3009
  989loPI   GL115813  15.874  12.261   5.247  0.1014  0.0445 -0.0423
  989loPI   GL215814  15.697  12.515   5.181 -0.1126 -0.1276  0.4105
  989loPI   C1A15815  15.944  12.107   5.723 -0.2080 -0.3313 -0.1395
  989loPI   C2A15816  16.051  11.986   6.192 -0.0108 -0.1316  0.3262
  989loPI   C3A15817  16.222  11.843   6.541  0.0957  0.0988 -0.0797
  989loPI   C4A15818  16.530  11.830   6.913 -0.0383 -0.0727 -0.4908
  989loPI   C5A15819  16.691  11.402   7.154 -0.1270 -0.2130 -0.0404
  989loPI   C6A15820  17.076  11.265   7.292 -0.2715  0.0105 -0.2352
  989loPI   C1B15821  15.615  12.451   5.648  0.3384  0.1404 -0.3072
  989loPI   C2B15822  15.771  12.451   6.089  0.3817  0.2283 -0.3119
  989loPI   C3B15823  16.115  12.424   6.432  0.0646 -0.1757 -0.0900
  989loPI   C4B15824  16.518  12.292   6.652  0.1053  0.0804  0.1951
  990loPI    C115825  10.033   0.941   4.902  0.0500 -0.1124  0.0708
  990loPI    C215826  10.406   0.814   4.834  0.0741 -0.0240  0.0368
  990loPI    C315827  10.095   0.611   4.686  0.1193  0.0644 -0.1838
  990loPI   PO415828  10.013   0.973   5.103 -0.1766  0.1884  0.1796
  990loPI   GL115829   9.965   0.731   5.444 -0.0200 -0.1465  0.0079
  990loPI   GL215830   9.669   0.721   5.659 -0.0070 -0.1625 -0.1203
  990loPI   C1A15831  10.126   0.894   5.927 -0.0982 -0.2931  0.2047
  990loPI   C2A15832  10.274   0.753   6.301 -0.1456 -0.2102 -0.0554
  990loPI   C3A15833  10.252   0.427   6.706 -0.1642  0.0266  0.1104
  990loPI   C4A15834  10.036   0.364   6.980  0.3936 -0.0811  0.0532
  990loPI   C5A15835  10.012   0.180   7.316  0.1781  0.3078  0.0251
  990loPI   C6A15836   9.574   0.168   7.468 -0.3333 -0.1388  0.2321
  990loPI   C1B15837   9.664   0.904   6.183 -0.0053 -0.0705  0.2024
  990loPI   C2B15838   9.815   0.875   6.660 -0.0029  0.2181  0.6345
  990loPI   C3B15839  10.136   0.913   6.995  0.0853 -0.1098 -0.0289
  990loPI   C4B15840  10.456   1.135   7.172 -0.0519 -0.0622 -0.0510
  991loPI    C115841   3.130  12.946   4.479  0.0813  0.2343 -0.2939
  991loPI    C215842   3.182  12.556   4.412 -0.0159  0.1773 -0.0474
  991loPI    C315843   3.131  12.806   4.105 -0.1990 -0.0391 -0.1965
  991loPI   PO415844   3.352  13.030   4.559 -0.1115  0.0004 -0.0295
  991loPI   GL115845   3.742  12.973   4.759 -0.4699 -0.2149  0.1634
  991loPI   GL215846   3.753  13.315   4.957  0.1228  0.1630  0.1914
  991loPI   C1A15847   3.749  12.559   5.043 -0.2709 -0.0344 -0.3258
  991loPI   C2A15848   3.666  12.385   5.463 -0.0830  0.0582 -0.2539
  991loPI   C3A15849   3.595  12.298   5.874 -0.0194 -0.2024 -0.1378
  991loPI   C4A15850   3.736  12.279   6.207 -0.2695  0.1293  0.1327
  991loPI   C5A15851   3.605  12.412   6.632  0.1861 -0.2592  0.1385
  991loPI   C6A15852   3.807  12.461   6.947 -0.2077 -0.2781  0.2013
  991loPI   C1B15853   3.553  13.010   5.292 -0.0123 -0.1622 -0.0108
  991loPI   C2B15854   3.483  12.844   5.690 -0.1037 -0.1281 -0.1750
  991loPI   C3B15855   3.381  12.712   6.204  0.0275  0.0606  0.0433
  991loPI   C4B15856   3.170  12.804   6.550  0.0556 -0.0377 -0.1072
  992loPI    C115857  18.757  18.549   4.784 -0.0432  0.0531  0.0491
  992loPI    C215858  18.865  18.275   4.513  0.3223  0.2868 -0.0493
  992loPI    C315859  18.722  18.628   4.393  0.0130  0.2072  0.0748
  992loPI   PO415860  18.608  18.447   4.918  0.0210  0.0486  0.2278
  992loPI   GL115861  18.633  18.430   5.314 -0.2212 -0.1070  0.0041
  992loPI   GL215862  18.573  18.243   5.359 -0.0539  0.0748  0.2048
  992loPI   C1A15863  18.488  18.632   5.712 -0.2399  0.2786  0.1297
  992loPI   C2A15864  18.697  18.674   6.099 -0.0672  0.0474  0.0724
  992loPI   C3A15865  18.989  18.880   6.395  0.1192  0.1776  0.0080
  992loPI   C4A15866  19.264  19.096   6.672  0.0702 -0.1549  0.1795
  992loPI   C5A15867  19.276  19.324   7.050  0.0426  0.0508  0.0412
  992loPI   C6A15868  19.460  19.548   7.364 -0.1155 -0.0612 -0.1704
  992loPI   C1B15869  18.714  18.223   5.798  0.2871 -0.2053 -0.0172
  992loPI   C2B15870  18.708  18.021   6.088  0.0400 -0.5054 -0.0787
  992loPI   C3B15871  18.689  17.988   6.614 -0.0779 -0.1755  0.0442
  992loPI   C4B15872  18.743  17.956   7.012 -0.0696 -0.0527  0.0409
  993loPI    C115873  18.378  12.810   4.035  0.0115 -0.2824  0.4494
  993loPI    C215874  18.017  12.669   3.936  0.0338  0.0449 -0.1434
  993loPI    C315875  18.332  12.422   3.951 -0.1871 -0.2222  0.2727
  993loPI   PO415876  18.347  12.973   4.300  0.1158  0.0053  0.1177
  993loPI   GL115877  18.259  12.881   4.672 -0.0440 -0.0758 -0.2765
  993loPI   GL215878  17.951  12.901   4.925 -0.2541  0.0675 -0.0995
  993loPI   C1A15879  18.460  12.939   5.073 -0.2468  0.3931 -0.1164
  993loPI   C2A15880  18.555  12.884   5.546 -0.2672 -0.2229  0.0429
  993loPI   C3A15881  18.460  12.874   5.963  0.1043 -0.0754 -0.1148
  993loPI   C4A15882  18.540  12.736   6.391  0.3025 -0.3548 -0.2034
  993loPI   C5A15883  18.872  12.771   6.671 -0.1817 -0.0992 -0.1115
  993loPI   C6A15884  19.088  12.472   6.953  0.0699 -0.0435 -0.1217
  993loPI   C1B15885  18.007  13.155   5.232 -0.2918  0.2130 -0.4200
  993loPI   C2B15886  18.070  13.082   5.761  0.0346  0.3221  0.0148
  993loPI   C3B15887  18.068  13.082   6.197  0.1438 -0.0044 -0.2021
  993loPI   C4B15888  18.108  12.914   6.639  0.0396 -0.0231  0.2011
  994loPI    C115889   4.334   4.280   4.595  0.1530 -0.1111  0.0463
  994loPI    C215890   4.687   4.292   4.408  0.1254  0.0165  0.0012
  994loPI    C315891   4.542   4.622   4.582  0.1959 -0.1242  0.3341
  994loPI   PO415892   4.341   4.066   4.816 -0.0831  0.0749  0.0615
  994loPI   GL115893   4.228   4.012   5.215 -0.1621  0.0140 -0.4655
  994loPI   GL215894   4.257   3.670   5.162 -0.1331  0.0769  0.0214
  994loPI   C1A15895   4.154   4.202   5.649 -0.0820 -0.0863  0.1568
  994loPI   C2A15896   3.942   4.166   6.062  0.0973 -0.1810 -0.1185
  994loPI   C3A15897   3.981   4.447   6.433  0.1980  0.0356 -0.0844
  994loPI   C4A15898   3.859   4.426   6.801 -0.0491  0.1078 -0.1536
  994loPI   C5A15899   3.629   4.337   7.207  0.0977  0.1893 -0.1834
  994loPI   C6A15900   3.547   4.048   7.607  0.0142  0.1324 -0.0796
  994loPI   C1B15901   3.922   3.628   5.514  0.1241 -0.0221 -0.0906
  994loPI   C2B15902   3.657   3.744   5.802  0.2626  0.1237 -0.0462
  994loPI   C3B15903   3.294   3.714   6.117  0.1176  0.1414  0.1448
  994loPI   C4B15904   2.897   3.576   6.271 -0.0081  0.2350  0.0117
  995loPI    C115905   4.086   3.279   4.580  0.0740 -0.0110 -0.0977
  995loPI    C215906   3.753   3.229   4.364  0.0450 -0.1688 -0.0181
  995loPI    C315907   4.043   3.470   4.231 -0.1119 -0.0082 -0.0743
  995loPI   PO415908   4.199   2.975   4.683  0.2278  0.0533 -0.0468
  995loPI   GL115909   4.308   2.886   5.093 -0.0388  0.0387 -0.4988
  995loPI   GL215910   4.308   2.743   5.247  0.3244 -0.0465 -0.3222
  995loPI   C1A15911   4.719   3.007   5.383 -0.1141 -0.3870  0.1097
  995loPI   C2A15912   4.711   3.220   5.683  0.0116  0.0905 -0.0757
  995loPI   C3A15913   4.991   3.260   6.128  0.0689 -0.0624 -0.2083
  995loPI   C4A15914   5.068   3.550   6.451 -0.0346  0.4518 -0.1991
  995loPI   C5A15915   4.956   3.671   6.894 -0.2612  0.1790  0.0769
  995loPI   C6A15916   4.974   3.692   7.342  0.3114  0.2166 -0.0272
  995loPI   C1B15917   4.389   2.847   5.694 -0.0725 -0.0143  0.0343
  995loPI   C2B15918   4.172   2.845   6.059 -0.0877 -0.2200 -0.3364
  995loPI   C3B15919   3.964   2.667   6.510 -0.2653 -0.1029 -0.2533
  995loPI   C4B15920   3.828   2.785   6.898 -0.3598  0.1234  0.2035
  996loPI    C115921  13.065  13.585   4.711 -0.1209  0.1027 -0.0712
  996loPI    C215922  12.843  13.332   4.926 -0.1811  0.1559 -0.0707
  996loPI    C315923  12.806  13.342   4.528  0.0770 -0.0866 -0.1031
  996loPI   PO415924  13.318  13.492   4.839  0.3264 -0.0780 -0.0723
  996loPI   GL115925  13.250  13.176   5.180  0.0099  0.0730 -0.0480
  996loPI   GL215926  13.561  13.324   5.343  0.2429  0.3409 -0.3730
  996loPI   C1A15927  12.886  13.313   5.425  0.2828  0.2210 -0.0431
  996loPI   C2A15928  12.753  13.119   5.825  0.0673 -0.1495  0.1804
  996loPI   C3A15929  12.868  12.846   6.132 -0.0839  0.2382  0.1368
  996loPI   C4A15930  12.999  12.638   6.503  0.1213 -0.0149 -0.1577
  996loPI   C5A15931  13.110  12.843   6.785  0.0792  0.0528  0.1196
  996loPI   C6A15932  13.064  12.930   7.169 -0.3425  0.0382  0.0827
  996loPI   C1B15933  13.704  13.198   5.744 -0.1509  0.3044  0.2203
  996loPI   C2B15934  13.933  13.353   6.060  0.2071  0.2133  0.1864
  996loPI   C3B15935  14.000  13.532   6.489 -0.0693  0.1860  0.0760
  996loPI   C4B15936  14.020  13.484   6.889 -0.3000  0.2131 -0.2450
  997loPI    C115937   4.081   1.971   4.519 -0.0065 -0.3934 -0.1437
  997loPI    C215938   3.734   2.169   4.533  0.1865 -0.0622  0.1076
  997loPI    C315939   3.952   2.172   4.198  0.0221 -0.1445 -0.0017
  997loPI   PO415940   4.181   2.008   4.833 -0.1994 -0.1769 -0.0018
  997loPI   GL115941   4.118   2.003   5.263  0.0596 -0.4198  0.3008
  997loPI   GL215942   4.288   2.247   5.266  0.0461  0.1443  0.2397
  997loPI   C1A15943   4.300   1.931   5.649  0.1609  0.2675  0.0501
  997loPI   C2A15944   4.405   1.939   5.997  0.2680 -0.0561 -0.0958
  997loPI   C3A15945   4.435   1.814   6.474  0.1814  0.1206  0.0088
  997loPI   C4A15946   4.240   1.943   6.836  0.1595 -0.3244  0.1713
  997loPI   C5A15947   4.178   1.949   7.142 -0.0832 -0.1009 -0.1973
  997loPI   C6A15948   3.922   2.134   7.445 -0.1170  0.0587 -0.2222
  997loPI   C1B15949   4.107   2.433   5.557 -0.0150 -0.1121  0.2386
  997loPI   C2B15950   4.020   2.366   6.034 -0.3387 -0.1047 -0.0047
  997loPI   C3B15951   4.002   2.090   6.290  0.0964  0.1260  0.1656
  997loPI   C4B15952   3.830   2.110   6.655  0.3045  0.0170 -0.2655
  998loPI    C115953   8.574  14.145   4.377 -0.0433  0.1247 -0.1556
  998loPI    C215954   8.353  14.089   4.048 -0.0314  0.2974 -0.1938
  998loPI    C315955   8.748  14.144   4.017  0.0784 -0.3648 -0.1019
  998loPI   PO415956   8.592  13.963   4.611  0.4564 -0.0937  0.5658
  998loPI   GL115957   8.402  13.790   4.908  0.1397  0.0677  0.0482
  998loPI   GL215958   8.334  13.478   4.834 -0.2173  0.1932 -0.2536
  998loPI   C1A15959   8.640  13.907   5.318 -0.2388 -0.1185 -0.0648
  998loPI   C2A15960   8.547  13.749   5.722 -0.0998 -0.3936 -0.0610
  998loPI   C3A15961   8.599  13.674   6.213  0.1376 -0.1299 -0.2691
  998loPI   C4A15962   8.431  14.015   6.588  0.1442  0.0539 -0.1973
  998loPI   C5A15963   8.012  14.181   6.687  0.1909  0.3185 -0.0628
  998loPI   C6A15964   7.589  14.262   6.859  0.1775  0.1942  0.0500
  998loPI   C1B15965   7.943  13.610   5.075  0.2640  0.0675  0.2392
  998loPI   C2B15966   7.779  13.309   5.408 -0.2091  0.0857 -0.0997
  998loPI   C3B15967   7.763  13.136   5.889 -0.1775 -0.1210 -0.1488
  998loPI   C4B15968   7.678  13.348   6.346 -0.3099 -0.0932  0.1094
  999loPI    C115969   3.871  19.472   4.402  0.0516  0.1128 -0.0444
  999loPI    C215970   4.039  19.328   4.069  0.0635  0.1528 -0.0557
  999loPI    C315971   3.643  19.309   4.117  0.0648  0.1185 -0.0582
  999loPI   PO415972   3.881  19.716   4.540 -0.2499  0.4026 -0.0702
  999loPI   GL115973   4.054  19.683   5.168  0.0461 -0.0896  0.3451
  999loPI   GL215974   4.126  20.003   5.303  0.0523 -0.1765 -0.1308
  999loPI   C1A15975   4.047  19.437   5.513  0.3172  0.2163  0.0110
  999loPI   C2A15976   3.943  19.192   5.948 -0.4084 -0.0478  0.2412
  999loPI   C3A15977   3.759  19.115   6.356  0.2796  0.0316 -0.0127
  999loPI   C4A15978   3.676  19.087   6.818 -0.2230  0.0304 -0.3444
  999loPI   C5A15979   3.705  18.864   7.200  0.1764 -0.2806 -0.1985
  999loPI   C6A15980   3.732  18.764   7.655  0.3035  0.0811  0.2505
  999loPI   C1B15981   4.003  19.976   5.717  0.3360 -0.0471  0.1858
  999loPI   C2B15982   3.994  19.711   6.104  0.0910  0.0465 -0.2542
  999loPI   C3B15983   3.970  19.552   6.533 -0.0162 -0.1404 -0.0344
  999loPI   C4B15984   4.071  19.457   6.879  0.0468  0.2854 -0.0747
 1000loPI    C115985   9.324  14.365   4.479 -0.2096 -0.2210 -0.6770
 1000loPI    C215986   9.488  14.028   4.618 -0.0531  0.1587  0.1145
 1000loPI    C315987   9.092  14.051   4.566 -0.0454 -0.2041 -0.1422
 1000loPI   PO415988   9.349  14.581   4.694  0.1999 -0.0508 -0.0449
 1000loPI   GL115989   9.309  14.373   5.045 -0.4687  0.0484  0.0082
 1000loPI   GL215990   9.149  14.112   5.100 -0.2958 -0.3624 -0.0763
 1000loPI   C1A15991   9.475  14.216   5.486 -0.3346  0.0826  0.1206
 1000loPI   C2A15992   9.614  14.214   5.893  0.1253  0.0371 -0.0066
 1000loPI   C3A15993   9.602  14.477   6.317  0.0678 -0.3464 -0.0011
 1000loPI   C4A15994   9.729  14.542   6.675  0.1289 -0.0191 -0.0241
 1000loPI   C5A15995   9.663  14.796   7.025 -0.1573 -0.0611  0.3991
 1000loPI   C6A15996   9.719  15.010   7.383  0.1983  0.0892  0.0785
 1000loPI   C1B15997   9.144  13.852   5.460  0.0151 -0.2330  0.1578
 1000loPI   C2B15998   9.112  13.899   5.817  0.1602  0.0160  0.3366
 1000loPI   C3B15999   9.206  14.055   6.215 -0.3375  0.0471 -0.2015
 1000loPI   C4B16000   9.536  13.949   6.534 -0.3780  0.0772  0.0296
 1001loPI    C116001  17.635  10.153   3.794  0.0614 -0.0725 -0.0615
 1001loPI    C216002  17.354  10.301   3.550  0.0285  0.2368  0.1581
 1001loPI    C316003  17.740  10.383   3.484  0.0461  0.0498  0.0230
 1001loPI   PO416004  17.558  10.083   4.005  0.0189 -0.1097 -0.2364
 1001loPI   GL116005  17.607  10.007   4.487  0.4651 -0.0108  0.1832
 1001loPI   GL216006  17.928   9.935   4.501  0.0162  0.1102  0.0063
 1001loPI   C1A16007  17.375  10.109   4.905 -0.0061 -0.1843  0.0587
 1001loPI   C2A16008  17.255   9.962   5.368 -0.4581  0.1305  0.1659
 1001loPI   C3A16009  17.357   9.876   5.843 -0.3331  0.1639  0.1482
 1001loPI   C4A16010  17.390   9.926   6.251  0.0773  0.1338 -0.1845
 1001loPI   C5A16011  17.418  10.264   6.564  0.2921  0.0324  0.1603
 1001loPI   C6A16012  17.553  10.405   6.951 -0.4481  0.0938 -0.0113
 1001loPI   C1B16013  18.176  10.016   4.789  0.0968  0.1299 -0.3964
 1001loPI   C2B16014  18.134  10.164   5.269  0.0938 -0.0101 -0.0056
 1001loPI   C3B16015  18.246  10.117   5.659  0.3427  0.0660 -0.2179
 1001loPI   C4B16016  18.250  10.033   6.122  0.0778  0.4071  0.3646
 1002loPI    C116017  10.254  13.083   4.638 -0.3598 -0.1106 -0.0715
 1002loPI    C216018  10.067  13.329   4.385 -0.0561  0.0136 -0.1797
 1002loPI    C316019  10.164  12.959   4.269 -0.2603 -0.0621 -0.1125
 1002loPI   PO416020  10.374  13.417   4.812  0.0786  0.2466 -0.0196
 1002loPI   GL116021  10.155  13.555   5.148  0.2694  0.3233 -0.1511
 1002loPI   GL216022   9.945  13.399   5.472  0.0222 -0.1496  0.2017
 1002loPI   C1A16023  10.453  13.428   5.540 -0.0077  0.2022  0.4630
 1002loPI   C2A16024  10.821  13.138   5.831  0.4347  0.1712  0.0791
 1002loPI   C3A16025  11.062  13.295   6.202  0.1126  0.2610  0.0353
 1002loPI   C4A16026  11.202  13.535   6.659  0.3160 -0.0427  0.0723
 1002loPI   C5A16027  11.577  13.705   6.767 -0.2570  0.1386  0.1306
 1002loPI   C6A16028  12.034  13.775   6.798 -0.1960  0.0179  0.0280
 1002loPI   C1B16029   9.809  13.238   5.916  0.4341 -0.0574 -0.1294
 1002loPI   C2B16030   9.370  13.058   6.185 -0.0313  0.2469  0.0516
 1002loPI   C3B16031   9.282  12.722   6.442  0.0780  0.0136 -0.0096
 1002loPI   C4B16032   9.352  12.370   6.463  0.1675 -0.0215 -0.0344
 1003loPI    C116033   8.863  11.931   4.389  0.1413 -0.2246 -0.3493
 1003loPI    C216034   9.018  12.193   4.130 -0.1470  0.2371 -0.0693
 1003loPI    C316035   8.621  12.161   4.170 -0.1146 -0.1876 -0.0358
 1003loPI   PO416036   9.129  11.892   4.548  0.3425 -0.3201  0.0188
 1003loPI   GL116037   9.352  11.881   5.007  0.0050  0.2672  0.2407
 1003loPI   GL216038   9.677  11.881   5.024  0.1707  0.1569 -0.1580
 1003loPI   C1A16039   9.328  12.079   5.446 -0.0556 -0.4013  0.1175
 1003loPI   C2A16040   9.302  12.109   5.817 -0.0633 -0.2364 -0.2171
 1003loPI   C3A16041   9.244  11.954   6.260 -0.0794  0.3169  0.0601
 1003loPI   C4A16042   9.146  11.821   6.659 -0.0065 -0.1614  0.1555
 1003loPI   C5A16043   8.750  11.850   6.923  0.0279  0.0756  0.0001
 1003loPI   C6A16044   8.557  12.075   7.195  0.3026  0.0219  0.2464
 1003loPI   C1B16045   9.899  11.875   5.510 -0.1203  0.1619 -0.1354
 1003loPI   C2B16046   9.779  11.867   6.006 -0.0945  0.1370  0.1520
 1003loPI   C3B16047   9.640  11.805   6.491 -0.3382  0.1208 -0.0340
 1003loPI   C4B16048   9.616  12.093   6.951  0.2268 -0.1921  0.0664
 1004loPI    C116049  13.879  11.298   4.400  0.1965  0.1889 -0.0145
 1004loPI    C216050  13.822  11.341   4.006 -0.0165 -0.1841 -0.0291
 1004loPI    C316051  14.193  11.340   4.155  0.0674 -0.0875 -0.2337
 1004loPI   PO416052  13.759  11.518   4.616  0.0704 -0.0129 -0.0735
 1004loPI   GL116053  13.747  11.559   5.053  0.0369  0.2817 -0.1147
 1004loPI   GL216054  14.048  11.603   5.052  0.0280  0.0559 -0.1378
 1004loPI   C1A16055  13.640  11.344   5.431 -0.1178 -0.2833  0.1147
 1004loPI   C2A16056  13.599  11.254   5.829  0.1429  0.0715  0.1844
 1004loPI   C3A16057  13.660  11.214   6.299  0.0843  0.2965 -0.0774
 1004loPI   C4A16058  13.691  11.058   6.785  0.1069  0.1115 -0.1027
 1004loPI   C5A16059  13.916  10.622   6.880 -0.2289  0.2856 -0.2215
 1004loPI   C6A16060  14.136  10.316   6.639  0.1520 -0.1890  0.0007
 1004loPI   C1B16061  14.186  11.256   5.344 -0.0360  0.0059 -0.1037
 1004loPI   C2B16062  14.282  10.987   5.755 -0.0619 -0.2463  0.0951
 1004loPI   C3B16063  14.512  11.010   6.132 -0.2241  0.0534 -0.0576
 1004loPI   C4B16064  14.562  11.227   6.585  0.3633  0.0185  0.0089
 1005loPI    C116065   7.916   6.552   4.646  0.0826 -0.1626  0.1307
 1005loPI    C216066   8.241   6.389   4.479  0.2030  0.0294  0.1744
 1005loPI    C316067   8.137   6.764   4.388 -0.1044 -0.0882  0.0302
 1005loPI   PO416068   7.909   6.451   4.918  0.0112 -0.1146 -0.2842
 1005loPI   GL116069   8.169   6.339   5.314  0.1054 -0.2378 -0.2249
 1005loPI   GL216070   8.055   6.675   5.378 -0.0976 -0.0629 -0.1423
 1005loPI   C1A16071   8.312   6.390   5.705 -0.1762  0.1067 -0.2340
 1005loPI   C2A16072   8.337   6.511   6.042  0.1706  0.1996 -0.0657
 1005loPI   C3A16073   8.529   6.569   6.526 -0.1013 -0.1278 -0.1031
 1005loPI   C4A16074   8.721   6.421   6.836  0.2454  0.1673 -0.0343
 1005loPI   C5A16075   8.924   6.310   7.156 -0.2659 -0.0205  0.2876
 1005loPI   C6A16076   9.085   6.454   7.432  0.4594 -0.0464 -0.2089
 1005loPI   C1B16077   7.992   6.955   5.748 -0.0461  0.1029 -0.2732
 1005loPI   C2B16078   8.160   7.089   6.146  0.1787 -0.0285 -0.0149
 1005loPI   C3B16079   8.242   7.081   6.523 -0.1080 -0.3039  0.2335
 1005loPI   C4B16080   7.988   7.180   6.877  0.0940 -0.0534 -0.0844
 1006loPI    C116081  15.821   5.021   4.876  0.1036 -0.2765 -0.1237
 1006loPI    C216082  15.467   5.142   4.737  0.1630  0.0338 -0.0139
 1006loPI    C316083  15.796   5.192   4.516  0.1530 -0.1693 -0.0768
 1006loPI   PO416084  15.770   5.092   5.118  0.0710 -0.1178 -0.0914
 1006loPI   GL116085  15.868   5.408   5.494 -0.1244 -0.5256  0.0505
 1006loPI   GL216086  15.579   5.331   5.550 -0.3628 -0.2089  0.2343
 1006loPI   C1A16087  15.866   5.809   5.743  0.0273  0.2172 -0.0255
 1006loPI   C2A16088  15.742   5.831   6.158  0.2072  0.0858 -0.2230
 1006loPI   C3A16089  15.601   5.721   6.555 -0.1169 -0.0615 -0.0973
 1006loPI   C4A16090  15.724   5.478   6.947 -0.3047  0.0579 -0.0026
 1006loPI   C5A16091  15.555   5.073   7.181 -0.0730 -0.0075 -0.2882
 1006loPI   C6A16092  15.836   4.689   7.513  0.1410  0.2256 -0.1597
 1006loPI   C1B16093  15.689   5.321   5.932  0.0735  0.0606 -0.2880
 1006loPI   C2B16094  15.671   5.220   6.299 -0.1325  0.1494 -0.1137
 1006loPI   C3B16095  15.765   5.079   6.606 -0.0859  0.1956  0.1648
 1006loPI   C4B16096  15.925   4.947   6.958 -0.0914  0.0047 -0.4649
 1007loPI    C116097   4.949   3.392   4.545 -0.0774  0.2769  0.1775
 1007loPI    C216098   4.922   3.002   4.457  0.1817  0.2616  0.1570
 1007loPI    C316099   4.627   3.252   4.353 -0.0372  0.0539  0.2692
 1007loPI   PO416100   5.034   3.481   4.799  0.1618 -0.2915  0.0904
 1007loPI   GL116101   4.982   3.457   5.275  0.0245 -0.1489  0.0163
 1007loPI   GL216102   4.689   3.514   5.316 -0.0131  0.0569 -0.0466
 1007loPI   C1A16103   5.218   3.254   5.555 -0.1204 -0.2851  0.0301
 1007loPI   C2A16104   5.345   2.961   5.848  0.3610  0.2667  0.3021
 1007loPI   C3A16105   5.268   2.846   6.303  0.0350 -0.1483 -0.0810
 1007loPI   C4A16106   5.285   2.893   6.669  0.2093  0.2721  0.3778
 1007loPI   C5A16107   5.109   2.837   7.045 -0.0726  0.0298 -0.0132
 1007loPI   C6A16108   4.869   2.683   7.331 -0.0862  0.0141  0.2453
 1007loPI   C1B16109   4.397   3.713   5.668  0.1662  0.1584  0.0958
 1007loPI   C2B16110   4.177   3.746   5.971  0.0343 -0.2658 -0.3806
 1007loPI   C3B16111   4.108   3.718   6.319 -0.2894 -0.1796  0.0106
 1007loPI   C4B16112   4.124   3.963   6.689 -0.1333  0.2817  0.1785
 1008loPI    C116113   2.311   3.485   4.835  0.1226  0.1952 -0.1972
 1008loPI    C216114   2.652   3.628   4.683  0.0443  0.2946 -0.2810
 1008loPI    C316115   2.479   3.308   4.518  0.2691  0.0415 -0.0355
 1008loPI   PO416116   2.355   3.413   5.080 -0.1550 -0.1409 -0.1822
 1008loPI   GL116117   2.308   3.535   5.498  0.3249 -0.1351  0.0802
 1008loPI   GL216118   2.437   3.273   5.534 -0.3386 -0.1576  0.0511
 1008loPI   C1A16119   2.364   3.540   5.983 -0.2097 -0.1332  0.0277
 1008loPI   C2A16120   2.428   3.203   6.195  0.0279 -0.3970  0.0358
 1008loPI   C3A16121   2.388   2.834   6.509 -0.2717 -0.1298 -0.0523
 1008loPI   C4A16122   2.425   2.642   6.869  0.1770  0.0587 -0.1835
 1008loPI   C5A16123   2.402   2.736   7.320 -0.2081  0.2763 -0.1885
 1008loPI   C6A16124   2.449   3.142   7.688  0.0416 -0.1953 -0.0468
 1008loPI   C1B16125   2.223   2.998   5.747 -0.2206  0.2259  0.2171
 1008loPI   C2B16126   1.988   2.764   5.896 -0.3192  0.1244  0.2869
 1008loPI   C3B16127   1.730   2.681   6.207  0.0185 -0.0842 -0.3538
 1008loPI   C4B16128   1.506   2.767   6.726 -0.0931 -0.1205 -0.3697
 1009loPI    C116129  17.590   1.430   4.784 -0.1479 -0.1445  0.2258
 1009loPI    C216130  17.455   1.775   4.633  0.0848  0.0355  0.4210
 1009loPI    C316131  17.400   1.433   4.432 -0.0532  0.1997  0.1745
 1009loPI   PO416132  17.793   1.590   4.953 -0.0580 -0.1558 -0.0622
 1009loPI   GL116133  17.771   1.656   5.480 -0.1012 -0.3691 -0.0375
 1009loPI   GL216134  17.516   1.830   5.631 -0.0197 -0.1258  0.1771
 1009loPI   C1A16135  17.984   1.690   5.945 -0.2640  0.1620  0.3615
 1009loPI   C2A16136  18.282   1.834   6.255 -0.3438  0.1539  0.0930
 1009loPI   C3A16137  18.377   1.760   6.678  0.2582 -0.1285  0.2405
 1009loPI   C4A16138  18.302   1.541   7.166 -0.4552 -0.0114 -0.0279
 1009loPI   C5A16139  18.240   1.058   7.362  0.1224 -0.0676  0.4045
 1009loPI   C6A16140  18.404   0.682   7.403 -0.2889  0.0558  0.0390
 1009loPI   C1B16141  17.636   2.035   6.011  0.1917  0.1357 -0.4717
 1009loPI   C2B16142  17.683   1.899   6.435 -0.0303  0.4268 -0.2446
 1009loPI   C3B16143  17.652   1.905   6.930  0.2892  0.0439 -0.3424
 1009loPI   C4B16144  17.599   1.768   7.361 -0.2848 -0.0042  0.2497
 1010loPI    C116145   0.416   1.381   4.848 -0.0992 -0.0589 -0.1025
 1010loPI    C216146   0.669   1.595   4.624 -0.0315  0.0452  0.0715
 1010loPI    C316147   0.312   1.491   4.478  0.1088 -0.0994 -0.1738
 1010loPI   PO416148   0.535   1.220   4.935  0.0130 -0.4538  0.0810
 1010loPI   GL116149   0.617   1.251   5.319 -0.0859  0.1121 -0.2017
 1010loPI   GL216150   0.552   0.971   5.345  0.0909  0.1953  0.0435
 1010loPI   C1A16151   0.774   1.209   5.747 -0.2583 -0.0865 -0.0893
 1010loPI   C2A16152   0.806   1.067   6.161 -0.1362  0.1002  0.2522
 1010loPI   C3A16153   0.888   1.230   6.634 -0.0016  0.2160  0.2858
 1010loPI   C4A16154   1.125   1.266   7.051  0.1956  0.1774  0.1249
 1010loPI   C5A16155   1.550   1.177   7.161  0.1641 -0.1577  0.0481
 1010loPI   C6A16156   1.890   1.476   7.147 -0.1663  0.1612  0.3024
 1010loPI   C1B16157   0.476   0.768   5.809 -0.1269  0.1120  0.1404
 1010loPI   C2B16158   0.481   0.680   6.260 -0.2192 -0.1361  0.0358
 1010loPI   C3B16159   0.666   0.780   6.662  0.1471  0.3015  0.0492
 1010loPI   C4B16160   0.801   0.884   7.131  0.1349  0.1723  0.2562
 1011loPI    C116161   1.452  19.329   4.313  0.0118 -0.3214 -0.0722
 1011loPI    C216162   1.107  19.452   4.153  0.0172 -0.4475 -0.1820
 1011loPI    C316163   1.355  19.220   3.941  0.1750 -0.3486 -0.1077
 1011loPI   PO416164   1.580  19.561   4.570 -0.3284  0.2507  0.0156
 1011loPI   GL116165   1.533  19.544   4.964  0.1870 -0.1014 -0.0307
 1011loPI   GL216166   1.706  19.360   5.081  0.3703 -0.0055  0.0160
 1011loPI   C1A16167   1.369  19.601   5.378  0.1537 -0.1447 -0.1056
 1011loPI   C2A16168   1.331  19.491   5.818 -0.1034  0.1118  0.0857
 1011loPI   C3A16169   1.557  19.406   6.128  0.4339 -0.1849 -0.0225
 1011loPI   C4A16170   1.733  19.477   6.543  0.2817  0.0796  0.0263
 1011loPI   C5A16171   1.597  19.206   6.837 -0.2126  0.2006 -0.1925
 1011loPI   C6A16172   1.457  19.045   7.268 -0.0477  0.0370 -0.1712
 1011loPI   C1B16173   1.818  19.384   5.540  0.0155 -0.0789 -0.0182
 1011loPI   C2B16174   2.058  19.338   5.956  0.0616 -0.1321 -0.1277
 1011loPI   C3B16175   2.208  19.439   6.354  0.1358  0.2046 -0.6015
 1011loPI   C4B16176   2.142  19.437   6.836 -0.2047 -0.4473  0.2809
 1012loPI    C116177   4.035  11.876   4.158 -0.1918  0.0588  0.2853
 1012loPI    C216178   3.863  12.228   4.239  0.1315  0.2244  0.2700
 1012loPI    C316179   4.166  12.209   3.978 -0.0700 -0.1117  0.0528
 1012loPI   PO416180   3.761  11.641   4.198 -0.0068  0.0205  0.1117
 1012loPI   GL116181   3.647  11.504   4.607  0.2565 -0.0195  0.1975
 1012loPI   GL216182   3.305  11.559   4.782 -0.1336 -0.2027  0.1465
 1012loPI   C1A16183   3.786  11.690   5.014  0.2772 -0.1763  0.3268
 1012loPI   C2A16184   3.690  11.929   5.344 -0.0130  0.0184  0.1690
 1012loPI   C3A16185   3.741  11.851   5.877  0.4234 -0.0199  0.3408
 1012loPI   C4A16186   3.874  11.750   6.267 -0.0622  0.1781  0.2624
 1012loPI   C5A16187   4.056  12.019   6.560  0.1285 -0.0296 -0.1707
 1012loPI   C6A16188   4.129  12.078   7.055  0.0326  0.1354 -0.1535
 1012loPI   C1B16189   3.290  11.590   5.170 -0.1817  0.2792 -0.1220
 1012loPI   C2B16190   3.406  11.533   5.646 -0.1035  0.0660 -0.0746
 1012loPI   C3B16191   3.416  11.556   6.077 -0.0008  0.1743 -0.1216
 1012loPI   C4B16192   3.405  11.442   6.517  0.2390  0.0429 -0.0453
 1013loPI    C116193  18.642   2.109   5.098 -0.1570  0.1332 -0.0223
 1013loPI    C216194  18.494   2.078   4.728  0.0137 -0.0289 -0.0784
 1013loPI    C316195  18.885   2.141   4.783 -0.0327  0.1349  0.0733
 1013loPI   PO416196  18.413   2.280   5.268 -0.0871 -0.1304  0.3577
 1013loPI   GL116197  18.652   2.514   5.606  0.0129  0.2553 -0.1867
 1013loPI   GL216198  18.871   2.382   5.608  0.0393 -0.0891  0.0753
 1013loPI   C1A16199  18.868   2.558   6.078 -0.0677 -0.2738 -0.0077
 1013loPI   C2A16200  19.012   2.690   6.454 -0.0696  0.2904 -0.0417
 1013loPI   C3A16201  19.057   2.611   6.907  0.2163 -0.0232  0.1121
 1013loPI   C4A16202  19.093   2.590   7.410 -0.0436 -0.1048  0.0146
 1013loPI   C5A16203  19.007   2.904   7.807  0.3492 -0.0059  0.1489
 1013loPI   C6A16204  18.923   3.012   8.216 -0.1587 -0.0462 -0.1105
 1013loPI   C1B16205  19.278   2.582   5.709 -0.2830 -0.0204 -0.1002
 1013loPI   C2B16206  19.518   2.577   6.084  0.0621 -0.2584  0.3954
 1013loPI   C3B16207  19.542   2.590   6.509 -0.3101  0.1329 -0.4133
 1013loPI   C4B16208  19.553   2.517   6.985  0.3073 -0.0036 -0.1273
 1014loPI    C116209   2.632   0.222   4.814 -0.1323 -0.0854 -0.0160
 1014loPI    C216210   2.912  -0.047   4.909 -0.1815 -0.1237  0.0208
 1014loPI    C316211   2.903   0.110   4.542 -0.0455 -0.0418  0.0520
 1014loPI   PO416212   2.659   0.433   4.978 -0.3764 -0.0873 -0.1364
 1014loPI   GL116213   2.964   0.651   5.174 -0.1989  0.0646 -0.0049
 1014loPI   GL216214   3.040   0.955   5.333  0.2207 -0.0378 -0.1164
 1014loPI   C1A16215   3.187   0.498   5.549  0.0171  0.2396 -0.1431
 1014loPI   C2A16216   3.484   0.545   5.859  0.2950  0.3571  0.2086
 1014loPI   C3A16217   3.645   0.589   6.365  0.1274  0.1156  0.1124
 1014loPI   C4A16218   3.781   0.459   6.797 -0.1856 -0.2078  0.2139
 1014loPI   C5A16219   4.042   0.466   7.309 -0.0152 -0.1433  0.0640
 1014loPI   C6A16220   4.260   0.129   7.607 -0.2845 -0.3542  0.1937
 1014loPI   C1B16221   3.185   0.954   5.747  0.0422 -0.1052  0.0857
 1014loPI   C2B16222   3.313   1.005   6.073  0.6172 -0.2743 -0.1188
 1014loPI   C3B16223   3.308   1.064   6.515 -0.0126 -0.0118 -0.1080
 1014loPI   C4B16224   3.055   1.087   6.949 -0.0171 -0.0901  0.1382
 1015loPI    C116225  11.115   3.644   4.532 -0.0806 -0.0989 -0.0175
 1015loPI    C216226  10.989   3.270   4.470  0.3172 -0.2292 -0.0682
 1015loPI    C316227  11.094   3.499   4.160 -0.3233  0.0779 -0.0758
 1015loPI   PO416228  11.002   3.725   4.735  0.0458 -0.2282  0.0898
 1015loPI   GL116229  10.767   3.702   5.211  0.0736  0.0469  0.2769
 1015loPI   GL216230  10.572   3.572   5.244  0.2386  0.1976 -0.3123
 1015loPI   C1A16231  10.956   3.873   5.645 -0.3742  0.2790 -0.0002
 1015loPI   C2A16232  10.908   4.000   6.118  0.0178  0.2202  0.1008
 1015loPI   C3A16233  11.045   4.016   6.601 -0.2153  0.0986  0.1683
 1015loPI   C4A16234  10.903   3.939   7.110 -0.1001 -0.5185  0.2058
 1015loPI   C5A16235  10.706   4.102   7.473 -0.1104 -0.0849 -0.0960
 1015loPI   C6A16236  10.371   4.278   7.833  0.3110  0.1447 -0.1326
 1015loPI   C1B16237  10.192   3.512   5.522  0.1529  0.1000 -0.4629
 1015loPI   C2B16238   9.760   3.637   5.741 -0.0359 -0.0138  0.1250
 1015loPI   C3B16239   9.604   3.560   6.122  0.1372 -0.0668  0.1173
 1015loPI   C4B16240   9.725   3.580   6.619 -0.2275 -0.1786  0.2678
 1016loPI    C116241   9.580  10.009   4.455 -0.0817 -0.1091  0.1884
 1016loPI    C216242   9.350  10.167   4.168 -0.0819 -0.0615  0.2148
 1016loPI    C316243   9.479   9.790   4.136 -0.1550 -0.0848  0.1948
 1016loPI   PO416244   9.479  10.057   4.733 -0.1825  0.4705  0.2616
 1016loPI   GL116245   9.594  10.162   5.084 -0.1291 -0.0845  0.0123
 1016loPI   GL216246   9.548  10.455   5.047  0.0123 -0.0121 -0.0855
 1016loPI   C1A16247   9.546   9.910   5.393 -0.0986 -0.0965  0.1166
 1016loPI   C2A16248   9.568   9.802   5.834 -0.0462 -0.1081  0.1101
 1016loPI   C3A16249   9.465   9.880   6.261 -0.1177  0.0017 -0.0679
 1016loPI   C4A16250   9.429  10.325   6.497 -0.1398 -0.3010  0.0218
 1016loPI   C5A16251   9.750  10.581   6.659 -0.0156  0.2591  0.1130
 1016loPI   C6A16252  10.023  10.799   6.878 -0.0732  0.0817  0.1289
 1016loPI   C1B16253   9.529  10.390   5.518 -0.1782 -0.1721  0.3040
 1016loPI   C2B16254   9.605  10.309   5.892  0.0043 -0.0142 -0.1541
 1016loPI   C3B16255   9.875  10.237   6.244 -0.3876  0.1606 -0.0323
 1016loPI   C4B16256   9.914  10.076   6.683 -0.2983  0.0771 -0.2541
 1017loPI    C116257   2.220  12.493   4.350  0.1911 -0.0505  0.0799
 1017loPI    C216258   2.169  12.858   4.195 -0.1446 -0.0770  0.1202
 1017loPI    C316259   2.137  12.802   4.590 -0.0661 -0.1459  0.1171
 1017loPI   PO416260   2.126  12.277   4.150 -0.1264  0.0207  0.0736
 1017loPI   GL116261   1.926  11.924   4.362  0.1408  0.2199  0.0403
 1017loPI   GL216262   1.873  12.089   4.613  0.4165  0.1016  0.3179
 1017loPI   C1A16263   2.202  11.668   4.632 -0.2512  0.2918  0.1423
 1017loPI   C2A16264   2.156  11.230   4.783  0.1794  0.2138  0.1956
 1017loPI   C3A16265   1.888  11.061   5.026 -0.2080 -0.1291  0.0215
 1017loPI   C4A16266   1.808  10.886   5.404 -0.2605 -0.0710 -0.5594
 1017loPI   C5A16267   1.671  10.651   5.679  0.1571  0.1030 -0.3491
 1017loPI   C6A16268   1.733  10.714   6.181  0.1721 -0.1494 -0.1833
 1017loPI   C1B16269   1.970  12.374   4.885  0.0058 -0.1324  0.0387
 1017loPI   C2B16270   2.093  12.815   5.113  0.0731 -0.3373  0.2189
 1017loPI   C3B16271   2.508  12.849   5.230 -0.1706 -0.0736  0.0105
 1017loPI   C4B16272   2.749  12.917   5.606 -0.0974  0.0847  0.1906
 1018loPI    C116273  19.537  11.423   4.107  0.1170 -0.0518 -0.1385
 1018loPI    C216274  19.313  11.525   3.792 -0.1122 -0.2794 -0.0525
 1018loPI    C316275  19.199  11.631   4.160  0.2148  0.0866 -0.0500
 1018loPI   PO416276  19.784  11.594   4.126 -0.0452  0.4475 -0.3368
 1018loPI   GL116277  20.083  11.554   4.488 -0.1923 -0.3387 -0.3269
 1018loPI   GL216278  19.898  11.755   4.719  0.0786  0.1161 -0.0616
 1018loPI   C1A16279  19.850  11.377   4.959 -0.0659 -0.0564 -0.2171
 1018loPI   C2A16280  19.646  11.575   5.345 -0.0690 -0.3097 -0.1288
 1018loPI   C3A16281  19.655  11.485   5.705 -0.0551  0.1252 -0.1121
 1018loPI   C4A16282  19.645  11.485   6.165 -0.0145 -0.2149 -0.0105
 1018loPI   C5A16283  19.647  11.697   6.564  0.0866  0.0930  0.0605
 1018loPI   C6A16284  19.939  12.004   6.769 -0.2028  0.1556 -0.1366
 1018loPI   C1B16285  20.140  11.882   5.054 -0.0216 -0.1030  0.2350
 1018loPI   C2B16286  20.386  12.249   5.087  0.2601 -0.0173 -0.0147
 1018loPI   C3B16287  20.542  12.385   5.492 -0.1974 -0.1081 -0.1041
 1018loPI   C4B16288  20.861  12.694   5.731 -0.2699  0.0877 -0.0767
 1019loPI    C116289  14.207   5.166   4.897  0.0375  0.2756  0.0198
 1019loPI    C216290  14.562   5.102   5.071 -0.0308  0.0568  0.0819
 1019loPI    C316291  14.542   5.179   4.678  0.0961  0.2139  0.1054
 1019loPI   PO416292  14.069   5.325   5.109  0.2776  0.0112 -0.0225
 1019loPI   GL116293  14.229   5.427   5.454 -0.0901  0.1139  0.0892
 1019loPI   GL216294  14.357   5.725   5.458  0.1700 -0.0402 -0.3589
 1019loPI   C1A16295  14.277   5.166   5.776  0.1680 -0.3665 -0.0580
 1019loPI   C2A16296  14.270   5.245   6.172  0.2159 -0.0177  0.1888
 1019loPI   C3A16297  14.255   5.012   6.544  0.3838 -0.0784  0.2653
 1019loPI   C4A16298  14.240   5.064   6.926  0.1175 -0.2005 -0.2034
 1019loPI   C5A16299  14.452   5.212   7.255 -0.0619  0.3180 -0.1154
 1019loPI   C6A16300  14.726   5.465   7.382 -0.3733 -0.2072 -0.0948
 1019loPI   C1B16301  14.371   5.685   5.943 -0.1891 -0.2643 -0.1633
 1019loPI   C2B16302  14.353   5.675   6.359  0.3261  0.0892  0.0346
 1019loPI   C3B16303  14.179   5.465   6.695  0.0438 -0.0654  0.0222
 1019loPI   C4B16304  13.903   5.447   7.099  0.3273  0.0951  0.0380
 1020loPI    C116305   5.786  18.498   4.845 -0.1063  0.0051  0.0886
 1020loPI    C216306   6.072  18.700   4.651 -0.1851  0.1795  0.1520
 1020loPI    C316307   6.165  18.486   4.975 -0.0222 -0.2530 -0.1708
 1020loPI   PO416308   5.581  18.650   4.956  0.1466  0.0279 -0.2161
 1020loPI   GL116309   5.575  19.023   5.238 -0.0899  0.1131 -0.1811
 1020loPI   GL216310   5.688  19.352   5.231 -0.0698  0.1124 -0.1957
 1020loPI   C1A16311   5.542  19.056   5.708  0.0586  0.3345 -0.1547
 1020loPI   C2A16312   5.576  18.924   6.124 -0.2667  0.1435  0.0683
 1020loPI   C3A16313   5.612  18.870   6.626  0.0601  0.1250  0.0474
 1020loPI   C4A16314   5.761  18.550   6.928 -0.0987 -0.1828 -0.0855
 1020loPI   C5A16315   5.920  18.357   7.363  0.3356  0.2819 -0.0692
 1020loPI   C6A16316   5.810  18.111   7.760  0.2375  0.1059  0.1729
 1020loPI   C1B16317   5.735  19.673   5.514 -0.1454 -0.1456 -0.0870
 1020loPI   C2B16318   5.712  19.849   5.887  0.0690 -0.0545 -0.3100
 1020loPI   C3B16319   5.531  19.807   6.288  0.1758 -0.2409  0.1490
 1020loPI   C4B16320   5.636  19.925   6.766  0.0448 -0.1292 -0.1418
 1021loPI    C116321  18.740   8.731   4.276 -0.1612 -0.0170 -0.0624
 1021loPI    C216322  18.947   8.423   4.128 -0.1346 -0.0895  0.1236
 1021loPI    C316323  18.773   8.684   3.880  0.1104 -0.0738 -0.0345
 1021loPI   PO416324  18.463   8.657   4.425  0.0041 -0.1371 -0.0601
 1021loPI   GL116325  18.250   8.612   4.817 -0.2023 -0.0933 -0.1839
 1021loPI   GL216326  17.994   8.724   4.852  0.0146  0.0111  0.0319
 1021loPI   C1A16327  18.574   8.546   5.087  0.3928 -0.2076 -0.0881
 1021loPI   C2A16328  18.557   8.534   5.473 -0.2185 -0.2540  0.0392
 1021loPI   C3A16329  18.521   8.493   5.866  0.2470  0.0694 -0.0250
 1021loPI   C4A16330  18.598   8.550   6.297  0.2532  0.1095 -0.0458
 1021loPI   C5A16331  18.483   8.514   6.755 -0.1146  0.2580  0.0092
 1021loPI   C6A16332  18.287   8.268   6.964 -0.0738 -0.1927 -0.0832
 1021loPI   C1B16333  17.987   8.707   5.288  0.1717  0.0839  0.1830
 1021loPI   C2B16334  18.061   8.600   5.744  0.2653 -0.1468  0.2673
 1021loPI   C3B16335  18.109   8.626   6.262  0.0899  0.0204 -0.5850
 1021loPI   C4B16336  17.946   8.579   6.726 -0.0978  0.1503  0.0350
 1022loPI    C116337  15.745   9.055   4.182  0.1224  0.0458 -0.0712
 1022loPI    C216338  15.878   9.422   4.096  0.0369  0.0794 -0.0611
 1022loPI    C316339  15.500   9.369   4.217  0.0720 -0.0025  0.0138
 1022loPI   PO416340  15.871   8.864   4.406 -0.0822  0.0816 -0.0332
 1022loPI   GL116341  16.083   8.611   4.674  0.0990  0.1744  0.1380
 1022loPI   GL216342  16.391   8.418   4.854  0.0563 -0.1235 -0.1750
 1022loPI   C1A16343  15.880   8.598   5.170 -0.2195 -0.2433  0.1325
 1022loPI   C2A16344  15.857   8.552   5.501  0.1462 -0.1564  0.3422
 1022loPI   C3A16345  15.912   8.547   5.965 -0.0497 -0.0037 -0.0297
 1022loPI   C4A16346  15.974   8.625   6.452  0.1922 -0.1877 -0.0674
 1022loPI   C5A16347  16.152   8.783   6.719  0.0713 -0.3432 -0.0429
 1022loPI   C6A16348  16.494   8.869   6.945  0.0134 -0.0381  0.0626
 1022loPI   C1B16349  16.356   8.426   5.332  0.0300  0.3600 -0.3202
 1022loPI   C2B16350  16.422   8.346   5.752 -0.3747  0.1898  0.1081
 1022loPI   C3B16351  16.357   8.300   6.220  0.0894  0.1889  0.0215
 1022loPI   C4B16352  16.529   8.445   6.659 -0.2178  0.2887  0.1228
 1023loPI    C116353   2.363   6.057   4.721 -0.0946  0.1005 -0.0413
 1023loPI    C216354   2.597   5.840   4.480 -0.1418  0.2630 -0.2363
 1023loPI    C316355   2.384   6.144   4.332 -0.2707  0.2851 -0.0114
 1023loPI   PO416356   2.457   6.166   4.880  0.2233  0.0239  0.2895
 1023loPI   GL116357   2.186   6.514   5.044 -0.1234  0.3265  0.0267
 1023loPI   GL216358   2.306   6.830   5.067 -0.0653 -0.1820 -0.0329
 1023loPI   C1A16359   2.068   6.284   5.461 -0.3012 -0.1689 -0.0120
 1023loPI   C2A16360   1.883   6.211   5.912  0.1486  0.0364 -0.2588
 1023loPI   C3A16361   1.977   5.904   6.267 -0.0327 -0.2229 -0.2664
 1023loPI   C4A16362   2.180   5.734   6.657  0.0967  0.1633 -0.4046
 1023loPI   C5A16363   2.170   5.763   7.119  0.0124  0.0962 -0.0791
 1023loPI   C6A16364   2.358   5.619   7.537 -0.1429  0.0810 -0.1922
 1023loPI   C1B16365   2.219   6.929   5.443 -0.0437 -0.2471  0.1073
 1023loPI   C2B16366   2.134   7.052   5.887 -0.0841  0.0718  0.2463
 1023loPI   C3B16367   2.284   6.932   6.372  0.2517 -0.2366  0.3665
 1023loPI   C4B16368   2.469   6.748   6.694 -0.1591 -0.0317  0.0637
 1024loPI    C116369  11.848   7.327   4.691  0.1936  0.4353  0.1234
 1024loPI    C216370  12.160   7.085   4.628 -0.0407  0.1313  0.1097
 1024loPI    C316371  12.083   7.383   4.373  0.1256  0.0882  0.0078
 1024loPI   PO416372  11.926   7.351   4.984  0.0523 -0.0522  0.0163
 1024loPI   GL116373  12.093   7.400   5.417  0.0272 -0.0276 -0.1023
 1024loPI   GL216374  12.360   7.523   5.490  0.0917 -0.2865  0.2708
 1024loPI   C1A16375  12.095   7.244   5.844  0.0509 -0.2614  0.0799
 1024loPI   C2A16376  12.254   7.129   6.319 -0.2410  0.2527 -0.3691
 1024loPI   C3A16377  12.294   7.152   6.784 -0.1457 -0.0019 -0.1231
 1024loPI   C4A16378  12.210   7.402   7.223  0.1107  0.0876 -0.0528
 1024loPI   C5A16379  12.066   7.657   7.564 -0.1824 -0.0919  0.0375
 1024loPI   C6A16380  11.988   8.009   7.619  0.2013  0.2640  0.2271
 1024loPI   C1B16381  12.533   7.420   5.853  0.3849 -0.0634 -0.0236
 1024loPI   C2B16382  12.748   7.669   6.158  0.2767  0.1146 -0.0568
 1024loPI   C3B16383  13.055   7.806   6.471 -0.1727 -0.3425 -0.0980
 1024loPI   C4B16384  13.281   7.728   6.913  0.2575  0.0177 -0.0811
 1025loPI    C116385   7.031   2.262   4.886 -0.0419 -0.1992 -0.1135
 1025loPI    C216386   6.888   2.253   5.259 -0.0992  0.2093 -0.1210
 1025loPI    C316387   6.670   2.107   4.957  0.0271 -0.2988  0.0241
 1025loPI   PO416388   7.298   2.487   5.040  0.2107  0.1178 -0.0891
 1025loPI   GL116389   7.408   2.556   5.420 -0.1097  0.2068 -0.0211
 1025loPI   GL216390   7.472   2.143   5.395  0.1054  0.0006  0.0423
 1025loPI   C1A16391   7.140   2.496   5.674  0.1684 -0.0395  0.2089
 1025loPI   C2A16392   7.221   2.314   6.032 -0.2278  0.0768 -0.1113
 1025loPI   C3A16393   7.165   2.238   6.364  0.1420 -0.0387 -0.0428
 1025loPI   C4A16394   7.075   2.333   6.743 -0.1929  0.1452 -0.1747
 1025loPI   C5A16395   6.982   2.409   7.181  0.1850 -0.3355  0.1474
 1025loPI   C6A16396   7.270   2.493   7.477  0.0598  0.0904 -0.1253
 1025loPI   C1B16397   7.513   1.986   5.826 -0.0156  0.1349 -0.3512
 1025loPI   C2B16398   7.350   1.783   6.263  0.1016 -0.0778 -0.0324
 1025loPI   C3B16399   7.181   1.819   6.627  0.2571 -0.0848 -0.2245
 1025loPI   C4B16400   6.966   1.824   7.048  0.1751 -0.0397 -0.0004
 1026loPI    C116401  16.813   6.504   4.291  0.0541  0.1036  0.0530
 1026loPI    C216402  17.106   6.532   4.020  0.0018  0.0348 -0.0113
 1026loPI    C316403  16.733   6.638   3.922 -0.0382 -0.0953 -0.0003
 1026loPI   PO416404  16.919   6.557   4.554 -0.0567 -0.0997 -0.0183
 1026loPI   GL116405  16.940   6.843   4.747  0.0925 -0.2292  0.1225
 1026loPI   GL216406  17.173   7.093   4.831 -0.2008 -0.1018 -0.2934
 1026loPI   C1A16407  16.852   6.891   5.260  0.1981 -0.0565  0.2861
 1026loPI   C2A16408  16.997   7.098   5.660 -0.0076  0.1382  0.1308
 1026loPI   C3A16409  17.028   7.203   6.074 -0.0239 -0.1590 -0.0077
 1026loPI   C4A16410  17.030   7.109   6.418  0.1170 -0.1319  0.0069
 1026loPI   C5A16411  16.978   7.220   6.763 -0.2675  0.0579 -0.3265
 1026loPI   C6A16412  17.100   7.498   6.995  0.1403 -0.2630  0.1957
 1026loPI   C1B16413  17.193   7.247   5.214 -0.2689  0.2309 -0.3530
 1026loPI   C2B16414  17.339   7.477   5.685  0.4782 -0.0238  0.0072
 1026loPI   C3B16415  17.469   7.488   6.122 -0.0625 -0.1263  0.0555
 1026loPI   C4B16416  17.477   7.561   6.506 -0.2643  0.1913 -0.1133
 1027loPI    C116417   6.919  13.463   4.310 -0.0129  0.2666  0.0898
 1027loPI    C216418   6.707  13.749   4.128 -0.0742  0.1454 -0.0303
 1027loPI    C316419   6.674  13.368   4.009  0.1255  0.1096  0.0250
 1027loPI   PO416420   6.816  13.284   4.552  0.2703  0.0270 -0.0767
 1027loPI   GL116421   6.655  13.285   4.964  0.0866  0.0397  0.1040
 1027loPI   GL216422   6.373  13.516   4.913 -0.2597 -0.2030  0.1382
 1027loPI   C1A16423   6.483  13.294   5.362 -0.2349 -0.0605 -0.0446
 1027loPI   C2A16424   6.420  13.598   5.643  0.0972  0.2137  0.1454
 1027loPI   C3A16425   6.465  13.714   6.035  0.0561 -0.0854 -0.0016
 1027loPI   C4A16426   6.353  13.894   6.487 -0.0929 -0.1763  0.0523
 1027loPI   C5A16427   6.362  14.205   6.862  0.2352  0.1203 -0.0594
 1027loPI   C6A16428   6.531  14.316   7.245 -0.1629 -0.0797 -0.0477
 1027loPI   C1B16429   6.518  13.807   5.185 -0.0521 -0.1389  0.0403
 1027loPI   C2B16430   6.852  13.820   5.320  0.1891 -0.1600  0.0055
 1027loPI   C3B16431   6.982  13.840   5.750  0.3333  0.2487 -0.1617
 1027loPI   C4B16432   7.014  13.937   6.142 -0.2151 -0.0162  0.0752
 1028loPI    C116433   1.330   8.794   4.053 -0.1970  0.0680  0.1666
 1028loPI    C216434   1.070   8.837   3.752  0.0134  0.1025 -0.0125
 1028loPI    C316435   1.308   8.516   3.767  0.0007  0.0987  0.1197
 1028loPI   PO416436   1.225   8.865   4.265 -0.1045 -0.2674  0.4195
 1028loPI   GL116437   0.920   8.599   4.622 -0.0915 -0.1623  0.1145
 1028loPI   GL216438   0.555   8.657   4.688 -0.1470  0.0294 -0.3052
 1028loPI   C1A16439   1.260   8.711   4.898  0.0738 -0.1888  0.5326
 1028loPI   C2A16440   1.397   8.712   5.369  0.0970 -0.0893 -0.3372
 1028loPI   C3A16441   1.400   8.759   5.771  0.0377 -0.1194 -0.3669
 1028loPI   C4A16442   1.288   8.788   6.148 -0.2195  0.3049  0.1063
 1028loPI   C5A16443   1.288   8.846   6.659  0.1275  0.1299  0.2454
 1028loPI   C6A16444   1.241   8.807   7.048 -0.2368 -0.1653 -0.2020
 1028loPI   C1B16445   0.645   8.500   5.041  0.0799 -0.0824  0.0462
 1028loPI   C2B16446   0.466   8.560   5.474  0.1504  0.1230  0.0443
 1028loPI   C3B16447   0.472   8.582   5.921 -0.0355  0.0886 -0.0785
 1028loPI   C4B16448   0.399   8.607   6.374 -0.0020 -0.1763  0.1530
 1029loPI    C116449   2.949   9.727   4.293 -0.0686 -0.2026 -0.0800
 1029loPI    C216450   3.176   9.737   3.964 -0.2068 -0.1179 -0.1737
 1029loPI    C316451   3.025   9.389   4.092  0.0202 -0.1834 -0.0790
 1029loPI   PO416452   3.020   9.967   4.400  0.1678 -0.2133 -0.0539
 1029loPI   GL116453   3.016  10.191   4.715 -0.0998  0.1682  0.4147
 1029loPI   GL216454   3.349  10.075   4.713  0.2467  0.2912  0.0200
 1029loPI   C1A16455   2.995  10.314   5.158  0.1838  0.1553 -0.1893
 1029loPI   C2A16456   3.119  10.179   5.536 -0.0192 -0.2191  0.0224
 1029loPI   C3A16457   3.297   9.893   5.800  0.0402 -0.1553  0.0815
 1029loPI   C4A16458   3.405   9.851   6.197  0.1509  0.0940  0.4173
 1029loPI   C5A16459   3.369   9.574   6.458  0.4493  0.1700  0.1520
 1029loPI   C6A16460   3.094   9.272   6.530  0.1607 -0.1667  0.0610
 1029loPI   C1B16461   3.164   9.867   5.122  0.0951 -0.2166  0.1787
 1029loPI   C2B16462   2.937   9.670   5.489  0.1114 -0.1077  0.3610
 1029loPI   C3B16463   2.830   9.735   5.911 -0.0018  0.0960  0.1161
 1029loPI   C4B16464   2.880   9.659   6.253  0.0917 -0.0750  0.0816
 1030loPI    C116465   4.886  10.125   4.561  0.1093 -0.4089  0.0813
 1030loPI    C216466   5.222  10.214   4.759  0.0543 -0.2427  0.1018
 1030loPI    C316467   5.230  10.175   4.361  0.0918 -0.2086  0.0991
 1030loPI   PO416468   4.742   9.895   4.851 -0.1181 -0.2638 -0.0345
 1030loPI   GL116469   4.928   9.687   5.154 -0.4439  0.2169  0.1250
 1030loPI   GL216470   4.697   9.603   5.372 -0.2746 -0.2603  0.1242
 1030loPI   C1A16471   5.201   9.467   5.422  0.0376 -0.0534  0.3316
 1030loPI   C2A16472   5.281   9.468   5.857 -0.0061  0.0540 -0.0940
 1030loPI   C3A16473   5.300   9.565   6.351 -0.3917 -0.1708  0.0409
 1030loPI   C4A16474   5.179   9.291   6.741  0.0051 -0.0385  0.1835
 1030loPI   C5A16475   5.106   8.784   6.704  0.1981  0.1286 -0.1505
 1030loPI   C6A16476   5.082   8.638   7.101  0.1189  0.0996 -0.3168
 1030loPI   C1B16477   4.968   9.840   5.684 -0.0095 -0.0147  0.1395
 1030loPI   C2B16478   4.937   9.945   6.104 -0.0420  0.1074  0.1003
 1030loPI   C3B16479   4.878   9.785   6.571  0.1046 -0.0144 -0.1999
 1030loPI   C4B16480   5.149   9.778   6.970 -0.0356  0.4062  0.3722
 1031loPI    C116481   5.789   1.002   4.912  0.1104 -0.0257 -0.0186
 1031loPI    C216482   5.537   1.139   4.634  0.0344 -0.0235  0.0514
 1031loPI    C316483   5.861   0.932   4.525 -0.0041 -0.0371 -0.0380
 1031loPI   PO416484   5.680   0.897   5.086 -0.0730  0.1819  0.2786
 1031loPI   GL116485   5.511   1.011   5.421  0.0476  0.0551 -0.3454
 1031loPI   GL216486   5.457   0.716   5.507 -0.0086  0.3318  0.0970
 1031loPI   C1A16487   5.576   1.354   5.762  0.2125 -0.0620  0.0826
 1031loPI   C2A16488   5.661   1.415   6.165 -0.0653  0.0149  0.1287
 1031loPI   C3A16489   5.805   1.576   6.504  0.2321  0.0369 -0.0577
 1031loPI   C4A16490   5.609   1.657   6.859 -0.1057  0.0187  0.0360
 1031loPI   C5A16491   5.753   1.567   7.292 -0.3215  0.1762  0.0217
 1031loPI   C6A16492   5.759   1.598   7.776  0.1774  0.0882  0.0622
 1031loPI   C1B16493   5.347   0.887   5.861 -0.0671 -0.2311  0.1448
 1031loPI   C2B16494   5.236   1.145   6.144 -0.4589 -0.2224  0.1682
 1031loPI   C3B16495   5.261   1.326   6.630 -0.1089 -0.0173  0.3706
 1031loPI   C4B16496   5.226   1.365   7.027 -0.2345 -0.1992  0.1149
 1032loPI    C116497  18.325  15.479   4.430 -0.0676  0.0024 -0.0292
 1032loPI    C216498  18.080  15.430   4.118  0.0732 -0.0749 -0.1290
 1032loPI    C316499  18.448  15.274   4.109  0.1687  0.1406 -0.0294
 1032loPI   PO416500  18.178  15.393   4.752 -0.2996 -0.2745 -0.2738
 1032loPI   GL116501  17.917  15.362   5.187 -0.2773 -0.0231 -0.0853
 1032loPI   GL216502  17.891  15.595   5.359 -0.2342  0.1228 -0.2783
 1032loPI   C1A16503  17.802  14.897   5.385  0.0225 -0.3993 -0.0447
 1032loPI   C2A16504  17.799  14.562   5.699 -0.0058  0.0639 -0.4290
 1032loPI   C3A16505  18.133  14.560   6.054  0.0616 -0.1863 -0.0032
 1032loPI   C4A16506  18.256  14.732   6.464 -0.1408  0.2046 -0.2669
 1032loPI   C5A16507  18.036  14.722   6.958  0.0509 -0.0605 -0.0660
 1032loPI   C6A16508  17.818  14.704   7.397 -0.1698 -0.1219 -0.2677
 1032loPI   C1B16509  17.862  15.408   5.703 -0.0641  0.0122 -0.2622
 1032loPI   C2B16510  18.058  15.454   6.086 -0.2410  0.0442  0.0830
 1032loPI   C3B16511  18.313  15.491   6.495 -0.1277  0.0243 -0.1993
 1032loPI   C4B16512  18.275  15.100   6.777  0.0129 -0.1550  0.0116
 1033loPI    C116513  12.138  14.660   4.096  0.0872 -0.3143 -0.0262
 1033loPI    C216514  11.955  14.878   3.815  0.3282 -0.1961 -0.0941
 1033loPI    C316515  11.862  14.492   3.861 -0.0608 -0.0965 -0.0118
 1033loPI   PO416516  12.128  14.863   4.354  0.0383 -0.0314 -0.0682
 1033loPI   GL116517  12.164  14.849   4.975  0.2501 -0.2379  0.1357
 1033loPI   GL216518  11.892  15.056   5.120 -0.3527  0.0812  0.2432
 1033loPI   C1A16519  12.421  14.665   5.339  0.2269  0.2290  0.1300
 1033loPI   C2A16520  12.468  14.643   5.816 -0.1461 -0.0927  0.1180
 1033loPI   C3A16521  12.870  14.448   6.192  0.2798 -0.3652  0.0775
 1033loPI   C4A16522  12.885  14.323   6.672  0.0145  0.2852 -0.1457
 1033loPI   C5A16523  12.882  14.219   7.140  0.0405  0.0400  0.4407
 1033loPI   C6A16524  13.029  14.480   7.469 -0.1833  0.0717  0.1966
 1033loPI   C1B16525  11.485  14.981   5.415 -0.3493 -0.0935 -0.0724
 1033loPI   C2B16526  11.370  14.661   5.648  0.0466 -0.1265  0.1292
 1033loPI   C3B16527  11.172  14.635   6.042  0.0822 -0.0231  0.3471
 1033loPI   C4B16528  11.271  14.469   6.348 -0.1412 -0.0557 -0.0252
 1034loPI    C116529   0.293  18.545   4.612  0.2282 -0.1035 -0.0775
 1034loPI    C216530   0.141  18.800   4.344  0.1435 -0.2180 -0.1394
 1034loPI    C316531  -0.036  18.447   4.407  0.1179 -0.1600  0.1242
 1034loPI   PO416532   0.333  18.668   4.843  0.2886 -0.1681 -0.0751
 1034loPI   GL116533   0.118  18.590   5.222  0.3586 -0.1925  0.0648
 1034loPI   GL216534   0.031  18.448   5.473  0.0728  0.1419 -0.0370
 1034loPI   C1A16535   0.309  18.887   5.556 -0.4343 -0.2529  0.0383
 1034loPI   C2A16536   0.352  19.143   5.914 -0.1476 -0.0682  0.1957
 1034loPI   C3A16537   0.154  19.437   6.345 -0.0333  0.0358  0.1677
 1034loPI   C4A16538  -0.108  19.621   6.432 -0.1229 -0.0184  0.1648
 1034loPI   C5A16539  -0.008  19.820   6.899  0.3532  0.3149 -0.1964
 1034loPI   C6A16540  -0.080  20.014   7.238  0.2153  0.3755 -0.0627
 1034loPI   C1B16541  -0.012  18.766   5.923  0.0927  0.0220  0.0596
 1034loPI   C2B16542   0.086  18.873   6.254  0.0820  0.3298 -0.3192
 1034loPI   C3B16543   0.351  19.057   6.577 -0.1627  0.1094  0.0659
 1034loPI   C4B16544   0.389  19.370   6.910 -0.0091  0.0050 -0.1126
 1035loPI    C116545  16.432  17.732   4.725 -0.2420  0.1445  0.0643
 1035loPI    C216546  16.312  17.361   4.635  0.0128  0.1227 -0.2022
 1035loPI    C316547  16.063  17.670   4.583 -0.2135 -0.0116  0.0562
 1035loPI   PO416548  16.548  17.686   4.970 -0.1324  0.0178  0.1140
 1035loPI   GL116549  16.626  17.505   5.405 -0.0021  0.1200  0.0643
 1035loPI   GL216550  16.774  17.237   5.416  0.1615 -0.0830  0.0642
 1035loPI   C1A16551  16.293  17.310   5.686 -0.2212 -0.1107  0.1999
 1035loPI   C2A16552  16.089  17.343   6.032 -0.0174  0.0719  0.0894
 1035loPI   C3A16553  16.034  17.177   6.448  0.0773  0.5260 -0.0846
 1035loPI   C4A16554  15.822  16.961   6.726  0.1423 -0.0709  0.0563
 1035loPI   C5A16555  15.967  16.691   7.112  0.1471 -0.0727 -0.0287
 1035loPI   C6A16556  15.815  16.620   7.538 -0.1923 -0.0685  0.1066
 1035loPI   C1B16557  16.928  17.332   5.849 -0.3470  0.0503  0.1956
 1035loPI   C2B16558  17.272  17.414   6.075 -0.1443  0.0588 -0.0057
 1035loPI   C3B16559  17.411  17.313   6.380  0.1933  0.0109  0.1159
 1035loPI   C4B16560  17.304  16.973   6.791 -0.0181 -0.0085 -0.0531
 1036loPI    C116561  14.073   4.504   5.003  0.1625  0.1847 -0.0509
 1036loPI    C216562  14.400   4.608   4.798  0.1639  0.0654 -0.1098
 1036loPI    C316563  14.082   4.463   4.605  0.1193  0.0703 -0.0403
 1036loPI   PO416564  14.208   4.354   5.239  0.1778 -0.1792 -0.1385
 1036loPI   GL116565  14.399   4.153   5.557 -0.0746  0.2457 -0.2216
 1036loPI   GL216566  14.734   4.252   5.578  0.0511 -0.0494 -0.3200
 1036loPI   C1A16567  14.471   4.058   6.016 -0.1831 -0.2020 -0.0998
 1036loPI   C2A16568  14.318   3.992   6.387 -0.0382 -0.0459 -0.3065
 1036loPI   C3A16569  14.247   3.737   6.789  0.0109 -0.2335  0.0702
 1036loPI   C4A16570  14.321   3.543   7.227 -0.0533 -0.1750  0.5881
 1036loPI   C5A16571  14.021   3.526   7.478  0.0116 -0.2326 -0.3412
 1036loPI   C6A16572  13.869   3.936   7.665  0.2470 -0.3871  0.0110
 1036loPI   C1B16573  14.783   4.459   5.983  0.2311 -0.2182  0.0867
 1036loPI   C2B16574  14.721   4.305   6.367 -0.3023 -0.0532 -0.4876
 1036loPI   C3B16575  14.582   4.144   6.758  0.0646  0.3551 -0.3060
 1036loPI   C4B16576  14.343   4.002   7.206  0.2666  0.0012 -0.2460
 1037loPI    C116577  13.029   0.493   5.207  0.0234  0.1291  0.0743
 1037loPI    C216578  12.933   0.768   5.481 -0.0966  0.0211  0.1420
 1037loPI    C316579  12.684   0.693   5.177 -0.0313  0.0371  0.0844
 1037loPI   PO416580  13.149   0.326   5.360 -0.0467  0.0735 -0.4659
 1037loPI   GL116581  13.061   0.297   5.712  0.1118 -0.0529 -0.2521
 1037loPI   GL216582  13.096   0.452   5.955 -0.2097 -0.0862  0.0055
 1037loPI   C1A16583  12.755   0.050   5.942  0.2334  0.4584 -0.2391
 1037loPI   C2A16584  12.649   0.023   6.373 -0.1336  0.2701 -0.1310
 1037loPI   C3A16585  12.598  -0.303   6.659  0.2529  0.1498 -0.2489
 1037loPI   C4A16586  12.414  -0.672   6.964 -0.0719  0.0550 -0.0548
 1037loPI   C5A16587  12.327  -0.837   7.468 -0.0141 -0.0225 -0.0097
 1037loPI   C6A16588  12.503  -0.699   7.833  0.1529  0.1877 -0.0215
 1037loPI   C1B16589  13.105   0.213   6.362 -0.1795  0.0980  0.1700
 1037loPI   C2B16590  13.485   0.307   6.728 -0.0853 -0.1351 -0.0431
 1037loPI   C3B16591  13.683   0.169   7.109  0.0571  0.3212 -0.1362
 1037loPI   C4B16592  14.023  -0.037   7.345  0.0571  0.3828 -0.0268
 1038loPI    C116593  12.783   4.069   4.925  0.0795  0.1077 -0.1251
 1038loPI    C216594  12.490   4.225   5.148  0.1183  0.1330 -0.0916
 1038loPI    C316595  12.443   4.191   4.752  0.0803  0.1610 -0.0896
 1038loPI   PO416596  12.982   4.215   5.030 -0.3040  0.2808  0.0266
 1038loPI   GL116597  12.820   4.423   5.404 -0.0004  0.1392 -0.0549
 1038loPI   GL216598  12.866   4.698   5.639 -0.2927 -0.2024 -0.2128
 1038loPI   C1A16599  12.555   4.243   5.743  0.2130  0.0586 -0.3558
 1038loPI   C2A16600  12.271   4.362   6.058  0.1602 -0.1657  0.1311
 1038loPI   C3A16601  12.187   4.306   6.451 -0.0179 -0.1949 -0.1263
 1038loPI   C4A16602  12.397   4.232   6.866  0.3883 -0.1494  0.2341
 1038loPI   C5A16603  12.547   4.474   7.138 -0.0215 -0.2289  0.1032
 1038loPI   C6A16604  12.823   4.529   7.473  0.1739 -0.2273 -0.0682
 1038loPI   C1B16605  12.557   4.787   5.903 -0.1075  0.2200 -0.3246
 1038loPI   C2B16606  12.325   4.811   6.283 -0.0875  0.1267  0.1228
 1038loPI   C3B16607  12.244   4.753   6.727 -0.0262 -0.0493  0.2704
 1038loPI   C4B16608  12.071   4.777   7.223 -0.3638 -0.0558  0.0026
 1039loPI    C116609   4.196   1.510   4.850 -0.2359 -0.1550 -0.0766
 1039loPI    C216610   4.578   1.480   4.733 -0.1588  0.2832  0.0476
 1039loPI    C316611   4.316   1.194   4.636  0.1864  0.0071 -0.0883
 1039loPI   PO416612   4.244   1.515   5.119 -0.1531 -0.0444  0.2163
 1039loPI   GL116613   4.584   1.477   5.495 -0.0587  0.1234 -0.2286
 1039loPI   GL216614   4.849   1.733   5.508 -0.0479 -0.1814  0.1584
 1039loPI   C1A16615   4.463   1.324   5.973 -0.0560 -0.1135  0.0329
 1039loPI   C2A16616   4.229   1.287   6.424  0.2910  0.1029  0.3349
 1039loPI   C3A16617   4.157   1.277   6.791 -0.0016 -0.0196 -0.0792
 1039loPI   C4A16618   3.932   1.449   7.134  0.3087  0.0821 -0.1118
 1039loPI   C5A16619   4.033   1.649   7.542 -0.0794  0.2030  0.2253
 1039loPI   C6A16620   4.347   1.873   7.685  0.0079 -0.0855  0.2720
 1039loPI   C1B16621   4.954   1.600   5.920 -0.0045  0.2776  0.1926
 1039loPI   C2B16622   4.801   1.471   6.323  0.0227 -0.0300 -0.1082
 1039loPI   C3B16623   4.764   1.464   6.691 -0.0895  0.0546  0.2011
 1039loPI   C4B16624   4.676   1.757   7.116 -0.0851 -0.0357 -0.1898
 1040loPI    C116625   4.073   4.898   4.788  0.0355 -0.0482  0.1145
 1040loPI    C216626   4.265   5.029   4.462 -0.0784  0.0511  0.0866
 1040loPI    C316627   4.087   4.671   4.459 -0.0627  0.0437  0.0460
 1040loPI   PO416628   4.250   4.995   4.930  0.1130  0.0477 -0.2498
 1040loPI   GL116629   4.579   5.021   5.327 -0.1561 -0.3245 -0.1223
 1040loPI   GL216630   4.269   4.930   5.406 -0.1366  0.0657 -0.1277
 1040loPI   C1A16631   4.668   4.894   5.741 -0.0898  0.1875  0.2637
 1040loPI   C2A16632   4.809   4.689   6.085  0.1763 -0.2199 -0.0694
 1040loPI   C3A16633   4.511   4.651   6.409 -0.0664  0.0457  0.3519
 1040loPI   C4A16634   4.370   4.480   6.842 -0.2150 -0.0600 -0.0771
 1040loPI   C5A16635   4.701   4.581   6.996  0.1041  0.0633  0.2542
 1040loPI   C6A16636   5.055   4.635   7.335  0.2871  0.2996  0.1795
 1040loPI   C1B16637   4.180   4.684   5.713  0.0351  0.1212 -0.0295
 1040loPI   C2B16638   4.305   4.509   6.004  0.1524  0.2128 -0.0213
 1040loPI   C3B16639   4.398   4.181   6.357  0.1145 -0.3086  0.2173
 1040loPI   C4B16640   4.722   4.117   6.711 -0.3243  0.0800 -0.0050
 1041loPI    C116641   3.235  15.598   4.493 -0.0072  0.0911  0.1146
 1041loPI    C216642   3.064  15.386   4.201  0.2177  0.0536  0.0084
 1041loPI    C316643   3.288  15.705   4.112  0.1134  0.1685  0.1524
 1041loPI   PO416644   3.085  15.538   4.666  0.1740  0.0921  0.1244
 1041loPI   GL116645   3.012  15.411   5.017 -0.2525  0.3700  0.0687
 1041loPI   GL216646   2.736  15.424   5.056 -0.1283  0.1969 -0.0255
 1041loPI   C1A16647   3.105  15.565   5.452 -0.1226 -0.2778 -0.0678
 1041loPI   C2A16648   3.317  15.538   5.862  0.1147  0.0571 -0.1725
 1041loPI   C3A16649   3.644  15.452   6.188 -0.0104 -0.0956  0.4883
 1041loPI   C4A16650   3.681  15.556   6.670 -0.0582  0.4281  0.1206
 1041loPI   C5A16651   3.670  15.506   7.126 -0.1399  0.3054 -0.0243
 1041loPI   C6A16652   3.802  15.560   7.536  0.0188 -0.0668  0.1951
 1041loPI   C1B16653   2.513  15.297   5.480  0.0531 -0.3246 -0.0391
 1041loPI   C2B16654   2.307  15.248   5.839  0.0169 -0.1463 -0.0977
 1041loPI   C3B16655   2.180  15.226   6.211 -0.1396 -0.0671  0.1431
 1041loPI   C4B16656   2.131  15.031   6.587 -0.0412 -0.2026 -0.0737
 1042loPI    C116657   7.942  18.870   4.557 -0.1050  0.0099  0.1954
 1042loPI    C216658   7.794  18.857   4.186 -0.1173 -0.0045  0.2007
 1042loPI    C316659   7.925  18.522   4.360  0.3619  0.0794  0.0187
 1042loPI   PO416660   8.048  19.003   4.701  0.1814 -0.3244  0.1243
 1042loPI   GL116661   7.927  18.962   5.201  0.0235  0.1604  0.0451
 1042loPI   GL216662   8.126  18.841   5.172 -0.0013 -0.1310  0.1031
 1042loPI   C1A16663   7.999  19.133   5.630  0.2541  0.2036 -0.0276
 1042loPI   C2A16664   8.052  19.137   6.039  0.2988 -0.1102 -0.1438
 1042loPI   C3A16665   7.869  19.410   6.456  0.2471 -0.2125 -0.0514
 1042loPI   C4A16666   7.910  19.767   6.652  0.5146  0.0895 -0.1739
 1042loPI   C5A16667   8.214  19.943   6.880  0.0330 -0.0016  0.2087
 1042loPI   C6A16668   8.101  20.299   7.022  0.0914 -0.1206  0.3009
 1042loPI   C1B16669   8.316  18.768   5.510 -0.1409 -0.0530  0.1509
 1042loPI   C2B16670   8.393  18.703   6.018 -0.1671  0.1083  0.0402
 1042loPI   C3B16671   8.534  18.634   6.369  0.2159  0.1167 -0.0877
 1042loPI   C4B16672   8.572  18.633   6.747  0.2090  0.1407  0.2815
 1043loPI    C116673  18.728   0.192   4.848  0.1193 -0.1809  0.2404
 1043loPI    C216674  18.748   0.552   5.020 -0.3077  0.0243 -0.1185
 1043loPI    C316675  18.928   0.489   4.669 -0.1920 -0.1304 -0.0326
 1043loPI   PO416676  18.711   0.066   5.083 -0.1690 -0.0210 -0.1823
 1043loPI   GL116677  18.852   0.111   5.353 -0.2244 -0.2886 -0.1509
 1043loPI   GL216678  19.101   0.241   5.425 -0.1104 -0.1773  0.3041
 1043loPI   C1A16679  18.728   0.202   5.743 -0.2827 -0.0782 -0.1707
 1043loPI   C2A16680  18.594   0.289   6.207  0.2117  0.1548  0.0664
 1043loPI   C3A16681  18.568   0.354   6.710 -0.4169  0.2723 -0.3732
 1043loPI   C4A16682  18.890   0.395   7.035 -0.1835  0.2169  0.1121
 1043loPI   C5A16683  18.966   0.420   7.493  0.1959 -0.1292  0.0711
 1043loPI   C6A16684  19.105   0.639   7.785 -0.1096 -0.0558 -0.1301
 1043loPI   C1B16685  19.370   0.392   5.707 -0.0979 -0.1969  0.4370
 1043loPI   C2B16686  19.679   0.269   5.990  0.3029 -0.0811  0.2675
 1043loPI   C3B16687  20.111   0.223   6.135  0.0832 -0.1619 -0.1175
 1043loPI   C4B16688  20.498   0.095   6.267  0.1576 -0.0378  0.1156
 1044loPI    C116689   9.813  19.080   4.404  0.1226  0.2157 -0.3378
 1044loPI    C216690   9.558  18.783   4.319  0.1498  0.0802  0.0374
 1044loPI    C316691   9.454  19.162   4.246 -0.0327  0.0051 -0.1025
 1044loPI   PO416692   9.850  19.023   4.648  0.0924  0.0093 -0.0281
 1044loPI   GL116693   9.883  19.050   5.079  0.2149 -0.0338 -0.0416
 1044loPI   GL216694   9.652  18.848   5.234  0.0176  0.1087 -0.2119
 1044loPI   C1A16695  10.150  18.774   5.460  0.1535 -0.2502  0.2190
 1044loPI   C2A16696  10.073  19.148   5.767  0.0045  0.3785 -0.0022
 1044loPI   C3A16697   9.983  19.380   6.217  0.0481 -0.2523  0.0527
 1044loPI   C4A16698  10.019  19.430   6.633  0.0493  0.2619 -0.0385
 1044loPI   C5A16699   9.660  19.362   6.987 -0.0503  0.0084  0.2569
 1044loPI   C6A16700   9.518  19.085   7.323 -0.1926 -0.2499  0.2832
 1044loPI   C1B16701   9.589  18.887   5.666  0.1873 -0.0345  0.1477
 1044loPI   C2B16702   9.383  18.718   6.042  0.0342 -0.0387  0.2873
 1044loPI   C3B16703   9.390  18.585   6.452  0.0122 -0.3608  0.3528
 1044loPI   C4B16704   9.475  18.249   6.771  0.1726  0.2078  0.2881
 1045loPI    C116705  11.758   4.600   4.810  0.0653  0.0550  0.0130
 1045loPI    C216706  12.037   4.484   4.549  0.0195  0.2273 -0.1143
 1045loPI    C316707  11.659   4.361   4.505  0.0109  0.2605 -0.1330
 1045loPI   PO416708  11.748   4.797   4.857  0.1589  0.0590  0.0309
 1045loPI   GL116709  11.824   4.929   5.308  0.1795  0.0529  0.0157
 1045loPI   GL216710  11.491   5.023   5.333  0.1535 -0.1495 -0.0427
 1045loPI   C1A16711  11.818   5.143   5.743 -0.0951 -0.2663  0.1128
 1045loPI   C2A16712  11.870   5.159   6.145 -0.0913  0.4204 -0.0736
 1045loPI   C3A16713  11.833   5.135   6.599 -0.0016 -0.0823 -0.0018
 1045loPI   C4A16714  11.652   5.264   6.893  0.1520  0.0369 -0.0734
 1045loPI   C5A16715  11.656   5.457   7.277 -0.2122  0.0738  0.3516
 1045loPI   C6A16716  11.320   5.732   7.343 -0.0776  0.0170  0.0233
 1045loPI   C1B16717  11.145   5.131   5.640 -0.3395 -0.4017 -0.2268
 1045loPI   C2B16718  10.887   5.157   5.957  0.1778  0.1803 -0.1563
 1045loPI   C3B16719  10.873   4.970   6.386  0.5017  0.1827  0.0740
 1045loPI   C4B16720  10.993   5.021   6.802 -0.1355 -0.0510 -0.2612
 1046loPI    C116721   5.013   2.013   4.740  0.0432 -0.0643  0.2457
 1046loPI    C216722   4.648   2.016   4.577  0.2619 -0.0023 -0.2626
 1046loPI    C316723   4.963   2.143   4.365  0.5534  0.1441  0.2407
 1046loPI   PO416724   5.114   1.825   5.010 -0.0959  0.2307 -0.2048
 1046loPI   GL116725   5.306   1.688   5.377  0.0809  0.1764  0.3929
 1046loPI   GL216726   5.324   2.003   5.552 -0.0706 -0.2549  0.2868
 1046loPI   C1A16727   5.080   1.284   5.554 -0.2785  0.0314 -0.1502
 1046loPI   C2A16728   4.846   1.065   5.809  0.0231  0.3422  0.0659
 1046loPI   C3A16729   4.713   0.947   6.299  0.3456  0.2797  0.1782
 1046loPI   C4A16730   4.593   0.973   6.760 -0.1085 -0.1066  0.3017
 1046loPI   C5A16731   4.917   0.779   7.117 -0.0054  0.1466 -0.1924
 1046loPI   C6A16732   5.130   0.321   6.956  0.1282  0.0634 -0.1405
 1046loPI   C1B16733   5.377   1.879   6.043 -0.0481 -0.2046 -0.0869
 1046loPI   C2B16734   5.243   1.817   6.436 -0.3358  0.1519 -0.1773
 1046loPI   C3B16735   5.129   1.841   6.842  0.0148 -0.3517  0.0913
 1046loPI   C4B16736   5.147   2.244   7.125  0.1284 -0.2197  0.3232
 1047loPI    C116737  12.352   5.343   5.195  0.0115  0.1704 -0.1103
 1047loPI    C216738  12.672   5.110   5.138 -0.1467 -0.1396  0.2276
 1047loPI    C316739  12.433   5.201   4.830  0.3012  0.1593 -0.0442
 1047loPI   PO416740  12.450   5.606   5.293  0.0347  0.1442  0.0631
 1047loPI   GL116741  12.588   5.972   5.606  0.1435  0.0070 -0.1556
 1047loPI   GL216742  12.756   6.134   5.392  0.0010  0.1312 -0.0504
 1047loPI   C1A16743  12.542   5.911   6.046  0.1306  0.0474  0.0935
 1047loPI   C2A16744  12.632   5.682   6.439  0.0518  0.4115 -0.2880
 1047loPI   C3A16745  12.901   5.784   6.663  0.0506 -0.2467  0.1628
 1047loPI   C4A16746  13.006   5.933   6.979  0.2833 -0.0351 -0.1429
 1047loPI   C5A16747  13.237   6.127   7.221  0.0957  0.0038  0.2715
 1047loPI   C6A16748  13.255   6.371   7.498 -0.1021 -0.0577 -0.0714
 1047loPI   C1B16749  13.032   6.112   5.714  0.1458 -0.4538  0.3986
 1047loPI   C2B16750  12.976   6.101   6.223  0.2482  0.1329  0.2385
 1047loPI   C3B16751  12.962   6.328   6.573  0.1316 -0.2149 -0.1166
 1047loPI   C4B16752  12.792   6.451   6.924  0.0743  0.0431 -0.3040
 1048loPI    C116753  13.531   8.798   4.715  0.0731  0.1533 -0.2429
 1048loPI    C216754  13.762   8.769   4.389  0.1087 -0.0019 -0.2043
 1048loPI    C316755  13.422   8.559   4.413  0.2253 -0.1762 -0.0427
 1048loPI   PO416756  13.559   9.030   4.854 -0.1028  0.1971 -0.0303
 1048loPI   GL116757  13.941   9.232   5.183  0.1625 -0.1553 -0.0282
 1048loPI   GL216758  14.199   9.391   4.963 -0.1706  0.1778  0.0731
 1048loPI   C1A16759  14.023   9.021   5.631 -0.2994 -0.1285 -0.0361
 1048loPI   C2A16760  14.019   8.668   5.943 -0.0049  0.1442 -0.0227
 1048loPI   C3A16761  13.968   8.755   6.442  0.2936 -0.3588  0.2561
 1048loPI   C4A16762  13.865   8.833   6.795 -0.1293  0.1702 -0.0911
 1048loPI   C5A16763  13.521   9.100   6.928  0.0148 -0.1176  0.0482
 1048loPI   C6A16764  13.477   9.372   7.214  0.0891 -0.2274  0.3416
 1048loPI   C1B16765  14.329   9.543   5.393  0.1834  0.1337  0.1670
 1048loPI   C2B16766  14.299   9.685   5.813 -0.2891 -0.1359 -0.0998
 1048loPI   C3B16767  14.309   9.568   6.214  0.1522  0.0100  0.0166
 1048loPI   C4B16768  14.333   9.499   6.720 -0.1576  0.2396  0.2231
 1049loPI    C116769  16.641   4.871   4.828 -0.3117  0.3310 -0.2684
 1049loPI    C216770  16.947   4.634   4.727 -0.1012  0.3483  0.2922
 1049loPI    C316771  16.767   4.858   4.449 -0.0043 -0.1146 -0.1592
 1049loPI   PO416772  16.672   4.956   4.985 -0.1388  0.0400 -0.2550
 1049loPI   GL116773  16.632   5.261   5.250 -0.0875 -0.0933  0.1450
 1049loPI   GL216774  16.813   5.432   5.442 -0.1688 -0.0352 -0.0857
 1049loPI   C1A16775  16.561   5.130   5.662 -0.4085  0.0727 -0.0254
 1049loPI   C2A16776  16.731   5.297   6.016  0.2493  0.1502 -0.1445
 1049loPI   C3A16777  16.576   5.487   6.394 -0.0635  0.1463 -0.0272
 1049loPI   C4A16778  16.639   5.624   6.734 -0.2688 -0.2000 -0.3611
 1049loPI   C5A16779  16.938   5.588   6.974 -0.2520  0.0632  0.0764
 1049loPI   C6A16780  17.490   5.488   6.917  0.2674  0.0819  0.0455
 1049loPI   C1B16781  17.072   5.564   5.771 -0.3070 -0.2035 -0.0260
 1049loPI   C2B16782  17.481   5.616   5.889  0.1574  0.1447 -0.3638
 1049loPI   C3B16783  17.562   5.146   6.012 -0.0816 -0.1033 -0.5200
 1049loPI   C4B16784  17.552   4.718   5.831 -0.1441 -0.0022 -0.1413
 1050loPI    C116785   4.270  13.258   4.156  0.2150  0.0802  0.0382
 1050loPI    C216786   4.074  13.090   3.850 -0.0270  0.1503  0.1525
 1050loPI    C316787   4.327  13.393   3.783  0.0143  0.0847  0.0082
 1050loPI   PO416788   4.181  13.188   4.414 -0.3034  0.1502 -0.0270
 1050loPI   GL116789   4.375  13.160   4.889  0.0885  0.0745  0.1315
 1050loPI   GL216790   4.676  13.145   4.854  0.0999  0.0323 -0.5499
 1050loPI   C1A16791   4.228  13.260   5.223  0.1215  0.1847  0.0438
 1050loPI   C2A16792   4.045  13.158   5.679  0.1532  0.1016 -0.0748
 1050loPI   C3A16793   4.143  13.273   6.150  0.1888  0.2219  0.0816
 1050loPI   C4A16794   4.165  13.234   6.602 -0.1373  0.0895 -0.0815
 1050loPI   C5A16795   4.352  13.470   6.951  0.1034 -0.0390 -0.0603
 1050loPI   C6A16796   4.758  13.597   7.148  0.3629 -0.0680  0.1233
 1050loPI   C1B16797   4.645  12.849   5.230  0.4139  0.1083 -0.2976
 1050loPI   C2B16798   4.494  13.017   5.635  0.0261 -0.0098 -0.1287
 1050loPI   C3B16799   4.636  13.181   5.938  0.1091 -0.0099  0.2602
 1050loPI   C4B16800   4.644  13.166   6.308  0.1320 -0.1945 -0.2349
 1051loPI    C116801  13.845  12.639   4.721 -0.1081 -0.1306 -0.1256
 1051loPI    C216802  13.566  12.718   4.445 -0.0568  0.2933 -0.0640
 1051loPI    C316803  13.942  12.844   4.392  0.1313 -0.2720 -0.1453
 1051loPI   PO416804  13.705  12.380   4.811 -0.2399 -0.1172  0.0430
 1051loPI   GL116805  13.785  12.149   5.178 -0.1343 -0.1411  0.3763
 1051loPI   GL216806  13.412  12.289   5.223  0.1044 -0.2449 -0.2331
 1051loPI   C1A16807  13.929  11.773   5.495  0.1275 -0.1048  0.2561
 1051loPI   C2A16808  13.922  11.789   5.961  0.0301  0.0117  0.2777
 1051loPI   C3A16809  13.924  11.861   6.386  0.1725 -0.2321 -0.1275
 1051loPI   C4A16810  13.765  12.025   6.824  0.1137 -0.2572 -0.1865
 1051loPI   C5A16811  13.630  12.152   7.248 -0.2130 -0.0317  0.0409
 1051loPI   C6A16812  13.698  12.546   7.543 -0.0986 -0.1145  0.2076
 1051loPI   C1B16813  13.391  12.263   5.679 -0.3074 -0.0636 -0.1759
 1051loPI   C2B16814  13.557  12.250   6.078 -0.0480  0.2323 -0.0504
 1051loPI   C3B16815  13.921  12.340   6.420  0.0229 -0.1689  0.1157
 1051loPI   C4B16816  14.028  12.749   6.681  0.0472  0.2126  0.0113
 1052loPI    C116817  10.223  14.486   4.769  0.0201 -0.2412  0.1359
 1052loPI    C216818   9.955  14.207   4.668 -0.1454 -0.0621  0.0740
 1052loPI    C316819  10.184  14.375   4.386 -0.1680 -0.0113  0.0858
 1052loPI   PO416820  10.307  14.316   4.982 -0.3064  0.0921  0.1168
 1052loPI   GL116821  10.160  14.060   5.272 -0.0444 -0.0811 -0.0607
 1052loPI   GL216822  10.109  13.899   5.514 -0.2550  0.0352  0.0898
 1052loPI   C1A16823  10.149  14.270   5.830  0.0074 -0.2800 -0.0062
 1052loPI   C2A16824  10.066  14.349   6.227 -0.1630 -0.1495  0.1525
 1052loPI   C3A16825  10.072  14.115   6.592  0.3287 -0.0028 -0.0667
 1052loPI   C4A16826   9.714  14.084   6.951 -0.1469  0.0591  0.2263
 1052loPI   C5A16827   9.238  13.921   6.953  0.1642 -0.1406  0.1100
 1052loPI   C6A16828   8.906  13.772   6.866 -0.1670  0.1455 -0.0231
 1052loPI   C1B16829   9.623  13.733   5.547  0.0565  0.0437 -0.1699
 1052loPI   C2B16830   9.354  13.330   5.600 -0.1197  0.0294 -0.1180
 1052loPI   C3B16831   9.062  12.980   5.823 -0.0841 -0.1662  0.2537
 1052loPI   C4B16832   8.895  12.623   6.047 -0.0786 -0.1889 -0.1289
 1053loPI    C116833  15.991   6.800   4.414 -0.0635  0.0667 -0.0129
 1053loPI    C216834  15.686   6.552   4.486 -0.1736  0.2322  0.0998
 1053loPI    C316835  15.770   6.662   4.111 -0.0534 -0.0616  0.0374
 1053loPI   PO416836  16.095   6.899   4.605  0.1067 -0.2929  0.2019
 1053loPI   GL116837  15.960   7.073   5.021  0.1570 -0.0656  0.1443
 1053loPI   GL216838  15.721   7.233   5.093 -0.3074 -0.4934  0.2870
 1053loPI   C1A16839  16.200   7.057   5.510  0.0195 -0.1757  0.0438
 1053loPI   C2A16840  16.003   7.062   5.993 -0.1100 -0.2302  0.0172
 1053loPI   C3A16841  16.158   7.014   6.509 -0.2361 -0.0125  0.1981
 1053loPI   C4A16842  16.115   7.014   6.881  0.1089  0.1111  0.1775
 1053loPI   C5A16843  16.432   7.078   7.155  0.0945 -0.1019 -0.1446
 1053loPI   C6A16844  16.890   7.197   7.310  0.1657 -0.0170  0.0210
 1053loPI   C1B16845  15.695   7.234   5.500 -0.1586 -0.1646 -0.0535
 1053loPI   C2B16846  15.535   7.309   5.950 -0.0431  0.3044 -0.1652
 1053loPI   C3B16847  15.702   7.243   6.404 -0.0398 -0.1866  0.0322
 1053loPI   C4B16848  15.640   7.197   6.844  0.1859 -0.0171 -0.0138
 1054loPI    C116849   1.456  12.742   3.907 -0.1139 -0.2036  0.0116
 1054loPI    C216850   1.306  13.012   3.652  0.1497  0.0722  0.1417
 1054loPI    C316851   1.482  12.680   3.512  0.0605  0.0945 -0.0267
 1054loPI   PO416852   1.245  12.599   4.061 -0.2049  0.1991 -0.1078
 1054loPI   GL116853   1.123  12.323   4.414 -0.0724  0.1455  0.2076
 1054loPI   GL216854   1.093  12.562   4.554 -0.1398  0.2233 -0.1132
 1054loPI   C1A16855   1.415  12.230   4.767 -0.1357  0.1871  0.1356
 1054loPI   C2A16856   1.600  12.136   5.138 -0.1093 -0.1003 -0.0370
 1054loPI   C3A16857   1.851  12.424   5.553  0.3024 -0.1345  0.0668
 1054loPI   C4A16858   2.030  12.252   5.997 -0.0834 -0.1603  0.0829
 1054loPI   C5A16859   1.998  12.392   6.356  0.1539 -0.4029  0.1324
 1054loPI   C6A16860   1.829  12.603   6.721 -0.1005 -0.2294 -0.0948
 1054loPI   C1B16861   1.154  12.733   4.997 -0.0683 -0.1304 -0.0561
 1054loPI   C2B16862   1.237  13.059   5.260  0.2723 -0.0335 -0.0111
 1054loPI   C3B16863   1.134  13.547   5.275  0.0657  0.0122 -0.0542
 1054loPI   C4B16864   1.457  13.931   5.189  0.2339 -0.1493 -0.0673
 1055loPI    C116865  18.420   8.163   4.411  0.2386 -0.0925 -0.1672
 1055loPI    C216866  18.322   7.920   4.109  0.1581 -0.0820 -0.1501
 1055loPI    C316867  18.370   8.311   4.043 -0.2827 -0.0099 -0.0714
 1055loPI   PO416868  18.647   8.127   4.498  0.0347 -0.0758 -0.1098
 1055loPI   GL116869  18.708   8.094   4.964  0.0421  0.3424 -0.0633
 1055loPI   GL216870  18.736   7.713   4.819 -0.1433  0.1095  0.0116
 1055loPI   C1A16871  18.663   8.031   5.387 -0.3153  0.1512 -0.1889
 1055loPI   C2A16872  18.645   7.987   5.738  0.1755  0.1410 -0.0982
 1055loPI   C3A16873  18.619   8.056   6.213  0.1143  0.1747 -0.1437
 1055loPI   C4A16874  18.640   8.031   6.642  0.0481  0.1746  0.0226
 1055loPI   C5A16875  18.772   8.227   7.032 -0.3287  0.2365 -0.1156
 1055loPI   C6A16876  19.165   8.254   7.309 -0.2680 -0.2313  0.0108
 1055loPI   C1B16877  18.621   7.523   5.201 -0.2276 -0.0521 -0.1075
 1055loPI   C2B16878  18.740   7.527   5.686  0.3069 -0.1314  0.2403
 1055loPI   C3B16879  18.826   7.512   6.112 -0.2082 -0.1043  0.2810
 1055loPI   C4B16880  18.800   7.399   6.597 -0.1322  0.3178 -0.1575
 1056loPI    C116881   2.265   3.961   4.715 -0.0361 -0.3327  0.1486
 1056loPI    C216882   1.985   4.117   4.475  0.0772 -0.0858  0.1735
 1056loPI    C316883   1.952   3.739   4.603 -0.2353 -0.0641  0.1626
 1056loPI   PO416884   2.212   4.185   4.971 -0.1628  0.3964 -0.1160
 1056loPI   GL116885   2.437   4.265   5.377  0.4755  0.0484  0.0681
 1056loPI   GL216886   2.329   4.497   5.616  0.2639  0.2187 -0.1423
 1056loPI   C1A16887   2.658   4.079   5.757  0.1278  0.1581 -0.1945
 1056loPI   C2A16888   2.904   4.074   6.106 -0.1708 -0.1831 -0.0705
 1056loPI   C3A16889   3.079   3.945   6.496 -0.0084  0.1323 -0.3651
 1056loPI   C4A16890   2.775   3.909   6.893  0.3108  0.1906 -0.1093
 1056loPI   C5A16891   2.630   3.586   7.070  0.0254 -0.5132  0.0989
 1056loPI   C6A16892   2.373   3.221   7.053  0.3115  0.0252  0.0005
 1056loPI   C1B16893   2.342   4.691   5.959 -0.0123  0.1488 -0.1515
 1056loPI   C2B16894   2.320   4.819   6.278  0.1714  0.3191 -0.0451
 1056loPI   C3B16895   2.546   4.796   6.641  0.1235  0.0553 -0.1411
 1056loPI   C4B16896   2.657   4.951   6.995  0.1238 -0.1208 -0.5383
 1057loPI    C116897  13.950  18.495   4.960 -0.0983  0.0130 -0.1071
 1057loPI    C216898  14.079  18.604   4.597  0.0564  0.1312 -0.0180
 1057loPI    C316899  13.846  18.282   4.638  0.2458 -0.0315 -0.1935
 1057loPI   PO416900  13.995  18.731   5.069  0.0632 -0.0599  0.1699
 1057loPI   GL116901  13.852  18.865   5.451 -0.2089  0.2510 -0.0745
 1057loPI   GL216902  14.224  18.835   5.502  0.1064  0.0459 -0.1329
 1057loPI   C1A16903  13.702  18.638   5.831  0.0645  0.0037  0.0345
 1057loPI   C2A16904  13.851  18.367   6.181 -0.3583 -0.0188  0.0939
 1057loPI   C3A16905  14.095  18.488   6.607  0.3075  0.0436  0.3704
 1057loPI   C4A16906  14.088  18.600   7.023 -0.0780 -0.0612  0.0991
 1057loPI   C5A16907  14.185  18.943   7.336 -0.2001 -0.2035 -0.3036
 1057loPI   C6A16908  14.231  19.000   7.720 -0.0111  0.0629  0.0727
 1057loPI   C1B16909  14.243  18.725   5.900 -0.1054 -0.1127 -0.0782
 1057loPI   C2B16910  14.403  18.471   6.195 -0.2686 -0.0842  0.0443
 1057loPI   C3B16911  14.558  18.367   6.536  0.0953 -0.2286  0.2313
 1057loPI   C4B16912  14.354  18.134   6.874 -0.0939 -0.2637 -0.1546
 1058loPI    C116913   4.595  10.369   4.877 -0.0720 -0.1333  0.0851
 1058loPI    C216914   4.503  10.419   4.491 -0.0402  0.1149  0.1085
 1058loPI    C316915   4.217  10.446   4.770 -0.1010 -0.2678  0.0884
 1058loPI   PO416916   4.792  10.519   4.936 -0.1378 -0.0402 -0.0230
 1058loPI   GL116917   5.167  10.673   5.044  0.0218  0.0469 -0.2239
 1058loPI   GL216918   5.392  10.971   5.128 -0.2973  0.2451 -0.3639
 1058loPI   C1A16919   5.085  10.627   5.507  0.0508  0.1078  0.1768
 1058loPI   C2A16920   5.308  10.761   5.869 -0.1688 -0.0135 -0.1362
 1058loPI   C3A16921   5.437  10.668   6.260 -0.2520 -0.0116  0.3288
 1058loPI   C4A16922   5.649  10.525   6.611  0.1364 -0.1411 -0.1272
 1058loPI   C5A16923   5.808  10.568   6.978 -0.1419 -0.0330  0.4116
 1058loPI   C6A16924   6.218  10.589   7.203 -0.1139 -0.1902 -0.0329
 1058loPI   C1B16925   5.646  10.926   5.530  0.1286 -0.0666 -0.1519
 1058loPI   C2B16926   5.793  10.906   5.945 -0.0279 -0.6947  0.1190
 1058loPI   C3B16927   5.969  10.979   6.314  0.0378  0.0956 -0.2050
 1058loPI   C4B16928   6.124  10.745   6.672 -0.0659 -0.1525 -0.0729
 1059loPI    C116929  15.393   0.963   4.678  0.0752 -0.2410 -0.1113
 1059loPI    C216930  15.031   0.989   4.845  0.0425 -0.4088 -0.1547
 1059loPI    C316931  15.074   1.047   4.452  0.1385  0.1188 -0.0741
 1059loPI   PO416932  15.505   0.805   4.798  0.1969 -0.2535  0.0793
 1059loPI   GL116933  15.478   0.611   5.152 -0.0642 -0.1404  0.1762
 1059loPI   GL216934  15.196   0.566   5.104 -0.1154  0.0557  0.4179
 1059loPI   C1A16935  15.643   0.531   5.583  0.1648 -0.2300 -0.2326
 1059loPI   C2A16936  15.576   0.248   6.063 -0.0164 -0.1021 -0.0209
 1059loPI   C3A16937  15.359   0.079   6.346 -0.0712  0.4079 -0.0085
 1059loPI   C4A16938  14.953  -0.106   6.384  0.1232 -0.2420 -0.3289
 1059loPI   C5A16939  14.656  -0.279   6.031 -0.1056  0.1379 -0.1755
 1059loPI   C6A16940  14.379  -0.197   5.753  0.0661 -0.2053  0.2291
 1059loPI   C1B16941  15.184   0.845   5.487  0.0385 -0.0721 -0.1060
 1059loPI   C2B16942  15.307   0.922   5.806 -0.3339  0.0890 -0.2284
 1059loPI   C3B16943  15.372   1.079   6.209 -0.0601  0.2472  0.1622
 1059loPI   C4B16944  15.380   1.296   6.572 -0.0091  0.0554  0.0312
 1060loPI    C116945   0.011  13.437   4.314  0.2438  0.2017  0.2925
 1060loPI    C216946   0.299  13.632   4.117  0.0014  0.1669 -0.1074
 1060loPI    C316947  -0.073  13.623   3.971 -0.1867  0.1327  0.3547
 1060loPI   PO416948   0.034  13.498   4.497  0.1417 -0.0213 -0.4047
 1060loPI   GL116949  -0.167  13.662   4.950  0.1592  0.1728  0.0679
 1060loPI   GL216950   0.228  13.517   5.002 -0.2082  0.0251  0.0767
 1060loPI   C1A16951  -0.175  13.579   5.349 -0.0485 -0.1353 -0.0915
 1060loPI   C2A16952  -0.039  13.594   5.830  0.0857  0.0971 -0.3853
 1060loPI   C3A16953   0.131  13.408   6.257  0.0313 -0.2896 -0.1837
 1060loPI   C4A16954   0.207  13.293   6.676 -0.0519 -0.2208  0.0774
 1060loPI   C5A16955   0.244  13.204   7.080 -0.1336 -0.3482  0.1712
 1060loPI   C6A16956  -0.069  13.153   7.456  0.1816 -0.2134  0.0577
 1060loPI   C1B16957   0.299  13.505   5.495 -0.2217  0.5348 -0.2030
 1060loPI   C2B16958   0.436  13.413   5.831  0.0464  0.1018 -0.1013
 1060loPI   C3B16959   0.617  13.193   6.249 -0.0102 -0.2557 -0.0172
 1060loPI   C4B16960   0.873  13.270   6.743 -0.0211 -0.1589  0.5984
 1061loPI    C116961   8.336  -0.087   5.038  0.0582  0.0647  0.0656
 1061loPI    C216962   8.255   0.177   4.749  0.0258  0.2839  0.2714
 1061loPI    C316963   7.987   0.111   5.039 -0.0460 -0.1172  0.1191
 1061loPI   PO416964   8.620   0.060   5.058 -0.0692 -0.2543 -0.3812
 1061loPI   GL116965   8.761   0.253   5.422 -0.0467  0.0258  0.1555
 1061loPI   GL216966   8.733   0.562   5.239  0.0885 -0.1303 -0.1109
 1061loPI   C1A16967   8.633   0.157   5.937  0.0095  0.0430  0.0610
 1061loPI   C2A16968   8.618   0.232   6.296 -0.0291 -0.0436  0.0878
 1061loPI   C3A16969   8.385   0.116   6.666  0.0647 -0.2817  0.0623
 1061loPI   C4A16970   8.121   0.057   6.987 -0.2202  0.2026 -0.0439
 1061loPI   C5A16971   7.901   0.286   7.200 -0.2713 -0.0222  0.1996
 1061loPI   C6A16972   7.772   0.654   7.294  0.0118 -0.0702  0.0446
 1061loPI   C1B16973   8.762   0.711   5.682  0.0982  0.0140  0.0245
 1061loPI   C2B16974   8.492   0.598   5.980 -0.2290  0.2611  0.1074
 1061loPI   C3B16975   8.025   0.682   5.955 -0.0378  0.1939  0.2039
 1061loPI   C4B16976   7.753   0.560   5.548 -0.0167  0.0259 -0.1838
 1062loPI    C116977   6.486   9.316   4.623  0.0583  0.1459 -0.1682
 1062loPI    C216978   6.212   9.059   4.484  0.2077 -0.1311  0.0397
 1062loPI    C316979   6.354   9.348   4.247 -0.3113  0.0610 -0.0505
 1062loPI   PO416980   6.394   9.317   4.879  0.1938  0.0828  0.0890
 1062loPI   GL116981   6.425   9.534   5.221  0.2364 -0.2515 -0.2180
 1062loPI   GL216982   6.254   9.794   5.325 -0.2334  0.1882 -0.2283
 1062loPI   C1A16983   6.717   9.684   5.455  0.0772 -0.3316  0.0321
 1062loPI   C2A16984   6.829   9.777   5.890  0.1283 -0.1499  0.1829
 1062loPI   C3A16985   6.758   9.847   6.322 -0.0084  0.1117  0.1761
 1062loPI   C4A16986   6.454   9.920   6.712  0.1264  0.1994 -0.0992
 1062loPI   C5A16987   6.459  10.088   7.093  0.1594 -0.0321  0.0662
 1062loPI   C6A16988   6.412  10.173   7.490  0.1269 -0.1494  0.2387
 1062loPI   C1B16989   6.275   9.723   5.797 -0.1086 -0.1628  0.1114
 1062loPI   C2B16990   6.213   9.890   6.240 -0.0002  0.0061 -0.0987
 1062loPI   C3B16991   5.781   9.972   6.497 -0.1849 -0.1855  0.2325
 1062loPI   C4B16992   5.612  10.080   6.913 -0.2790  0.1000  0.0840
 1063loPI    C116993   6.181   5.060   4.370 -0.0871  0.1486 -0.0618
 1063loPI    C216994   5.817   5.027   4.209 -0.0864 -0.0173 -0.0320
 1063loPI    C316995   6.115   4.797   4.076 -0.0517 -0.0545  0.1092
 1063loPI   PO416996   6.122   5.034   4.644 -0.1352 -0.0975 -0.0259
 1063loPI   GL116997   6.271   5.118   5.030 -0.1267 -0.1040 -0.1002
 1063loPI   GL216998   6.340   4.865   5.189 -0.3198  0.1933  0.2857
 1063loPI   C1A16999   6.035   5.442   5.378 -0.2379 -0.2993 -0.1910
 1063loPI   C2A17000   5.666   5.524   5.514 -0.0053  0.0333  0.3855
 1063loPI   C3A17001   5.540   5.359   5.836 -0.0397  0.2031  0.1325
 1063loPI   C4A17002   5.372   5.332   6.215  0.1135  0.1472 -0.0901
 1063loPI   C5A17003   5.135   5.319   6.576  0.1865 -0.1124  0.3653
 1063loPI   C6A17004   4.845   5.619   6.680  0.2184 -0.0327 -0.1285
 1063loPI   C1B17005   6.566   4.553   5.571 -0.0262 -0.0993 -0.1514
 1063loPI   C2B17006   6.654   4.521   5.975 -0.0376  0.0815  0.1454
 1063loPI   C3B17007   6.900   4.616   6.335 -0.3266  0.0026 -0.2041
 1063loPI   C4B17008   7.332   4.706   6.483  0.0217  0.0453  0.1650
 1064loPI    C117009  18.487  15.907   4.613 -0.0963  0.0817  0.2390
 1064loPI    C217010  18.748  16.122   4.400 -0.0136 -0.1484  0.1054
 1064loPI    C317011  18.355  16.173   4.344  0.0033  0.0600  0.1684
 1064loPI   PO417012  18.570  15.936   4.816  0.0848 -0.0738  0.0543
 1064loPI   GL117013  18.464  15.726   5.226 -0.0615  0.0037  0.0167
 1064loPI   GL217014  18.805  15.674   5.248 -0.1958  0.0783  0.2024
 1064loPI   C1A17015  18.361  15.293   5.362 -0.5006 -0.0720 -0.1778
 1064loPI   C2A17016  18.138  14.980   5.735 -0.1972 -0.2225 -0.0692
 1064loPI   C3A17017  17.871  14.999   6.137  0.2735  0.2217 -0.0079
 1064loPI   C4A17018  17.919  15.180   6.457 -0.0859 -0.1380  0.1216
 1064loPI   C5A17019  17.742  15.458   6.660  0.2403 -0.0250 -0.0369
 1064loPI   C6A17020  17.572  15.540   7.030  0.0750 -0.0556 -0.0225
 1064loPI   C1B17021  18.879  15.672   5.653  0.0051  0.0701 -0.0002
 1064loPI   C2B17022  19.107  15.589   6.118  0.2734 -0.2815 -0.0177
 1064loPI   C3B17023  19.243  15.343   6.472  0.0761  0.1436  0.0433
 1064loPI   C4B17024  19.428  15.337   6.898 -0.0248 -0.3046  0.2112
 1065loPI    C117025  14.141   9.804   4.578  0.1287 -0.0767  0.4684
 1065loPI    C217026  14.194  10.151   4.769  0.1469  0.1281  0.0992
 1065loPI    C317027  14.366  10.090   4.413 -0.0429 -0.1726  0.0553
 1065loPI   PO417028  13.881   9.726   4.724  0.1855  0.1349 -0.0039
 1065loPI   GL117029  13.925   9.777   5.226 -0.0168 -0.0506  0.2747
 1065loPI   GL217030  13.599   9.551   5.108  0.1121 -0.2290 -0.2674
 1065loPI   C1A17031  13.751  10.056   5.657 -0.0345 -0.0026 -0.0724
 1065loPI   C2A17032  13.704  10.391   5.937  0.0459 -0.0371  0.2645
 1065loPI   C3A17033  13.792  10.720   6.417  0.1160  0.5772  0.4679
 1065loPI   C4A17034  14.152  10.980   6.579  0.0803 -0.1545  0.3135
 1065loPI   C5A17035  14.256  11.223   6.984 -0.1899 -0.1469 -0.0531
 1065loPI   C6A17036  14.094  11.385   7.367  0.0831  0.2045 -0.0054
 1065loPI   C1B17037  13.401   9.710   5.552 -0.2892 -0.3014 -0.0872
 1065loPI   C2B17038  13.391   9.750   5.943  0.0798  0.2595  0.0384
 1065loPI   C3B17039  13.466  10.023   6.238  0.1114  0.1150 -0.2465
 1065loPI   C4B17040  13.646  10.270   6.584 -0.2490  0.0008 -0.0302
 1066loPI    C117041   8.471   7.924   4.314  0.1041  0.0829 -0.0047
 1066loPI    C217042   8.153   7.754   4.485  0.0469  0.0623 -0.1304
 1066loPI    C317043   8.277   7.629   4.126  0.2693 -0.0111 -0.0297
 1066loPI   PO417044   8.602   8.004   4.645 -0.2075  0.1744 -0.0006
 1066loPI   GL117045   8.711   8.078   5.062  0.2748  0.1613 -0.0714
 1066loPI   GL217046   8.919   8.014   5.318 -0.0571  0.2967  0.1843
 1066loPI   C1A17047   8.355   8.268   5.274  0.0879  0.1091 -0.1894
 1066loPI   C2A17048   8.240   8.457   5.667 -0.1656  0.0834 -0.1607
 1066loPI   C3A17049   8.319   8.394   6.138 -0.0692 -0.4203  0.0091
 1066loPI   C4A17050   8.453   8.563   6.568 -0.0034 -0.1894 -0.0016
 1066loPI   C5A17051   8.340   8.768   7.036 -0.0656  0.2281 -0.0895
 1066loPI   C6A17052   8.055   8.662   7.317 -0.0162 -0.0685  0.3896
 1066loPI   C1B17053   8.619   8.016   5.658 -0.3077  0.0252 -0.0869
 1066loPI   C2B17054   8.244   7.965   5.876  0.1605 -0.0728 -0.0094
 1066loPI   C3B17055   7.849   8.127   5.692 -0.0363 -0.2942 -0.0842
 1066loPI   C4B17056   7.465   8.202   5.456  0.2850  0.1999  0.1704
 1067loPI    C117057  12.782   2.317   4.778  0.0060 -0.1469 -0.0113
 1067loPI    C217058  12.699   2.393   4.394 -0.2396  0.1149  0.0900
 1067loPI    C317059  12.403   2.306   4.649 -0.0589 -0.2496  0.1826
 1067loPI   PO417060  12.831   2.076   4.904 -0.0443  0.2232 -0.0661
 1067loPI   GL117061  12.823   1.765   5.204 -0.2818 -0.1805 -0.0985
 1067loPI   GL217062  12.746   1.665   5.420 -0.0436 -0.2286  0.0666
 1067loPI   C1A17063  13.003   2.093   5.510 -0.1964  0.2174 -0.0178
 1067loPI   C2A17064  13.163   2.042   5.996  0.0003 -0.1109  0.3658
 1067loPI   C3A17065  12.810   1.982   6.246 -0.0850 -0.5820 -0.2746
 1067loPI   C4A17066  12.681   2.119   6.725  0.2418 -0.2243 -0.2624
 1067loPI   C5A17067  12.370   2.164   7.130  0.0160 -0.0221 -0.0804
 1067loPI   C6A17068  12.396   2.289   7.525  0.0581  0.1411 -0.3799
 1067loPI   C1B17069  12.702   1.535   5.912  0.0995 -0.0805  0.3732
 1067loPI   C2B17070  12.680   1.347   6.297  0.0309 -0.2277 -0.2538
 1067loPI   C3B17071  12.512   0.946   6.555  0.3194  0.1180  0.2257
 1067loPI   C4B17072  12.514   0.682   6.955  0.1601  0.3575  0.0004
 1068loPI    C117073  13.107   5.577   4.866 -0.1115  0.0776 -0.1022
 1068loPI    C217074  12.807   5.541   4.604 -0.0108  0.2206 -0.2396
 1068loPI    C317075  13.183   5.471   4.488 -0.0054 -0.1353 -0.0227
 1068loPI   PO417076  12.940   5.560   5.097  0.0566  0.0548 -0.0668
 1068loPI   GL117077  12.904   5.490   5.512 -0.2598 -0.1732  0.1388
 1068loPI   GL217078  12.990   5.218   5.566  0.2066  0.0216 -0.0937
 1068loPI   C1A17079  12.898   5.590   6.019  0.0168  0.0671 -0.1844
 1068loPI   C2A17080  13.151   5.443   6.331  0.1087  0.1163  0.0060
 1068loPI   C3A17081  13.202   5.364   6.710 -0.0957 -0.0334 -0.1043
 1068loPI   C4A17082  13.119   5.434   7.194 -0.0215 -0.2845  0.3282
 1068loPI   C5A17083  13.068   5.723   7.497 -0.0970 -0.1701  0.0771
 1068loPI   C6A17084  13.226   5.961   7.800  0.0705 -0.0171  0.0758
 1068loPI   C1B17085  12.941   5.064   6.034 -0.1671 -0.1132 -0.5873
 1068loPI   C2B17086  12.663   5.148   6.344 -0.1474 -0.0409 -0.1897
 1068loPI   C3B17087  12.743   5.324   6.807 -0.2598 -0.2478 -0.0359
 1068loPI   C4B17088  12.637   5.578   7.142 -0.1930  0.1156 -0.2729
 1069loPI    C117089  13.625   6.607   4.813 -0.0004 -0.2767 -0.2273
 1069loPI    C217090  13.333   6.510   4.557  0.0777 -0.1247 -0.3761
 1069loPI    C317091  13.570   6.824   4.481  0.0866 -0.0634 -0.1044
 1069loPI   PO417092  13.535   6.589   5.049  0.1410  0.0568  0.2505
 1069loPI   GL117093  13.290   6.768   5.343 -0.0334 -0.1182  0.0567
 1069loPI   GL217094  13.102   7.044   5.448  0.0999  0.1416  0.2312
 1069loPI   C1A17095  13.497   6.539   5.671  0.1567  0.1825 -0.2726
 1069loPI   C2A17096  13.532   6.180   5.944 -0.1328  0.0438  0.0768
 1069loPI   C3A17097  13.416   5.954   6.179  0.1437  0.1631 -0.0926
 1069loPI   C4A17098  13.395   5.844   6.573 -0.0210  0.0618  0.0458
 1069loPI   C5A17099  13.479   5.663   6.935 -0.1752 -0.0510  0.1828
 1069loPI   C6A17100  13.549   5.748   7.377 -0.1020  0.0953 -0.2218
 1069loPI   C1B17101  13.381   7.164   5.704  0.0415 -0.1559  0.0947
 1069loPI   C2B17102  13.471   7.017   6.024 -0.0586 -0.0296  0.0909
 1069loPI   C3B17103  13.527   6.977   6.431  0.1236 -0.2123 -0.0513
 1069loPI   C4B17104  13.644   6.961   6.981  0.1633 -0.0659  0.0583
 1070loPI    C117105   8.998   2.529   4.920  0.2375 -0.0405  0.2479
 1070loPI    C217106   9.039   2.876   4.724 -0.0191  0.0453  0.3417
 1070loPI    C317107   8.996   2.534   4.520  0.0456  0.0921  0.2492
 1070loPI   PO417108   8.831   2.666   5.133  0.0971 -0.1401  0.1392
 1070loPI   GL117109   8.822   2.786   5.519 -0.2566  0.0743 -0.3125
 1070loPI   GL217110   8.554   2.971   5.623 -0.1885  0.0122 -0.0741
 1070loPI   C1A17111   9.019   2.784   5.842  0.2331 -0.1673  0.2374
 1070loPI   C2A17112   9.079   2.737   6.284  0.4335  0.2577 -0.0367
 1070loPI   C3A17113   8.899   2.613   6.702  0.0055 -0.2351  0.0042
 1070loPI   C4A17114   8.929   2.364   7.062  0.1159 -0.2469 -0.2507
 1070loPI   C5A17115   9.051   2.188   7.551 -0.0319  0.0111 -0.1264
 1070loPI   C6A17116   8.934   2.354   7.903 -0.0944 -0.1639  0.0214
 1070loPI   C1B17117   8.479   2.919   6.089 -0.2677  0.0056  0.0356
 1070loPI   C2B17118   8.403   2.978   6.554 -0.1451  0.0174 -0.0074
 1070loPI   C3B17119   8.140   2.887   6.923 -0.1433 -0.1629  0.1684
 1070loPI   C4B17120   8.038   2.938   7.286  0.2299 -0.1552 -0.0348
 1071loPI    C117121   3.830   6.554   4.644  0.1710  0.1358 -0.0900
 1071loPI    C217122   3.812   6.264   4.370 -0.2474  0.0804 -0.0108
 1071loPI    C317123   3.816   6.647   4.256 -0.1291  0.0525 -0.1018
 1071loPI   PO417124   3.808   6.409   4.894 -0.1892 -0.2256 -0.2015
 1071loPI   GL117125   3.992   6.474   5.283  0.0692  0.1081 -0.0118
 1071loPI   GL217126   4.300   6.565   5.403 -0.1734  0.0735 -0.0250
 1071loPI   C1A17127   3.974   6.611   5.773  0.0561  0.1718  0.2173
 1071loPI   C2A17128   3.854   6.582   6.167 -0.0985 -0.1417 -0.3526
 1071loPI   C3A17129   3.810   6.589   6.543 -0.0248 -0.2035 -0.0241
 1071loPI   C4A17130   3.875   6.503   6.859 -0.1144 -0.1620 -0.0079
 1071loPI   C5A17131   3.907   6.299   7.218 -0.0655 -0.0964 -0.1009
 1071loPI   C6A17132   3.792   6.096   7.494  0.2903 -0.1222  0.0035
 1071loPI   C1B17133   4.416   6.358   5.821  0.2214  0.0293 -0.3318
 1071loPI   C2B17134   4.508   6.427   6.194 -0.3152 -0.1650  0.1146
 1071loPI   C3B17135   4.673   6.524   6.712 -0.1303  0.1262 -0.0181
 1071loPI   C4B17136   4.706   6.880   6.986 -0.0444  0.1537 -0.2167
 1072loPI    C117137   6.334   9.783   4.612 -0.0675  0.2662  0.1942
 1072loPI    C217138   6.216  10.040   4.330  0.1801 -0.0386 -0.1972
 1072loPI    C317139   6.012   9.701   4.389  0.2396 -0.0645 -0.1406
 1072loPI   PO417140   6.405   9.935   4.877  0.1045 -0.0391  0.1912
 1072loPI   GL117141   6.355  10.235   5.075 -0.0588 -0.1046  0.1292
 1072loPI   GL217142   6.108  10.253   5.131 -0.0957  0.1769  0.0237
 1072loPI   C1A17143   6.461  10.402   5.481  0.1135 -0.4139 -0.1077
 1072loPI   C2A17144   6.477  10.251   5.931  0.1186  0.0279  0.1644
 1072loPI   C3A17145   6.533  10.379   6.384 -0.0476  0.2717 -0.0392
 1072loPI   C4A17146   6.603  10.442   6.762 -0.0214 -0.0147 -0.0766
 1072loPI   C5A17147   6.810  10.493   7.161 -0.1367  0.2856  0.0474
 1072loPI   C6A17148   7.089  10.463   7.406  0.0180 -0.0700  0.1814
 1072loPI   C1B17149   6.040  10.176   5.590  0.5783 -0.0917 -0.1132
 1072loPI   C2B17150   5.817  10.028   5.989 -0.0255 -0.3234  0.0188
 1072loPI   C3B17151   5.445   9.986   6.114 -0.0022  0.1653 -0.0010
 1072loPI   C4B17152   5.337  10.148   6.454 -0.0846  0.0756 -0.0931
 1073loPI    C117153  16.320   8.778   4.228  0.0773  0.2890  0.0304
 1073loPI    C217154  16.480   8.785   3.861  0.0615 -0.0956  0.0123
 1073loPI    C317155  16.224   9.072   3.973 -0.1890 -0.1515 -0.3955
 1073loPI   PO417156  16.584   8.616   4.390  0.1093  0.2750 -0.4533
 1073loPI   GL117157  16.830   8.562   4.691  0.0930 -0.0377  0.0620
 1073loPI   GL217158  17.119   8.593   4.629  0.1223  0.2482 -0.1101
 1073loPI   C1A17159  16.679   8.703   5.114  0.2110  0.0609  0.0078
 1073loPI   C2A17160  16.634   8.754   5.540 -0.0455  0.0334  0.2222
 1073loPI   C3A17161  16.752   8.794   5.970 -0.0232  0.2285  0.0443
 1073loPI   C4A17162  16.644   8.855   6.446 -0.0013 -0.1466  0.0321
 1073loPI   C5A17163  17.014   8.902   6.774 -0.1392 -0.2245 -0.1433
 1073loPI   C6A17164  17.084   8.822   7.163  0.1084 -0.0223 -0.1979
 1073loPI   C1B17165  17.173   8.584   5.024 -0.1508  0.1025  0.0023
 1073loPI   C2B17166  17.145   8.546   5.423  0.0565  0.2700  0.0640
 1073loPI   C3B17167  17.227   8.520   5.862 -0.2966  0.1227 -0.2360
 1073loPI   C4B17168  17.167   8.506   6.260 -0.2514 -0.0975 -0.0106
 1074loPI    C117169   4.701   0.518   4.856  0.1145  0.0059  0.1736
 1074loPI    C217170   4.956   0.632   4.570 -0.1527  0.2856  0.0412
 1074loPI    C317171   4.757   0.287   4.535 -0.0407  0.2265 -0.0155
 1074loPI   PO417172   4.682   0.855   4.998 -0.1528 -0.1728 -0.2363
 1074loPI   GL117173   4.311   1.025   5.100  0.0522  0.0315 -0.1087
 1074loPI   GL217174   4.008   1.076   5.226  0.1214  0.0775  0.0298
 1074loPI   C1A17175   4.345   0.992   5.572  0.1361  0.4111 -0.0405
 1074loPI   C2A17176   4.438   0.766   5.892 -0.2477  0.2286  0.1775
 1074loPI   C3A17177   4.506   0.516   6.294  0.0751  0.1764  0.4217
 1074loPI   C4A17178   4.631   0.186   6.664  0.1129 -0.1274  0.2383
 1074loPI   C5A17179   4.498  -0.067   7.077  0.1040  0.2472  0.2425
 1074loPI   C6A17180   4.048  -0.203   7.354  0.4459 -0.5639  0.0111
 1074loPI   C1B17181   3.995   1.318   5.713  0.0816 -0.2156 -0.0862
 1074loPI   C2B17182   4.047   1.602   6.093 -0.0581 -0.0657 -0.0344
 1074loPI   C3B17183   3.948   1.648   6.541  0.4003  0.0527 -0.1820
 1074loPI   C4B17184   3.600   1.430   6.784  0.0579 -0.2243  0.4536
 1075loPI    C117185   9.054  12.389   4.598  0.0342 -0.0497  0.0545
 1075loPI    C217186   8.932  12.697   4.374  0.3570 -0.0326 -0.1030
 1075loPI    C317187   9.295  12.702   4.542  0.2728 -0.2245  0.0896
 1075loPI   PO417188   8.833  12.340   4.712  0.2861  0.0206  0.1810
 1075loPI   GL117189   8.859  12.067   5.015  0.0017 -0.3124  0.0694
 1075loPI   GL217190   8.660  11.825   4.818 -0.2261  0.0690 -0.3624
 1075loPI   C1A17191   8.802  11.982   5.477  0.1452 -0.0254  0.1477
 1075loPI   C2A17192   8.719  12.113   5.962 -0.3312 -0.0330 -0.3238
 1075loPI   C3A17193   8.661  12.080   6.387 -0.0507  0.0855  0.0370
 1075loPI   C4A17194   8.383  12.253   6.728  0.0371  0.1908  0.1306
 1075loPI   C5A17195   8.164  12.724   6.720  0.0998 -0.0612  0.2684
 1075loPI   C6A17196   7.954  12.915   6.353  0.0027  0.1415 -0.1064
 1075loPI   C1B17197   8.657  11.563   5.174 -0.0288 -0.0016 -0.0243
 1075loPI   C2B17198   8.758  11.490   5.664 -0.0599  0.2829 -0.0641
 1075loPI   C3B17199   8.852  11.623   6.085  0.0748  0.2130 -0.3025
 1075loPI   C4B17200   8.764  11.463   6.556  0.3346 -0.2377  0.2269
 1076loPI    C117201   4.409  18.976   4.745 -0.0882 -0.0324  0.0176
 1076loPI    C217202   4.172  18.665   4.831 -0.0736 -0.0446  0.0135
 1076loPI    C317203   4.040  18.955   4.590  0.0125 -0.1862 -0.2078
 1076loPI   PO417204   4.486  19.020   5.008  0.1196  0.1888  0.2027
 1076loPI   GL117205   4.849  19.015   5.256 -0.1813 -0.0683  0.0857
 1076loPI   GL217206   4.487  19.085   5.524 -0.1685  0.0212  0.0841
 1076loPI   C1A17207   5.053  18.862   5.706  0.0532 -0.1638  0.1223
 1076loPI   C2A17208   5.060  19.012   6.075 -0.2240  0.3426  0.1536
 1076loPI   C3A17209   5.133  19.051   6.483  0.0165  0.0714 -0.0609
 1076loPI   C4A17210   5.057  19.295   6.844 -0.2165 -0.0559 -0.0637
 1076loPI   C5A17211   4.991  19.344   7.221  0.0937  0.0021  0.0487
 1076loPI   C6A17212   4.887  19.466   7.602 -0.0084 -0.1225 -0.1951
 1076loPI   C1B17213   4.566  18.999   5.981 -0.0561  0.0916  0.1375
 1076loPI   C2B17214   4.670  18.975   6.363  0.1080 -0.3124  0.2440
 1076loPI   C3B17215   4.678  18.918   6.694 -0.3092  0.1272 -0.1507
 1076loPI   C4B17216   4.713  18.848   7.139 -0.1234 -0.1596  0.2710
 1077loPI    C117217   3.831   4.224   4.772 -0.1261 -0.0765 -0.2040
 1077loPI    C217218   3.828   4.214   4.372  0.1368 -0.4259 -0.2016
 1077loPI    C317219   3.910   3.882   4.581  0.3557 -0.1666  0.1360
 1077loPI   PO417220   3.751   4.456   4.845  0.4325 -0.0997 -0.1738
 1077loPI   GL117221   3.672   4.454   5.262 -0.0823 -0.0764  0.1242
 1077loPI   GL217222   3.833   4.766   5.262  0.1084  0.1605  0.2046
 1077loPI   C1A17223   3.705   4.435   5.711 -0.3052 -0.1546 -0.3760
 1077loPI   C2A17224   3.777   4.640   5.962  0.0345  0.2311  0.1591
 1077loPI   C3A17225   4.073   4.909   6.259 -0.0950 -0.0646  0.2592
 1077loPI   C4A17226   4.021   5.109   6.651  0.0235  0.2724 -0.2935
 1077loPI   C5A17227   3.893   5.348   6.982 -0.3889 -0.2163 -0.0860
 1077loPI   C6A17228   3.745   5.245   7.378  0.0085  0.0463  0.0697
 1077loPI   C1B17229   3.707   4.923   5.573  0.1330 -0.0915  0.1196
 1077loPI   C2B17230   3.686   5.119   5.808 -0.5615 -0.0480 -0.4394
 1077loPI   C3B17231   3.750   5.326   6.236  0.2481  0.1491  0.2774
 1077loPI   C4B17232   3.482   5.261   6.632  0.2605  0.1878 -0.0626
 1078loPI    C117233  19.089  11.142   4.082 -0.0788  0.0350 -0.0143
 1078loPI    C217234  18.763  11.367   4.028  0.0260  0.1063 -0.3787
 1078loPI    C317235  18.809  11.028   3.820 -0.0828 -0.2086  0.0929
 1078loPI   PO417236  19.132  11.087   4.361  0.0858 -0.2247  0.0058
 1078loPI   GL117237  19.174  11.338   4.616 -0.1001  0.1328  0.0288
 1078loPI   GL217238  19.423  11.573   4.579 -0.1011  0.0313 -0.1031
 1078loPI   C1A17239  19.423  11.114   4.965  0.0041  0.1285 -0.2563
 1078loPI   C2A17240  19.391  11.192   5.384  0.2047  0.0203 -0.0142
 1078loPI   C3A17241  19.333  11.120   5.771  0.0290 -0.4211 -0.1444
 1078loPI   C4A17242  19.360  11.035   6.194 -0.0356  0.2516 -0.3495
 1078loPI   C5A17243  19.348  10.712   6.617  0.2201  0.1022  0.0052
 1078loPI   C6A17244  19.505  10.465   6.834  0.3938  0.0104 -0.0923
 1078loPI   C1B17245  19.285  11.672   4.980 -0.1017 -0.0549  0.0958
 1078loPI   C2B17246  19.156  11.691   5.427 -0.0753  0.0843  0.0671
 1078loPI   C3B17247  19.189  11.711   5.883  0.1290  0.2611 -0.1126
 1078loPI   C4B17248  19.159  11.585   6.226  0.0724  0.1303  0.4188
 1079loPI    C117249   5.436  15.574   4.478  0.0665  0.0586 -0.1877
 1079loPI    C217250   5.250  15.409   4.165 -0.0162 -0.1082 -0.0523
 1079loPI    C317251   5.604  15.588   4.116 -0.1942  0.1852 -0.3067
 1079loPI   PO417252   5.332  15.475   4.726 -0.2657 -0.1223  0.1398
 1079loPI   GL117253   5.440  15.251   5.101 -0.1407 -0.2079 -0.1127
 1079loPI   GL217254   5.246  15.106   5.027 -0.1282 -0.2264 -0.1397
 1079loPI   C1A17255   5.521  15.399   5.508  0.0716 -0.3355 -0.0511
 1079loPI   C2A17256   5.664  15.630   5.760 -0.2956 -0.1673 -0.0874
 1079loPI   C3A17257   5.869  15.572   6.088 -0.2203 -0.0007  0.0190
 1079loPI   C4A17258   6.093  15.698   6.402 -0.3159 -0.0014 -0.3607
 1079loPI   C5A17259   6.303  16.059   6.675 -0.1037  0.0436  0.2393
 1079loPI   C6A17260   6.187  16.255   7.090  0.0148 -0.2259  0.0611
 1079loPI   C1B17261   5.267  14.927   5.385  0.3648  0.3103  0.0477
 1079loPI   C2B17262   5.225  15.068   5.764  0.2414 -0.0146  0.0657
 1079loPI   C3B17263   5.241  15.420   5.962  0.2171 -0.0985  0.1626
 1079loPI   C4B17264   5.432  15.468   6.299  0.0041  0.0207 -0.2623
 1080loPI    C117265   2.537  14.746   4.417 -0.1349 -0.0030  0.1113
 1080loPI    C217266   2.167  14.605   4.363 -0.0716 -0.0008 -0.3739
 1080loPI    C317267   2.230  14.999   4.383 -0.1328 -0.0075  0.0581
 1080loPI   PO417268   2.633  14.658   4.660  0.3122  0.3359  0.0819
 1080loPI   GL117269   2.544  14.455   5.066 -0.1417 -0.4066 -0.2250
 1080loPI   GL217270   2.838  14.329   5.003  0.0082 -0.0515 -0.1495
 1080loPI   C1A17271   2.571  14.252   5.450  0.0586 -0.2230  0.0572
 1080loPI   C2A17272   2.639  14.009   5.755 -0.0998  0.0663 -0.2021
 1080loPI   C3A17273   2.427  13.752   6.035 -0.2104 -0.0006 -0.2152
 1080loPI   C4A17274   2.440  13.598   6.387  0.0701  0.0692  0.0746
 1080loPI   C5A17275   2.499  13.472   6.718 -0.1229  0.1559 -0.1898
 1080loPI   C6A17276   2.559  13.751   7.067  0.0880  0.1885 -0.0973
 1080loPI   C1B17277   2.890  14.627   5.422  0.0950  0.1213  0.5923
 1080loPI   C2B17278   2.863  14.510   5.861 -0.2715  0.3145  0.3325
 1080loPI   C3B17279   3.040  14.864   5.961 -0.0030 -0.0563  0.0650
 1080loPI   C4B17280   3.148  15.088   6.298  0.0608 -0.0746 -0.1182
 1081loPI    C117281   3.605  17.167   4.794  0.0592  0.1485  0.0089
 1081loPI    C217282   3.613  16.935   4.469 -0.0147 -0.0795  0.1675
 1081loPI    C317283   3.313  17.194   4.522 -0.1556 -0.2462  0.1927
 1081loPI   PO417284   3.692  17.012   5.054 -0.0557 -0.3772 -0.1741
 1081loPI   GL117285   3.611  16.975   5.405 -0.2756 -0.2447 -0.2140
 1081loPI   GL217286   3.350  17.063   5.518  0.0576  0.2735 -0.1653
 1081loPI   C1A17287   3.697  16.916   5.906  0.1207 -0.3509 -0.1203
 1081loPI   C2A17288   3.770  16.885   6.361  0.2230 -0.0235 -0.3060
 1081loPI   C3A17289   3.849  16.920   6.784 -0.1181 -0.3791 -0.0585
 1081loPI   C4A17290   4.161  16.801   7.110 -0.0007  0.0469  0.0202
 1081loPI   C5A17291   4.320  16.564   7.369 -0.0985 -0.1317 -0.0575
 1081loPI   C6A17292   4.393  16.154   7.310  0.0122 -0.1186  0.0094
 1081loPI   C1B17293   3.324  17.332   5.914 -0.2475 -0.0338  0.2909
 1081loPI   C2B17294   3.527  17.278   6.326  0.0034 -0.2531  0.1589
 1081loPI   C3B17295   3.396  17.225   6.696  0.0610  0.0120 -0.1774
 1081loPI   C4B17296   3.301  17.398   7.118  0.2344 -0.1215  0.2780
 1082loPI    C117297   7.488   2.757   4.658  0.3393  0.1260  0.1826
 1082loPI    C217298   7.504   2.890   4.281  0.0836 -0.0364  0.1115
 1082loPI    C317299   7.735   2.584   4.396  0.2152  0.0605  0.1080
 1082loPI   PO417300   7.326   2.972   4.748 -0.2690  0.0437  0.2076
 1082loPI   GL117301   7.100   2.950   5.155  0.1390 -0.3507 -0.0946
 1082loPI   GL217302   7.388   3.152   5.235  0.3405  0.1587  0.0674
 1082loPI   C1A17303   6.787   2.697   5.400  0.1051  0.1666 -0.2731
 1082loPI   C2A17304   6.500   2.717   5.723 -0.1843  0.1221 -0.0063
 1082loPI   C3A17305   6.306   2.789   6.052 -0.1017 -0.0193  0.1197
 1082loPI   C4A17306   6.164   2.743   6.474  0.0208  0.1302 -0.1281
 1082loPI   C5A17307   5.925   2.779   6.916  0.0756 -0.1683 -0.1868
 1082loPI   C6A17308   5.655   2.985   7.115  0.0672 -0.0376  0.0771
 1082loPI   C1B17309   7.389   2.977   5.655 -0.2346 -0.0303  0.4622
 1082loPI   C2B17310   7.305   2.862   6.026  0.0974 -0.0592  0.1612
 1082loPI   C3B17311   7.557   2.872   6.384 -0.1618  0.1742 -0.0540
 1082loPI   C4B17312   7.534   2.558   6.689 -0.0544 -0.2493 -0.0456
 1083loPI    C117313   8.829  15.462   4.288  0.1206  0.1599  0.1738
 1083loPI    C217314   8.557  15.458   3.995  0.2570  0.0105  0.0469
 1083loPI    C317315   8.858  15.721   3.985  0.0633  0.2437  0.2399
 1083loPI   PO417316   8.701  15.373   4.517 -0.2482 -0.0880 -0.1160
 1083loPI   GL117317   8.756  15.592   4.822  0.0753  0.0584 -0.1211
 1083loPI   GL217318   9.034  15.337   4.897  0.0628 -0.0953  0.0153
 1083loPI   C1A17319   8.652  15.461   5.253  0.0646  0.4656 -0.1770
 1083loPI   C2A17320   8.541  15.061   5.414 -0.2665 -0.0003  0.1301
 1083loPI   C3A17321   8.355  14.974   5.867 -0.0627  0.0229  0.0430
 1083loPI   C4A17322   8.268  14.543   6.112 -0.3367 -0.2183  0.0931
 1083loPI   C5A17323   8.465  14.501   6.363 -0.1467  0.4292  0.3585
 1083loPI   C6A17324   8.755  14.661   6.622 -0.0447 -0.1653 -0.1481
 1083loPI   C1B17325   9.109  15.266   5.382  0.4244  0.2067  0.0037
 1083loPI   C2B17326   8.903  15.299   5.797  0.1064 -0.0789 -0.0234
 1083loPI   C3B17327   8.656  15.325   6.144 -0.1515 -0.1685  0.1852
 1083loPI   C4B17328   8.402  14.983   6.393  0.2487  0.0393  0.4374
 1084loPI    C117329   3.641   0.017   5.059  0.0159 -0.0131 -0.0785
 1084loPI    C217330   3.394   0.125   4.763 -0.1580  0.0499  0.0869
 1084loPI    C317331   3.295   0.200   5.143  0.1904  0.2210  0.1483
 1084loPI   PO417332   3.839  -0.140   4.889  0.1185  0.2047 -0.2285
 1084loPI   GL117333   3.984  -0.422   5.132 -0.1406 -0.1235  0.0607
 1084loPI   GL217334   3.735  -0.634   5.121 -0.1078 -0.3112 -0.3186
 1084loPI   C1A17335   4.091  -0.618   5.563  0.2235 -0.0471  0.0311
 1084loPI   C2A17336   4.121  -0.699   5.998  0.3470  0.0512 -0.1518
 1084loPI   C3A17337   4.278  -0.813   6.325  0.0125  0.0204  0.1743
 1084loPI   C4A17338   4.331  -0.973   6.753 -0.1002 -0.2569 -0.0857
 1084loPI   C5A17339   4.420  -1.235   7.136  0.0794 -0.1046 -0.0777
 1084loPI   C6A17340   4.407  -1.244   7.630  0.0080  0.3112 -0.0881
 1084loPI   C1B17341   3.661  -0.363   5.547  0.1056  0.1987 -0.0278
 1084loPI   C2B17342   3.469  -0.290   5.948 -0.0768 -0.3227  0.1518
 1084loPI   C3B17343   3.231  -0.415   6.220  0.0201 -0.1086  0.3056
 1084loPI   C4B17344   3.181  -0.290   6.689 -0.1113  0.0242  0.1216
 1085loPI    C117345  12.465  18.206   4.998 -0.0590  0.1070  0.0009
 1085loPI    C217346  12.267  18.464   4.765 -0.0235  0.1150 -0.0206
 1085loPI    C317347  12.648  18.534   4.862  0.0159  0.0214 -0.1065
 1085loPI   PO417348  12.266  18.113   5.169  0.0041 -0.0598  0.0456
 1085loPI   GL117349  12.316  17.844   5.496  0.0656  0.1275 -0.2163
 1085loPI   GL217350  12.275  17.680   5.788 -0.1718 -0.0557 -0.3002
 1085loPI   C1A17351  12.518  18.175   5.796 -0.1157 -0.0433  0.1258
 1085loPI   C2A17352  12.846  18.470   5.992  0.4817  0.1842 -0.1404
 1085loPI   C3A17353  12.985  18.597   6.391  0.2773  0.0465  0.0504
 1085loPI   C4A17354  13.160  18.759   6.781 -0.0478  0.2640 -0.2681
 1085loPI   C5A17355  13.363  18.889   7.298 -0.0034 -0.0412 -0.0347
 1085loPI   C6A17356  13.330  19.203   7.662 -0.3309 -0.0167 -0.0349
 1085loPI   C1B17357  12.499  17.322   6.008 -0.2893 -0.1645 -0.0697
 1085loPI   C2B17358  12.290  17.085   6.354  0.4392 -0.0581  0.1809
 1085loPI   C3B17359  12.153  16.992   6.796  0.2746  0.4752 -0.1751
 1085loPI   C4B17360  12.052  16.836   7.164 -0.1498  0.0047  0.1915
 1086loPI    C117361   5.529   4.473   4.799  0.1520  0.0589  0.1088
 1086loPI    C217362   5.536   4.605   4.421  0.0757 -0.1269  0.0416
 1086loPI    C317363   5.589   4.216   4.499 -0.1083 -0.1205  0.2069
 1086loPI   PO417364   5.357   4.675   4.975  0.1672 -0.1658  0.0295
 1086loPI   GL117365   5.044   4.661   5.345  0.0821  0.0567 -0.0378
 1086loPI   GL217366   5.076   4.976   5.293 -0.0747  0.2129  0.0912
 1086loPI   C1A17367   5.073   4.361   5.677 -0.1133 -0.0193  0.1521
 1086loPI   C2A17368   5.230   4.350   6.029  0.1875 -0.1277 -0.2714
 1086loPI   C3A17369   5.533   4.356   6.350 -0.0419  0.1425 -0.2566
 1086loPI   C4A17370   5.526   4.465   6.809 -0.0371 -0.0048  0.0610
 1086loPI   C5A17371   5.628   4.517   7.243 -0.4781  0.1322 -0.0446
 1086loPI   C6A17372   5.533   4.625   7.671 -0.0459  0.0617 -0.0639
 1086loPI   C1B17373   4.995   5.275   5.716 -0.1760  0.0449 -0.0794
 1086loPI   C2B17374   4.920   5.607   6.066 -0.1274 -0.1022  0.2854
 1086loPI   C3B17375   4.953   6.094   6.131  0.1727 -0.0467  0.3747
 1086loPI   C4B17376   4.998   6.273   6.430  0.4713  0.0346  0.0380
 1087loPI    C117377   5.125   5.138   4.793  0.0118  0.0506 -0.0737
 1087loPI    C217378   4.788   5.342   4.866  0.0686  0.0678  0.1472
 1087loPI    C317379   4.786   4.942   4.875 -0.0435  0.0541 -0.2889
 1087loPI   PO417380   5.331   5.276   5.019 -0.1616  0.3131  0.0861
 1087loPI   GL117381   5.559   5.038   5.331  0.0104 -0.2409 -0.0614
 1087loPI   GL217382   5.734   4.981   5.144  0.1847 -0.0261 -0.2393
 1087loPI   C1A17383   5.341   4.922   5.746 -0.1881 -0.0341 -0.2445
 1087loPI   C2A17384   5.271   4.817   6.191 -0.1163 -0.1312 -0.1450
 1087loPI   C3A17385   5.492   4.999   6.508  0.1486  0.4798 -0.0321
 1087loPI   C4A17386   5.850   4.960   6.817 -0.3728  0.1654  0.4336
 1087loPI   C5A17387   6.240   5.298   6.842 -0.0677 -0.0657 -0.0007
 1087loPI   C6A17388   6.416   5.621   7.181  0.0967  0.3377  0.1200
 1087loPI   C1B17389   5.998   4.931   5.585  0.2063  0.0412  0.0724
 1087loPI   C2B17390   6.294   4.847   5.896  0.2284  0.0308 -0.2051
 1087loPI   C3B17391   6.321   4.712   6.246 -0.2452  0.0022 -0.2416
 1087loPI   C4B17392   6.515   4.885   6.588 -0.0548  0.3808 -0.2504
 1088loPI    C117393  13.142  17.192   4.723 -0.0055 -0.0510  0.0552
 1088loPI    C217394  12.987  17.049   4.383  0.1005 -0.0668  0.0130
 1088loPI    C317395  12.745  17.186   4.671  0.0069 -0.1340 -0.0329
 1088loPI   PO417396  13.364  17.026   4.821  0.2829  0.0300 -0.0607
 1088loPI   GL117397  13.572  17.054   5.203  0.2924 -0.1913  0.0406
 1088loPI   GL217398  13.382  17.357   5.263 -0.0940  0.3957  0.0089
 1088loPI   C1A17399  13.780  17.083   5.511 -0.0732 -0.2558 -0.1694
 1088loPI   C2A17400  13.827  16.925   5.992  0.1045  0.0591  0.2148
 1088loPI   C3A17401  13.800  17.018   6.393  0.0042 -0.0203 -0.4188
 1088loPI   C4A17402  13.855  17.254   6.802  0.3375 -0.1733  0.2595
 1088loPI   C5A17403  13.704  17.615   7.108  0.0328 -0.2899  0.2288
 1088loPI   C6A17404  13.711  17.916   7.467 -0.5355 -0.2052 -0.4173
 1088loPI   C1B17405  13.525  17.476   5.693 -0.1750 -0.2367 -0.0991
 1088loPI   C2B17406  13.558  17.390   6.122  0.2282 -0.1560  0.1244
 1088loPI   C3B17407  13.475  17.432   6.522  0.0434 -0.3394  0.0182
 1088loPI   C4B17408  13.427  17.787   6.759  0.1632 -0.4511 -0.1996
 1089loPI    C117409   0.149   4.204   4.628  0.0006 -0.1074  0.1178
 1089loPI    C217410   0.020   4.566   4.518  0.0057 -0.0554  0.2792
 1089loPI    C317411   0.273   4.363   4.283  0.1136  0.1059  0.2544
 1089loPI   PO417412   0.101   4.294   4.910  0.0838  0.1565  0.0514
 1089loPI   GL117413  -0.162   4.520   5.237  0.2367  0.1191  0.0887
 1089loPI   GL217414  -0.093   4.845   5.349  0.1394  0.1597  0.2011
 1089loPI   C1A17415  -0.394   4.525   5.693  0.1430 -0.2044  0.2345
 1089loPI   C2A17416  -0.532   4.548   6.037 -0.0168  0.3168 -0.1693
 1089loPI   C3A17417  -0.560   4.681   6.520  0.0567 -0.2963 -0.0519
 1089loPI   C4A17418  -0.665   4.734   7.014 -0.4081 -0.1507  0.1907
 1089loPI   C5A17419  -0.908   4.995   7.296  0.1248  0.0733 -0.0519
 1089loPI   C6A17420  -1.030   4.855   7.668 -0.1399 -0.0535  0.1957
 1089loPI   C1B17421  -0.072   4.931   5.723  0.0196 -0.0080 -0.1400
 1089loPI   C2B17422  -0.141   5.030   6.148 -0.0241 -0.0900 -0.1161
 1089loPI   C3B17423  -0.242   5.016   6.672 -0.0314 -0.4295  0.0319
 1089loPI   C4B17424  -0.158   5.065   7.045 -0.1184 -0.0322 -0.1344
 1090loPI    C117425  17.492  13.203   4.428 -0.1104 -0.0408  0.1741
 1090loPI    C217426  17.765  13.076   4.165 -0.3579 -0.1020 -0.0584
 1090loPI    C317427  17.375  13.030   4.086 -0.4388  0.0948  0.2134
 1090loPI   PO417428  17.531  13.016   4.670  0.1220 -0.0856 -0.0979
 1090loPI   GL117429  17.448  12.708   4.915 -0.2330 -0.0698 -0.0373
 1090loPI   GL217430  17.408  12.349   4.864  0.1111 -0.2779 -0.0153
 1090loPI   C1A17431  17.729  12.624   5.225  0.0101 -0.2229  0.2211
 1090loPI   C2A17432  17.656  12.606   5.584  0.2204 -0.1783 -0.2821
 1090loPI   C3A17433  17.636  12.518   6.009 -0.3035  0.2158 -0.1207
 1090loPI   C4A17434  17.692  12.720   6.453  0.3543  0.0169 -0.3017
 1090loPI   C5A17435  17.838  12.505   6.814  0.1113 -0.1522 -0.0876
 1090loPI   C6A17436  18.051  12.244   7.106  0.1390 -0.4818 -0.0166
 1090loPI   C1B17437  17.300  12.359   5.179 -0.0269  0.1675 -0.3285
 1090loPI   C2B17438  17.255  12.242   5.567  0.2671  0.0792  0.2534
 1090loPI   C3B17439  17.331  12.095   5.932 -0.2908 -0.2766 -0.0301
 1090loPI   C4B17440  17.343  12.273   6.408  0.1208 -0.1425  0.0639
 1091loPI    C117441  12.955   8.787   4.663 -0.1200 -0.0505  0.1337
 1091loPI    C217442  12.684   8.929   4.405  0.1609 -0.0464 -0.1656
 1091loPI    C317443  12.939   8.643   4.291  0.3019 -0.0314  0.1038
 1091loPI   PO417444  13.053   9.089   4.783 -0.0151  0.2044  0.0357
 1091loPI   GL117445  13.209   9.272   5.164 -0.1881  0.1743  0.2139
 1091loPI   GL217446  12.855   9.196   5.302  0.0012 -0.2042  0.0804
 1091loPI   C1A17447  13.501   9.204   5.484 -0.0910  0.0627  0.1343
 1091loPI   C2A17448  13.838   9.477   5.663  0.3392  0.1547 -0.1664
 1091loPI   C3A17449  13.868   9.700   6.075  0.0127 -0.0624  0.1148
 1091loPI   C4A17450  13.922   9.851   6.565  0.2294 -0.0705  0.1668
 1091loPI   C5A17451  13.839  10.054   6.995 -0.0053 -0.2198 -0.2159
 1091loPI   C6A17452  13.521  10.091   7.406 -0.1146 -0.0613  0.0889
 1091loPI   C1B17453  13.065   9.345   5.638  0.1853  0.0666 -0.3631
 1091loPI   C2B17454  13.308   9.290   6.021  0.0846 -0.0006 -0.0801
 1091loPI   C3B17455  13.484   9.548   6.407 -0.0117  0.1332  0.0322
 1091loPI   C4B17456  13.487   9.690   6.836  0.4323  0.1460  0.4523
 1092loPI    C117457   6.651   1.371   4.652 -0.0507  0.0779 -0.0078
 1092loPI    C217458   6.268   1.429   4.553  0.0033 -0.0762 -0.3198
 1092loPI    C317459   6.554   1.466   4.275  0.2282  0.1463 -0.0647
 1092loPI   PO417460   6.721   1.449   4.869  0.0036  0.1228  0.1623
 1092loPI   GL117461   6.610   1.509   5.364  0.1619  0.0636  0.3832
 1092loPI   GL217462   6.571   1.893   5.419  0.1892  0.4331  0.2587
 1092loPI   C1A17463   6.634   1.413   5.813 -0.0464  0.0403  0.0199
 1092loPI   C2A17464   6.517   1.086   6.121 -0.1315 -0.0066 -0.0996
 1092loPI   C3A17465   6.241   0.763   6.181 -0.2136  0.0936  0.0163
 1092loPI   C4A17466   6.123   0.729   6.651  0.0085 -0.2175  0.0029
 1092loPI   C5A17467   6.015   0.802   7.031  0.2241  0.0482 -0.0374
 1092loPI   C6A17468   5.709   1.047   7.173  0.1580 -0.1258 -0.4102
 1092loPI   C1B17469   6.722   2.237   5.750  0.0532 -0.3459 -0.2190
 1092loPI   C2B17470   6.730   2.466   6.094  0.3445 -0.2376 -0.3910
 1092loPI   C3B17471   6.672   2.476   6.425  0.4511  0.2922  0.0979
 1092loPI   C4B17472   6.576   2.637   6.742 -0.2231 -0.1296  0.1150
 1093loPI    C117473  12.814  16.698   4.712  0.0503  0.0927 -0.1050
 1093loPI    C217474  12.530  16.433   4.616 -0.1151  0.1402  0.2393
 1093loPI    C317475  12.472  16.823   4.546  0.0531  0.1085 -0.0985
 1093loPI   PO417476  12.997  16.705   4.941 -0.0121 -0.1644 -0.2191
 1093loPI   GL117477  12.901  16.706   5.358  0.1626  0.2065  0.1403
 1093loPI   GL217478  13.185  16.842   5.424  0.2004 -0.1621  0.0411
 1093loPI   C1A17479  12.787  16.376   5.589 -0.0387  0.0511 -0.2990
 1093loPI   C2A17480  12.665  16.369   5.933  0.1085  0.1616  0.2174
 1093loPI   C3A17481  12.576  16.101   6.261  0.2751  0.1480  0.0606
 1093loPI   C4A17482  12.571  16.068   6.667 -0.2173  0.2556  0.0941
 1093loPI   C5A17483  12.621  16.175   7.144  0.1254  0.0242  0.1699
 1093loPI   C6A17484  12.838  16.430   7.395 -0.0745  0.2368  0.2955
 1093loPI   C1B17485  13.343  16.964   5.706 -0.0300  0.1418  0.2546
 1093loPI   C2B17486  13.366  16.850   6.208 -0.1055  0.0743  0.1005
 1093loPI   C3B17487  13.174  16.789   6.566 -0.1458  0.2867  0.0860
 1093loPI   C4B17488  12.950  16.873   7.040 -0.0302  0.1573 -0.1264
 1094loPI    C117489   4.352  10.949   4.546 -0.0003 -0.1013 -0.0379
 1094loPI    C217490   4.682  11.091   4.370 -0.0576  0.3261  0.1848
 1094loPI    C317491   4.432  10.856   4.165  0.4226 -0.0772  0.0403
 1094loPI   PO417492   4.470  10.887   4.825  0.0032  0.1194  0.0585
 1094loPI   GL117493   4.627  10.969   5.247  0.2657 -0.4222  0.0961
 1094loPI   GL217494   4.354  11.188   5.319  0.2432  0.0053  0.0943
 1094loPI   C1A17495   4.626  10.803   5.586 -0.0400  0.3350  0.0367
 1094loPI   C2A17496   4.533  10.534   5.763 -0.1186  0.0354  0.0162
 1094loPI   C3A17497   4.535  10.179   5.913  0.1368  0.0566 -0.1605
 1094loPI   C4A17498   4.507   9.919   6.299  0.0171 -0.1337 -0.2438
 1094loPI   C5A17499   4.429  10.018   6.749 -0.0039 -0.2650  0.0641
 1094loPI   C6A17500   4.659  10.086   7.082 -0.0518  0.0913  0.0391
 1094loPI   C1B17501   4.430  11.327   5.725  0.0019  0.1168  0.0972
 1094loPI   C2B17502   4.423  11.223   6.176  0.0020  0.0073  0.2852
 1094loPI   C3B17503   4.351  11.129   6.631 -0.1139 -0.0331  0.3110
 1094loPI   C4B17504   4.535  11.255   7.050 -0.1627 -0.0490  0.1930
 1095loPI    C117505  10.914  11.160   4.410  0.1137  0.2220 -0.0072
 1095loPI    C217506  10.947  10.824   4.195  0.0946  0.1839  0.0492
 1095loPI    C317507  10.935  11.179   4.011  0.1346  0.1549 -0.0094
 1095loPI   PO417508  10.773  11.018   4.628 -0.0741 -0.2429  0.0912
 1095loPI   GL117509  10.775  10.853   4.980  0.1617 -0.3441 -0.0616
 1095loPI   GL217510  11.126  10.968   4.968 -0.0254  0.1512  0.1430
 1095loPI   C1A17511  10.486  10.739   5.312  0.0018 -0.0345  0.0046
 1095loPI   C2A17512  10.330  10.527   5.725 -0.3708 -0.4999  0.1622
 1095loPI   C3A17513  10.347  10.372   6.123 -0.1991 -0.0291  0.0485
 1095loPI   C4A17514  10.288  10.460   6.625 -0.0356 -0.0053  0.0230
 1095loPI   C5A17515  10.159  10.286   7.073  0.1374  0.1269  0.1172
 1095loPI   C6A17516   9.916  10.352   7.371 -0.0727  0.1380 -0.0353
 1095loPI   C1B17517  11.271  10.877   5.369 -0.1699 -0.0196  0.1939
 1095loPI   C2B17518  11.258  10.836   5.768  0.1799  0.1703  0.0765
 1095loPI   C3B17519  11.374  10.941   6.236 -0.0788 -0.2765 -0.3635
 1095loPI   C4B17520  11.222  11.348   6.513 -0.0687  0.0490 -0.3185
 1096loPI    C117521   3.971  10.640   4.287 -0.1475  0.0308  0.0185
 1096loPI    C217522   3.782  10.384   4.044 -0.0523 -0.0403  0.0188
 1096loPI    C317523   4.166  10.324   4.139 -0.0555  0.0526  0.0922
 1096loPI   PO417524   3.777  10.719   4.503 -0.0843  0.3571  0.3363
 1096loPI   GL117525   3.406  10.734   4.835  0.2440  0.0854 -0.0192
 1096loPI   GL217526   3.531  11.065   4.776  0.2045  0.1786 -0.5066
 1096loPI   C1A17527   3.342  10.832   5.295 -0.0467 -0.2279  0.0391
 1096loPI   C2A17528   3.467  11.031   5.668  0.0440  0.0209 -0.0583
 1096loPI   C3A17529   3.685  10.832   5.948 -0.2088 -0.0525 -0.1808
 1096loPI   C4A17530   3.892  10.746   6.374 -0.1431  0.1913  0.4672
 1096loPI   C5A17531   4.037  10.567   6.770 -0.0319  0.1144 -0.0239
 1096loPI   C6A17532   4.315  10.448   7.148 -0.0048  0.1211 -0.1218
 1096loPI   C1B17533   3.635  11.191   5.184 -0.1037 -0.0115 -0.2350
 1096loPI   C2B17534   3.885  11.294   5.470 -0.0742  0.1851 -0.0254
 1096loPI   C3B17535   3.944  11.371   5.895 -0.2654 -0.0252 -0.0457
 1096loPI   C4B17536   3.876  11.200   6.254  0.2014  0.0829 -0.0582
 1097loPI    C117537   0.729  14.222   4.338  0.0911  0.1816 -0.1305
 1097loPI    C217538   0.334  14.284   4.331  0.0674  0.0230 -0.2661
 1097loPI    C317539   0.579  14.568   4.472 -0.1085  0.0493 -0.0068
 1097loPI   PO417540   0.715  13.933   4.434  0.1659 -0.2308 -0.1213
 1097loPI   GL117541   0.879  13.782   4.920 -0.1234 -0.0809  0.3128
 1097loPI   GL217542   0.584  13.841   5.134  0.0974  0.1107  0.1931
 1097loPI   C1A17543   0.994  14.140   5.189  0.4016 -0.1596 -0.0940
 1097loPI   C2A17544   1.037  14.270   5.606  0.1709 -0.0354 -0.0360
 1097loPI   C3A17545   0.896  14.076   5.848  0.3149  0.0931 -0.1548
 1097loPI   C4A17546   0.912  13.711   6.054 -0.1665  0.0707  0.0757
 1097loPI   C5A17547   1.088  13.285   6.180  0.3699  0.3721  0.1403
 1097loPI   C6A17548   1.025  12.855   6.354 -0.0121  0.1961  0.0398
 1097loPI   C1B17549   0.762  13.713   5.505  0.0724  0.0181  0.2788
 1097loPI   C2B17550   1.344  13.730   5.726  0.1860 -0.2557  0.3048
 1097loPI   C3B17551   1.509  13.606   6.128  0.3749  0.2383  0.1811
 1097loPI   C4B17552   1.849  13.666   6.504 -0.2097 -0.0923 -0.0127
 1098loPI    C117553   3.547   7.854   4.661  0.0104  0.1010 -0.1146
 1098loPI    C217554   3.663   7.515   4.483  0.0613  0.0399  0.0329
 1098loPI    C317555   3.572   7.836   4.263 -0.1971 -0.1349 -0.1195
 1098loPI   PO417556   3.332   7.829   4.786  0.0663 -0.3149  0.1048
 1098loPI   GL117557   3.184   8.119   5.262  0.0606 -0.1301 -0.0770
 1098loPI   GL217558   3.319   8.315   4.988  0.2754 -0.1333  0.2448
 1098loPI   C1A17559   3.118   8.430   5.542  0.0862 -0.1084 -0.1670
 1098loPI   C2A17560   3.106   8.824   5.935  0.0402  0.2843 -0.3064
 1098loPI   C3A17561   3.283   8.858   6.344 -0.2735  0.3830  0.2779
 1098loPI   C4A17562   3.554   9.127   6.632 -0.7028 -0.0307  0.0730
 1098loPI   C5A17563   3.934   9.227   6.803 -0.3347 -0.1710 -0.0775
 1098loPI   C6A17564   4.076   9.259   7.226  0.1852 -0.3823 -0.1305
 1098loPI   C1B17565   3.544   8.458   5.326 -0.0580 -0.3387  0.1693
 1098loPI   C2B17566   3.514   8.774   5.680  0.2519  0.0536 -0.2310
 1098loPI   C3B17567   3.587   9.001   5.989 -0.2027 -0.1970 -0.1600
 1098loPI   C4B17568   3.282   9.387   5.984  0.1815 -0.1261 -0.2919
 1099loPI    C117569   6.169  13.850   4.267  0.1043 -0.0922 -0.0180
 1099loPI    C217570   6.230  13.600   3.961 -0.2590 -0.2135  0.0035
 1099loPI    C317571   6.247  13.995   3.903  0.0742 -0.2374 -0.0830
 1099loPI   PO417572   5.943  13.725   4.404  0.2310 -0.2350  0.0361
 1099loPI   GL117573   5.773  13.863   4.813  0.2030 -0.3306 -0.3011
 1099loPI   GL217574   5.658  14.103   5.051  0.0018  0.0211 -0.1448
 1099loPI   C1A17575   6.008  13.759   5.219  0.0671  0.0772 -0.1149
 1099loPI   C2A17576   6.158  14.001   5.600  0.1363 -0.0816 -0.0847
 1099loPI   C3A17577   6.046  13.975   6.023  0.0483 -0.0564  0.1403
 1099loPI   C4A17578   5.856  13.949   6.391  0.0020 -0.6063  0.2131
 1099loPI   C5A17579   5.929  13.915   6.802 -0.0433  0.0713 -0.4073
 1099loPI   C6A17580   5.653  14.024   7.078 -0.0865  0.0337  0.0047
 1099loPI   C1B17581   5.658  14.018   5.503 -0.0219  0.0924 -0.0638
 1099loPI   C2B17582   5.527  14.121   5.885 -0.1069 -0.1063 -0.1256
 1099loPI   C3B17583   5.414  14.188   6.308  0.2304 -0.0995  0.1681
 1099loPI   C4B17584   5.486  14.240   6.662 -0.2001  0.1677  0.1974
 1100loPI    C117585   4.274   6.331   4.589  0.1213 -0.1872  0.3466
 1100loPI    C217586   4.425   6.068   4.327  0.0782  0.1206  0.0042
 1100loPI    C317587   4.647   6.377   4.452  0.0429  0.0642  0.2107
 1100loPI   PO417588   4.161   6.073   4.743  0.0063  0.0366 -0.0286
 1100loPI   GL117589   3.896   5.988   5.188 -0.1841  0.1264  0.2054
 1100loPI   GL217590   4.287   5.951   5.239 -0.3237 -0.0205  0.1638
 1100loPI   C1A17591   4.011   6.110   5.659 -0.1980  0.1127 -0.0553
 1100loPI   C2A17592   4.049   6.126   6.084  0.0451  0.0058 -0.0698
 1100loPI   C3A17593   4.215   6.255   6.524 -0.1612 -0.2291 -0.2281
 1100loPI   C4A17594   4.368   6.316   6.999  0.1791  0.1720 -0.0917
 1100loPI   C5A17595   4.435   6.146   7.253  0.1040  0.0742  0.0649
 1100loPI   C6A17596   4.460   5.833   7.571 -0.1233  0.3326  0.0813
 1100loPI   C1B17597   4.474   5.955   5.620 -0.1737 -0.0871  0.0553
 1100loPI   C2B17598   4.476   5.928   6.083  0.1866 -0.1892 -0.1858
 1100loPI   C3B17599   4.571   5.967   6.488  0.0761  0.1029  0.0893
 1100loPI   C4B17600   4.768   6.003   6.920 -0.2197 -0.0707 -0.3476
 1101loPI    C117601  12.526  12.920   4.485 -0.2285  0.1718  0.1405
 1101loPI    C217602  12.456  13.214   4.223 -0.2303 -0.0239 -0.0825
 1101loPI    C317603  12.758  12.959   4.161 -0.2001 -0.0422  0.1337
 1101loPI   PO417604  12.433  13.077   4.788 -0.0138 -0.1855 -0.0373
 1101loPI   GL117605  12.392  13.366   5.110 -0.1771 -0.2767  0.1957
 1101loPI   GL217606  12.161  13.536   5.121 -0.0037  0.1029  0.1387
 1101loPI   C1A17607  12.399  13.123   5.425  0.2508 -0.1039 -0.0916
 1101loPI   C2A17608  12.777  12.839   5.366 -0.0161 -0.1634  0.1464
 1101loPI   C3A17609  13.142  12.830   5.599 -0.0522  0.0444  0.1689
 1101loPI   C4A17610  13.243  13.125   5.930 -0.1947  0.2295  0.0795
 1101loPI   C5A17611  13.205  13.173   6.352 -0.0631 -0.1905 -0.1976
 1101loPI   C6A17612  13.105  13.325   6.723  0.0415 -0.1588 -0.0800
 1101loPI   C1B17613  12.228  13.526   5.592 -0.4334 -0.1954  0.1291
 1101loPI   C2B17614  12.201  13.142   5.927 -0.3500  0.0980  0.1668
 1101loPI   C3B17615  12.412  13.093   6.338  0.1506 -0.1245  0.1232
 1101loPI   C4B17616  12.704  13.023   6.577  0.2660 -0.0525  0.0371
 1102loPI    C117617   5.684   1.928   5.022 -0.0471 -0.0359 -0.1809
 1102loPI    C217618   5.543   2.176   4.742  0.0714 -0.2334 -0.4184
 1102loPI    C317619   5.510   1.780   4.694  0.0804 -0.2688 -0.1458
 1102loPI   PO417620   5.679   2.088   5.228 -0.2730 -0.0689 -0.0218
 1102loPI   GL117621   5.756   2.316   5.455 -0.0956 -0.4570 -0.0281
 1102loPI   GL217622   5.568   2.572   5.412  0.1897  0.2006  0.2428
 1102loPI   C1A17623   5.616   2.286   5.864  0.2305 -0.0828 -0.2114
 1102loPI   C2A17624   5.227   2.378   6.205  0.0340 -0.1911 -0.0149
 1102loPI   C3A17625   4.916   2.580   6.498 -0.0169  0.1292  0.0425
 1102loPI   C4A17626   4.697   2.722   6.780  0.2228 -0.0935 -0.0610
 1102loPI   C5A17627   4.323   2.985   6.710 -0.0064  0.0507  0.0807
 1102loPI   C6A17628   4.315   3.264   6.356  0.1438 -0.0514  0.2815
 1102loPI   C1B17629   5.186   2.490   5.685 -0.1788  0.1408 -0.0808
 1102loPI   C2B17630   4.850   2.723   5.885  0.1835 -0.1793  0.1764
 1102loPI   C3B17631   4.712   2.922   6.210  0.2112 -0.4442 -0.0406
 1102loPI   C4B17632   4.853   3.162   6.658  0.3325  0.2599 -0.0511
 1103loPI    C117633  16.286  14.103   4.540 -0.2368  0.3252 -0.1426
 1103loPI    C217634  16.199  13.790   4.307  0.0240 -0.0620  0.2635
 1103loPI    C317635  16.468  14.060   4.187 -0.2035  0.0142 -0.0905
 1103loPI   PO417636  16.290  13.962   4.816  0.3367  0.1621  0.1062
 1103loPI   GL117637  16.578  13.837   5.143  0.1107 -0.0178  0.0269
 1103loPI   GL217638  16.550  13.441   5.091  0.2202 -0.4051 -0.1082
 1103loPI   C1A17639  16.558  13.630   5.552 -0.2522 -0.0032 -0.0706
 1103loPI   C2A17640  16.682  13.349   5.835 -0.0241  0.3569 -0.2373
 1103loPI   C3A17641  16.858  13.100   6.083 -0.0481 -0.1181  0.0461
 1103loPI   C4A17642  17.236  12.948   6.206 -0.1987 -0.0387 -0.2568
 1103loPI   C5A17643  17.597  13.007   5.933 -0.0661  0.4347  0.2197
 1103loPI   C6A17644  17.578  13.117   5.493 -0.3583  0.3456  0.0680
 1103loPI   C1B17645  16.861  13.302   5.296  0.2467 -0.1685 -0.1633
 1103loPI   C2B17646  17.146  13.297   5.648 -0.0534  0.1331 -0.2254
 1103loPI   C3B17647  17.261  13.417   6.089 -0.2934  0.2799  0.0089
 1103loPI   C4B17648  17.183  13.589   6.579  0.0267  0.1710  0.1163
 1104loPI    C117649   3.593  13.599   4.510 -0.0351  0.0592 -0.0191
 1104loPI    C217650   3.482  13.700   4.139  0.2071  0.1560 -0.0672
 1104loPI    C317651   3.843  13.805   4.275  0.2466 -0.1612  0.0817
 1104loPI   PO417652   3.364  13.519   4.606 -0.4617  0.0313  0.0429
 1104loPI   GL117653   3.249  13.293   4.985  0.1524  0.1107  0.1394
 1104loPI   GL217654   3.294  13.577   5.113  0.3283  0.1899 -0.1971
 1104loPI   C1A17655   3.126  13.232   5.416 -0.1963  0.1726  0.0552
 1104loPI   C2A17656   3.128  13.149   5.914  0.3894  0.0712  0.1274
 1104loPI   C3A17657   3.165  13.248   6.341 -0.1702 -0.0541  0.1489
 1104loPI   C4A17658   3.372  13.277   6.781  0.2610  0.0883 -0.5021
 1104loPI   C5A17659   3.312  13.141   7.173  0.2223 -0.2553  0.0308
 1104loPI   C6A17660   3.024  13.153   7.438 -0.0009  0.0746 -0.2440
 1104loPI   C1B17661   3.309  13.699   5.597  0.0519  0.3108  0.2064
 1104loPI   C2B17662   3.415  13.666   6.009  0.3467 -0.0955 -0.1541
 1104loPI   C3B17663   3.311  13.808   6.486  0.0331 -0.1733 -0.2914
 1104loPI   C4B17664   3.068  13.678   6.919 -0.0378  0.2177  0.1361
 1105loPI    C117665  18.866  13.479   4.131 -0.0558  0.3662  0.0043
 1105loPI    C217666  18.611  13.272   3.904  0.0606 -0.0126  0.2099
 1105loPI    C317667  18.839  13.556   3.739 -0.0637 -0.0816 -0.0891
 1105loPI   PO417668  18.983  13.340   4.216  0.3716 -0.1235 -0.0762
 1105loPI   GL117669  19.006  13.308   4.716 -0.0646  0.2423 -0.0729
 1105loPI   GL217670  18.888  13.005   4.594  0.2297  0.0150 -0.1966
 1105loPI   C1A17671  18.901  13.264   5.062  0.0175  0.0271 -0.0436
 1105loPI   C2A17672  19.006  13.207   5.578 -0.0324  0.2034  0.0863
 1105loPI   C3A17673  19.079  13.204   5.976 -0.3735 -0.0152  0.2012
 1105loPI   C4A17674  19.146  13.134   6.377 -0.1574 -0.1917  0.2304
 1105loPI   C5A17675  19.346  12.905   6.746 -0.0561  0.0846 -0.0945
 1105loPI   C6A17676  19.827  12.802   6.588  0.1514 -0.0371 -0.1376
 1105loPI   C1B17677  18.998  12.685   4.870  0.0772 -0.4357 -0.1786
 1105loPI   C2B17678  19.100  12.735   5.325  0.0661 -0.2943  0.2757
 1105loPI   C3B17679  19.100  12.766   5.749  0.1687 -0.1462  0.1236
 1105loPI   C4B17680  18.943  12.716   6.063  0.2032 -0.1925 -0.2559
 1106loPI    C117681  13.751   6.098   4.975  0.1211  0.0250 -0.2172
 1106loPI    C217682  13.897   5.816   4.732 -0.1083 -0.1731 -0.1297
 1106loPI    C317683  14.080   5.895   5.079 -0.0058 -0.1670 -0.1847
 1106loPI   PO417684  13.481   6.095   4.903  0.0506 -0.0479  0.0312
 1106loPI   GL117685  13.246   5.928   5.296  0.1592 -0.3127 -0.0979
 1106loPI   GL217686  13.515   6.121   5.416  0.1705  0.1089  0.2386
 1106loPI   C1A17687  13.368   5.631   5.628 -0.1698 -0.0828 -0.1548
 1106loPI   C2A17688  13.411   5.294   5.857 -0.3680  0.4983 -0.1517
 1106loPI   C3A17689  13.434   5.075   6.223 -0.1069  0.0883  0.2857
 1106loPI   C4A17690  13.335   4.942   6.518  0.0986  0.1473 -0.3244
 1106loPI   C5A17691  13.227   4.691   6.857 -0.2249  0.1222  0.1273
 1106loPI   C6A17692  13.122   4.419   7.059  0.1398  0.1533  0.0411
 1106loPI   C1B17693  13.895   5.846   5.586  0.0127 -0.3772  0.0359
 1106loPI   C2B17694  13.834   5.626   5.956  0.3299 -0.1165  0.0637
 1106loPI   C3B17695  13.788   5.593   6.356  0.1145 -0.0747  0.0559
 1106loPI   C4B17696  13.702   5.183   6.682 -0.2770  0.0388 -0.0964
 1107loPI    C117697   8.463   6.750   4.746  0.0537  0.0584  0.0030
 1107loPI    C217698   8.508   7.073   4.978  0.1618  0.0892 -0.0601
 1107loPI    C317699   8.614   7.087   4.593 -0.1545  0.0839 -0.1502
 1107loPI   PO417700   8.395   6.607   4.945 -0.0257 -0.0081  0.0150
 1107loPI   GL117701   8.541   6.714   5.308 -0.1088  0.3594 -0.1998
 1107loPI   GL217702   8.907   6.665   5.450 -0.0551  0.3782  0.0290
 1107loPI   C1A17703   8.604   6.879   5.782 -0.0401 -0.0471 -0.1293
 1107loPI   C2A17704   8.733   6.835   6.190  0.3087  0.2527 -0.0853
 1107loPI   C3A17705   8.954   6.939   6.673  0.0511  0.2199  0.1964
 1107loPI   C4A17706   9.170   6.723   6.982  0.0482 -0.0288 -0.0990
 1107loPI   C5A17707   9.501   6.782   7.343 -0.2737 -0.0754  0.0547
 1107loPI   C6A17708   9.691   6.539   7.659  0.0989  0.0183  0.1731
 1107loPI   C1B17709   9.066   6.666   5.834  0.1120  0.1079 -0.0785
 1107loPI   C2B17710   9.322   6.804   6.137  0.0633 -0.0350 -0.1184
 1107loPI   C3B17711   9.458   7.159   6.406  0.2799  0.1509  0.1644
 1107loPI   C4B17712   9.542   7.080   6.881  0.1960  0.0649  0.0055
 1108loPI    C117713  14.463   6.254   4.744  0.2804 -0.1520 -0.1829
 1108loPI    C217714  14.523   6.524   5.034  0.2337 -0.1488 -0.1762
 1108loPI    C317715  14.617   6.140   5.095  0.1862 -0.1551 -0.1423
 1108loPI   PO417716  14.253   6.255   4.718 -0.1232 -0.1546  0.2724
 1108loPI   GL117717  14.042   6.453   5.099 -0.1097  0.2338  0.2025
 1108loPI   GL217718  13.881   6.465   5.408  0.1765 -0.2039  0.0133
 1108loPI   C1A17719  14.283   6.206   5.419  0.2536  0.1295 -0.0732
 1108loPI   C2A17720  14.573   6.211   5.795  0.0249  0.1473 -0.1149
 1108loPI   C3A17721  14.810   5.954   6.003 -0.1672 -0.0876 -0.0071
 1108loPI   C4A17722  14.837   5.525   6.035  0.0327 -0.1676 -0.0980
 1108loPI   C5A17723  14.871   5.356   6.361  0.0975 -0.0124  0.3065
 1108loPI   C6A17724  14.712   5.423   6.855 -0.1080 -0.0619 -0.1318
 1108loPI   C1B17725  13.977   6.341   5.770 -0.0229 -0.2709  0.2209
 1108loPI   C2B17726  14.085   6.125   5.978 -0.1042 -0.0124 -0.0760
 1108loPI   C3B17727  13.963   6.194   6.437 -0.1144  0.2093  0.1979
 1108loPI   C4B17728  13.888   5.911   6.704  0.2572  0.1691  0.0690
 1109loPI    C117729   4.001  14.372   4.274  0.0553  0.1423  0.2074
 1109loPI    C217730   4.200  14.718   4.297  0.1732  0.0976 -0.0919
 1109loPI    C317731   4.087  14.576   3.941 -0.0363 -0.0822  0.0438
 1109loPI   PO417732   4.194  14.134   4.458 -0.0543  0.1170 -0.2365
 1109loPI   GL117733   4.173  14.034   4.956 -0.0969 -0.0704  0.0444
 1109loPI   GL217734   4.426  13.805   4.955 -0.2169 -0.0617  0.0131
 1109loPI   C1A17735   4.007  14.161   5.357  0.2266 -0.2287 -0.2018
 1109loPI   C2A17736   4.142  13.988   5.719  0.3691  0.2031  0.0706
 1109loPI   C3A17737   3.880  13.738   6.017  0.0143  0.2895  0.0029
 1109loPI   C4A17738   3.748  13.546   6.428 -0.0815  0.3841 -0.1974
 1109loPI   C5A17739   3.832  13.608   6.882  0.1473  0.1913  0.3591
 1109loPI   C6A17740   3.562  13.571   7.212  0.0020  0.1417 -0.2121
 1109loPI   C1B17741   4.372  13.762   5.302  0.1733  0.0983  0.1196
 1109loPI   C2B17742   4.342  13.536   5.782  0.2246  0.1444  0.0843
 1109loPI   C3B17743   4.461  13.724   6.152  0.2725 -0.0461  0.1724
 1109loPI   C4B17744   4.557  14.098   6.313 -0.2604  0.1064 -0.0089
 1110loPI    C117745  18.647   9.987   3.805 -0.0871 -0.2407  0.1391
 1110loPI    C217746  18.640  10.063   3.412  0.1153 -0.1396  0.1535
 1110loPI    C317747  18.341   9.859   3.582 -0.0111 -0.1172 -0.0390
 1110loPI   PO417748  18.722  10.160   3.873 -0.1683 -0.0178 -0.3417
 1110loPI   GL117749  18.835  10.085   4.248 -0.3575 -0.1072 -0.0439
 1110loPI   GL217750  19.194  10.081   4.406  0.1978  0.0154 -0.0870
 1110loPI   C1A17751  18.738  10.005   4.697  0.0018  0.2226  0.1397
 1110loPI   C2A17752  18.580  10.071   5.106  0.0995  0.1095  0.1493
 1110loPI   C3A17753  18.679   9.955   5.521  0.3128  0.1034 -0.2732
 1110loPI   C4A17754  18.720   9.878   5.989 -0.2826  0.0117 -0.0715
 1110loPI   C5A17755  18.815   9.924   6.356  0.1596 -0.2737  0.2422
 1110loPI   C6A17756  18.733   9.794   6.814  0.3801  0.2298 -0.0918
 1110loPI   C1B17757  19.252  10.067   4.793  0.0553 -0.2291 -0.4239
 1110loPI   C2B17758  19.095   9.918   5.133 -0.0642 -0.0040  0.1364
 1110loPI   C3B17759  19.200   9.808   5.590  0.3441 -0.0684  0.0745
 1110loPI   C4B17760  19.228   9.759   6.030  0.1225  0.0743  0.1251
 1111loPI    C117761  11.372   2.820   5.087 -0.3016  0.1869  0.1003
 1111loPI    C217762  11.230   2.923   4.727  0.1089 -0.2716 -0.2046
 1111loPI    C317763  11.138   2.567   4.884 -0.0577 -0.0791  0.1451
 1111loPI   PO417764  11.386   3.062   5.188 -0.0773 -0.1184 -0.2702
 1111loPI   GL117765  11.316   3.225   5.479  0.2331 -0.1768  0.1085
 1111loPI   GL217766  11.234   3.441   5.751  0.0089 -0.1577  0.0922
 1111loPI   C1A17767  11.247   2.896   5.814 -0.1489 -0.0531  0.0259
 1111loPI   C2A17768  11.473   2.875   6.184  0.0099 -0.0215  0.1964
 1111loPI   C3A17769  11.619   2.930   6.586  0.1161  0.0822  0.1899
 1111loPI   C4A17770  11.692   3.091   7.054 -0.2460  0.0871  0.0113
 1111loPI   C5A17771  11.656   2.855   7.430  0.1568  0.1294 -0.0707
 1111loPI   C6A17772  11.619   2.555   7.735  0.1869 -0.0596 -0.2908
 1111loPI   C1B17773  11.207   3.315   6.267 -0.2528  0.1514  0.3432
 1111loPI   C2B17774  11.064   3.395   6.649  0.1812 -0.2644  0.0927
 1111loPI   C3B17775  11.053   3.425   7.147 -0.4487  0.1011  0.1341
 1111loPI   C4B17776  11.299   3.181   7.432 -0.0698 -0.3207  0.0670
 1112loPI    C117777   7.593  17.869   5.003 -0.1096  0.1776 -0.4679
 1112loPI    C217778   7.212  17.748   4.991 -0.0315 -0.1813  0.1825
 1112loPI    C317779   7.508  17.481   4.957  0.1632  0.0468  0.0515
 1112loPI   PO417780   7.653  18.101   5.178 -0.0252  0.2298  0.2902
 1112loPI   GL117781   7.723  18.274   5.632 -0.1411  0.0348 -0.1379
 1112loPI   GL217782   7.837  18.517   5.470  0.3564  0.3257 -0.2826
 1112loPI   C1A17783   7.872  18.196   6.150 -0.0159 -0.2740  0.2241
 1112loPI   C2A17784   7.705  18.147   6.540 -0.0648  0.3491  0.0379
 1112loPI   C3A17785   7.473  18.086   6.932 -0.1414 -0.2449  0.0392
 1112loPI   C4A17786   7.226  18.291   7.164 -0.0261 -0.1489 -0.2011
 1112loPI   C5A17787   7.170  18.526   7.529  0.1594  0.0699 -0.0593
 1112loPI   C6A17788   7.118  18.740   7.860  0.0895  0.0035  0.4444
 1112loPI   C1B17789   7.820  18.680   5.870 -0.0552 -0.0734  0.1318
 1112loPI   C2B17790   8.026  18.630   6.359  0.4553  0.0980 -0.1950
 1112loPI   C3B17791   8.038  18.626   6.716  0.0801  0.2402  0.1772
 1112loPI   C4B17792   8.057  18.689   7.110  0.0643  0.1681  0.0558
 1113loPI    C117793  11.949  18.593   5.299  0.0502 -0.0508  0.2208
 1113loPI    C217794  12.240  18.804   5.125 -0.0466 -0.2347 -0.1756
 1113loPI    C317795  11.875  18.962   5.164  0.0861 -0.0236  0.2752
 1113loPI   PO417796  12.004  18.545   5.490  0.0546 -0.4379 -0.0830
 1113loPI   GL117797  11.965  18.649   5.889  0.1314  0.0642 -0.1027
 1113loPI   GL217798  12.316  18.683   5.905 -0.0541  0.2155 -0.1025
 1113loPI   C1A17799  11.810  18.452   6.204  0.3932  0.3234 -0.2641
 1113loPI   C2A17800  11.800  18.328   6.646 -0.0044 -0.3601 -0.0819
 1113loPI   C3A17801  11.491  18.109   6.831  0.1159 -0.0727 -0.1559
 1113loPI   C4A17802  11.442  17.840   7.109 -0.1466  0.3101 -0.0385
 1113loPI   C5A17803  11.255  17.432   7.344 -0.3256  0.1526 -0.0374
 1113loPI   C6A17804  11.209  17.303   7.739 -0.1907 -0.2497 -0.0173
 1113loPI   C1B17805  12.199  19.061   6.096 -0.4148 -0.2668 -0.0926
 1113loPI   C2B17806  12.196  19.289   6.446  0.0651  0.1363 -0.2202
 1113loPI   C3B17807  12.081  19.133   6.827 -0.1422 -0.1620 -0.1082
 1113loPI   C4B17808  11.678  19.043   6.924 -0.2310  0.0937  0.2744
 1114loPI    C117809  16.838  12.498   4.384  0.3582  0.0138  0.1263
 1114loPI    C217810  16.741  12.361   4.021  0.2791 -0.0460  0.1695
 1114loPI    C317811  17.011  12.654   4.059  0.1728  0.0684  0.0526
 1114loPI   PO417812  16.912  12.266   4.552 -0.1364  0.0104  0.1485
 1114loPI   GL117813  17.055  11.914   4.805  0.1053  0.0602 -0.1458
 1114loPI   GL217814  16.858  11.689   4.805 -0.0659 -0.0777  0.0237
 1114loPI   C1A17815  17.366  11.804   5.189 -0.0440  0.1531 -0.0150
 1114loPI   C2A17816  17.455  11.663   5.639  0.1083 -0.0051 -0.1499
 1114loPI   C3A17817  17.301  11.643   6.071  0.0787  0.0031  0.0146
 1114loPI   C4A17818  17.010  11.363   6.192  0.1832  0.0965  0.2092
 1114loPI   C5A17819  16.806  11.086   6.487 -0.1176  0.2550  0.0471
 1114loPI   C6A17820  16.690  10.953   6.948  0.1220 -0.1151  0.3772
 1114loPI   C1B17821  17.248  11.414   4.971  0.3247 -0.0223 -0.1014
 1114loPI   C2B17822  17.388  11.080   5.107 -0.1923  0.2744  0.2421
 1114loPI   C3B17823  17.538  11.147   5.490  0.0291  0.1101 -0.1695
 1114loPI   C4B17824  17.544  11.250   5.945 -0.1929 -0.0137  0.1828
 1115loPI    C117825  11.996   3.831   5.045  0.1425 -0.0884  0.0060
 1115loPI    C217826  11.898   3.549   4.778  0.1216  0.0483 -0.1320
 1115loPI    C317827  12.035   3.904   4.653 -0.0466  0.1737  0.0334
 1115loPI   PO417828  11.860   3.834   5.259 -0.3350  0.0495  0.1645
 1115loPI   GL117829  11.782   3.705   5.671 -0.3032 -0.0700 -0.0428
 1115loPI   GL217830  11.902   4.116   5.664 -0.0983  0.0102  0.0749
 1115loPI   C1A17831  11.472   3.804   5.993 -0.3332 -0.1475  0.2624
 1115loPI   C2A17832  11.482   3.775   6.405  0.0503 -0.2743  0.1016
 1115loPI   C3A17833  11.518   3.599   6.741 -0.3196 -0.0749 -0.2021
 1115loPI   C4A17834  11.451   3.714   7.182 -0.3266  0.2176 -0.1825
 1115loPI   C5A17835  11.661   3.835   7.478  0.0128 -0.4436 -0.0615
 1115loPI   C6A17836  12.148   3.786   7.712  0.1251  0.1919 -0.1476
 1115loPI   C1B17837  11.875   4.114   6.117  0.1704 -0.2071  0.4282
 1115loPI   C2B17838  11.933   3.902   6.477 -0.2742  0.1780  0.1406
 1115loPI   C3B17839  11.943   3.855   6.940 -0.0217 -0.0308  0.0649
 1115loPI   C4B17840  12.078   4.126   7.205  0.0420  0.1774  0.0632
 1116loPI    C117841  13.064   7.419   4.726 -0.1912 -0.2015  0.1544
 1116loPI    C217842  12.831   7.744   4.704  0.0040 -0.0605  0.1507
 1116loPI    C317843  13.071   7.649   4.399  0.1223 -0.0743  0.2470
 1116loPI   PO417844  13.018   7.396   5.031 -0.1919 -0.1943 -0.1010
 1116loPI   GL117845  12.829   7.590   5.298 -0.0972  0.2390  0.1729
 1116loPI   GL217846  12.810   7.885   5.407  0.0000  0.0442 -0.0084
 1116loPI   C1A17847  13.023   7.510   5.724  0.0683 -0.0901 -0.2449
 1116loPI   C2A17848  13.315   7.663   6.003 -0.3777 -0.3383 -0.1611
 1116loPI   C3A17849  13.309   7.419   6.355  0.3390 -0.1001 -0.0247
 1116loPI   C4A17850  13.277   7.224   6.757  0.0084  0.0104 -0.0621
 1116loPI   C5A17851  12.999   7.117   7.043  0.2783 -0.0886  0.0844
 1116loPI   C6A17852  12.535   7.009   7.167 -0.2422  0.1286  0.0627
 1116loPI   C1B17853  12.642   7.964   5.828  0.0357 -0.0609  0.0712
 1116loPI   C2B17854  12.554   8.102   6.339  0.0377  0.2169 -0.3785
 1116loPI   C3B17855  12.717   8.051   6.801  0.0579  0.3900  0.0625
 1116loPI   C4B17856  12.836   7.953   7.201  0.0479 -0.1451 -0.2555
 1117loPI    C117857  15.407  10.983   4.477 -0.0438 -0.2051  0.0025
 1117loPI    C217858  15.296  10.667   4.258 -0.0212 -0.0543 -0.2301
 1117loPI    C317859  15.390  11.012   4.079 -0.1185  0.1088  0.0262
 1117loPI   PO417860  15.379  10.895   4.804  0.0073  0.1551 -0.0930
 1117loPI   GL117861  15.571  10.749   5.194 -0.2341 -0.1767 -0.1105
 1117loPI   GL217862  15.705  11.099   5.208 -0.1004  0.1486  0.1602
 1117loPI   C1A17863  15.763  10.599   5.538 -0.1628  0.1132 -0.1560
 1117loPI   C2A17864  15.862  10.400   5.858  0.0600  0.0058 -0.1186
 1117loPI   C3A17865  15.960  10.356   6.256  0.3435  0.0913  0.0056
 1117loPI   C4A17866  15.949  10.247   6.657 -0.0180 -0.0698 -0.2697
 1117loPI   C5A17867  16.129  10.482   7.004 -0.3234 -0.1157  0.1406
 1117loPI   C6A17868  16.311  10.240   7.461 -0.2604 -0.0195  0.1657
 1117loPI   C1B17869  15.729  11.034   5.631 -0.1269 -0.0331 -0.0257
 1117loPI   C2B17870  15.487  11.205   5.954  0.1147  0.0007 -0.1283
 1117loPI   C3B17871  15.294  11.087   6.353  0.2191  0.1054  0.2907
 1117loPI   C4B17872  15.031  11.114   6.688 -0.2028 -0.0460  0.1398
 1118loPI    C117873   4.383   9.798   4.519  0.2709 -0.2383  0.1650
 1118loPI    C217874   4.545   9.980   4.202 -0.3139 -0.2040 -0.1280
 1118loPI    C317875   4.505   9.582   4.204  0.0263 -0.2411  0.0698
 1118loPI   PO417876   4.280   9.971   4.629  0.2008 -0.0950  0.0114
 1118loPI   GL117877   4.000  10.061   5.025 -0.1024  0.5041  0.0507
 1118loPI   GL217878   4.315   9.773   5.133  0.3743 -0.1067 -0.0983
 1118loPI   C1A17879   4.095  10.205   5.483 -0.2175  0.3863  0.0411
 1118loPI   C2A17880   3.967  10.400   5.849 -0.1080 -0.0883  0.0363
 1118loPI   C3A17881   3.643  10.346   6.121  0.0287 -0.4053  0.1729
 1118loPI   C4A17882   3.641  10.371   6.532 -0.0665  0.0377 -0.3462
 1118loPI   C5A17883   3.589  10.512   6.981  0.1131 -0.1937  0.0022
 1118loPI   C6A17884   3.508  10.832   7.203 -0.3956 -0.0023  0.0441
 1118loPI   C1B17885   4.250   9.750   5.582  0.0092 -0.0020 -0.1385
 1118loPI   C2B17886   4.294   9.582   6.016  0.3847 -0.2065 -0.1717
 1118loPI   C3B17887   4.259   9.179   6.286 -0.0048  0.2886  0.2849
 1118loPI   C4B17888   3.963   8.921   6.387 -0.0966 -0.0058  0.4740
 1119loPI    C117889   2.869  18.522   4.915  0.1474 -0.1493  0.2867
 1119loPI    C217890   3.199  18.587   4.698  0.0051 -0.1147  0.0780
 1119loPI    C317891   2.861  18.468   4.519 -0.0640 -0.2690  0.3057
 1119loPI   PO417892   2.927  18.310   5.038 -0.3358  0.0201  0.3447
 1119loPI   GL117893   3.021  18.143   5.523  0.0548 -0.2072  0.0522
 1119loPI   GL217894   2.699  18.140   5.454 -0.5319  0.0834 -0.4458
 1119loPI   C1A17895   2.920  18.226   5.923  0.0631  0.0384 -0.1113
 1119loPI   C2A17896   2.877  18.292   6.372 -0.1594 -0.1203  0.2829
 1119loPI   C3A17897   2.755  18.137   6.746  0.0939  0.0589  0.2275
 1119loPI   C4A17898   2.812  18.341   7.155 -0.5526 -0.0199  0.1641
 1119loPI   C5A17899   3.191  18.330   7.331 -0.2122 -0.4134 -0.0490
 1119loPI   C6A17900   3.296  18.178   7.729 -0.1310  0.0475 -0.3055
 1119loPI   C1B17901   2.455  18.367   5.782 -0.2207  0.2529 -0.1298
 1119loPI   C2B17902   2.360  18.288   6.167 -0.1152 -0.0789  0.1123
 1119loPI   C3B17903   2.353  18.455   6.597 -0.0015 -0.0887  0.2104
 1119loPI   C4B17904   2.363  18.560   6.993  0.1471  0.0114 -0.1209
 1120loPI    C117905   9.393   8.328   4.609 -0.2329  0.0991  0.0531
 1120loPI    C217906   9.303   8.679   4.438  0.0335  0.1463  0.0063
 1120loPI    C317907   9.408   8.367   4.211 -0.0740  0.0735  0.0561
 1120loPI   PO417908   9.262   8.150   4.874  0.1726  0.0504 -0.1834
 1120loPI   GL117909   9.443   7.787   5.173  0.0586  0.3054  0.1481
 1120loPI   GL217910   9.287   7.577   5.317 -0.1195 -0.0563 -0.1019
 1120loPI   C1A17911   9.324   8.010   5.534  0.0861  0.2392  0.0893
 1120loPI   C2A17912   9.088   8.123   5.920  0.1829  0.2340  0.1295
 1120loPI   C3A17913   9.231   8.146   6.293 -0.0583 -0.2958 -0.2392
 1120loPI   C4A17914   9.211   7.987   6.725 -0.2394  0.3430  0.2025
 1120loPI   C5A17915   9.395   7.642   7.027  0.0896  0.0064 -0.0600
 1120loPI   C6A17916   9.617   7.480   7.255  0.1180 -0.2674  0.0266
 1120loPI   C1B17917   9.037   7.611   5.675  0.2820  0.0407  0.0176
 1120loPI   C2B17918   8.748   7.778   6.110  0.0533 -0.1224  0.0802
 1120loPI   C3B17919   8.759   7.779   6.465 -0.2755  0.0220 -0.0608
 1120loPI   C4B17920   8.524   7.809   6.874 -0.0610 -0.0603  0.1707
 1121loPI    C117921   1.658  17.806   4.781  0.3695 -0.0351  0.0993
 1121loPI    C217922   1.557  17.596   4.456  0.1608 -0.0284  0.1585
 1121loPI    C317923   1.725  17.956   4.416  0.0349  0.0198  0.0571
 1121loPI   PO417924   1.711  17.654   4.959 -0.1460 -0.0342  0.1770
 1121loPI   GL117925   1.898  17.509   5.284  0.2963 -0.1630  0.0540
 1121loPI   GL217926   1.534  17.398   5.342  0.0619  0.2164 -0.0769
 1121loPI   C1A17927   1.792  17.630   5.659  0.3304 -0.0124  0.1132
 1121loPI   C2A17928   1.637  17.658   6.079 -0.1505  0.1241  0.2359
 1121loPI   C3A17929   1.626  18.037   6.370  0.1396 -0.3255  0.3028
 1121loPI   C4A17930   1.795  18.153   6.846 -0.0566  0.2326  0.0070
 1121loPI   C5A17931   1.953  18.358   7.187 -0.2202  0.2324  0.3076
 1121loPI   C6A17932   2.287  18.374   7.454 -0.0173  0.2596 -0.1410
 1121loPI   C1B17933   1.400  17.153   5.754 -0.4021  0.0106 -0.1294
 1121loPI   C2B17934   1.535  16.862   6.085 -0.2923  0.1932 -0.0446
 1121loPI   C3B17935   1.535  17.087   6.522  0.2601  0.1571  0.0510
 1121loPI   C4B17936   1.497  17.155   6.911 -0.8290  0.0336  0.0121
 1122loPI    C117937   3.611  14.625   4.448  0.1725 -0.2721  0.1113
 1122loPI    C217938   3.814  14.969   4.428 -0.2747 -0.0061 -0.0086
 1122loPI    C317939   3.642  14.820   4.100 -0.1661 -0.2971  0.0636
 1122loPI   PO417940   3.597  14.675   4.767 -0.1058  0.0980  0.1600
 1122loPI   GL117941   3.737  14.596   5.172 -0.2501 -0.1709  0.0094
 1122loPI   GL217942   3.346  14.485   5.189  0.2189  0.0790  0.0206
 1122loPI   C1A17943   3.866  14.525   5.558  0.2230 -0.1753 -0.0474
 1122loPI   C2A17944   3.913  14.496   6.002  0.0204 -0.0610  0.2055
 1122loPI   C3A17945   4.074  14.519   6.413  0.0540  0.0416 -0.1723
 1122loPI   C4A17946   4.415  14.415   6.639  0.0811 -0.2400  0.0953
 1122loPI   C5A17947   4.555  13.963   6.803  0.1097  0.2415 -0.2014
 1122loPI   C6A17948   4.657  13.604   6.558  0.0428 -0.2008  0.0910
 1122loPI   C1B17949   3.363  14.732   5.601 -0.1828  0.0188  0.0592
 1122loPI   C2B17950   3.380  14.539   5.969  0.0126 -0.0979 -0.4258
 1122loPI   C3B17951   3.529  14.624   6.405  0.2871 -0.0443  0.1324
 1122loPI   C4B17952   3.632  14.491   6.879 -0.1139  0.0969  0.2143
 1123loPI    C117953   8.317   5.426   4.639 -0.0710  0.0806 -0.3194
 1123loPI    C217954   8.039   5.166   4.517 -0.0253  0.0809 -0.4248
 1123loPI    C317955   8.220   5.406   4.252  0.0670  0.0888 -0.3551
 1123loPI   PO417956   8.228   5.549   4.837  0.0020 -0.0487 -0.0920
 1123loPI   GL117957   8.262   5.787   5.273 -0.0657  0.1295  0.1691
 1123loPI   GL217958   8.429   5.512   5.303 -0.1550 -0.3901 -0.0001
 1123loPI   C1A17959   8.233   5.819   5.661 -0.1729  0.1713 -0.1557
 1123loPI   C2A17960   8.382   5.819   6.034 -0.5220  0.1201  0.2141
 1123loPI   C3A17961   8.432   6.067   6.421  0.0313 -0.0535 -0.2523
 1123loPI   C4A17962   8.325   6.130   6.816  0.5712  0.2147 -0.0261
 1123loPI   C5A17963   7.983   6.151   7.110 -0.0871 -0.1624  0.1061
 1123loPI   C6A17964   7.519   6.012   7.181 -0.1455 -0.1173  0.2292
 1123loPI   C1B17965   8.208   5.370   5.793  0.2328 -0.0745 -0.0143
 1123loPI   C2B17966   7.996   5.389   6.141  0.0322 -0.0139  0.1857
 1123loPI   C3B17967   7.645   5.609   6.352  0.0238 -0.1997  0.0398
 1123loPI   C4B17968   7.246   5.683   6.220  0.0396 -0.1769  0.3134
 1124loPI    C117969   5.377   7.943   4.619  0.3226  0.0335 -0.0516
 1124loPI    C217970   5.217   8.284   4.486 -0.2847 -0.1861  0.0813
 1124loPI    C317971   5.342   8.007   4.226  0.0589  0.0620 -0.0253
 1124loPI   PO417972   5.500   7.975   4.804  0.0083  0.2635  0.2752
 1124loPI   GL117973   5.745   7.879   5.216  0.1476  0.1043  0.3383
 1124loPI   GL217974   5.688   8.147   5.345  0.1130  0.3538  0.1478
 1124loPI   C1A17975   5.685   7.688   5.498 -0.3559 -0.0114 -0.0924
 1124loPI   C2A17976   5.739   7.644   5.948 -0.0068 -0.1687  0.1122
 1124loPI   C3A17977   6.055   7.727   6.296  0.1270  0.1301  0.2962
 1124loPI   C4A17978   6.142   7.911   6.779  0.0983  0.0635  0.1320
 1124loPI   C5A17979   6.433   8.026   7.088 -0.0260  0.0247 -0.6106
 1124loPI   C6A17980   6.792   7.780   7.248 -0.2587  0.2449 -0.1264
 1124loPI   C1B17981   5.586   8.195   5.694 -0.2723  0.0508  0.2189
 1124loPI   C2B17982   5.286   7.997   5.875 -0.0545  0.3065  0.3269
 1124loPI   C3B17983   5.028   8.201   6.171  0.2523  0.0854 -0.3286
 1124loPI   C4B17984   4.684   8.248   6.330  0.0927 -0.3182  0.1135
 1125loPI    C117985   7.179  15.829   4.194 -0.4093 -0.0936 -0.1923
 1125loPI    C217986   7.155  15.484   4.396  0.2266 -0.0224  0.0255
 1125loPI    C317987   7.294  15.487   4.021  0.0049 -0.0271 -0.0582
 1125loPI   PO417988   7.059  15.951   4.453  0.1299  0.0177 -0.2303
 1125loPI   GL117989   7.177  16.161   4.825 -0.2692 -0.5183 -0.0447
 1125loPI   GL217990   6.993  16.206   5.031  0.0057  0.0557  0.0388
 1125loPI   C1A17991   7.400  15.927   5.245  0.0846 -0.0370 -0.2430
 1125loPI   C2A17992   7.660  15.724   5.588  0.0096  0.1343 -0.1914
 1125loPI   C3A17993   7.812  15.753   5.968 -0.0027  0.0598 -0.1550
 1125loPI   C4A17994   7.887  15.999   6.324  0.2732  0.0691  0.0698
 1125loPI   C5A17995   8.151  15.806   6.579 -0.0071 -0.0064 -0.0207
 1125loPI   C6A17996   8.514  15.462   6.710 -0.1042  0.1601  0.4066
 1125loPI   C1B17997   7.194  16.357   5.541  0.0901 -0.3643  0.0683
 1125loPI   C2B17998   7.442  16.150   5.881  0.2317 -0.0724 -0.0012
 1125loPI   C3B17999   7.411  16.063   6.243  0.3120  0.2030 -0.0110
 1125loPI   C4B18000   7.564  16.173   6.670 -0.1263  0.0508 -0.3110
 1126loPI    C118001  13.043  17.710   4.757  0.1606  0.0393 -0.1002
 1126loPI    C218002  13.401  17.887   4.754  0.1981 -0.0358 -0.0728
 1126loPI    C318003  13.322  17.591   4.497  0.1855 -0.0780 -0.0206
 1126loPI   PO418004  13.025  17.629   5.018 -0.2045 -0.2994 -0.0190
 1126loPI   GL118005  12.984  17.549   5.569 -0.3736 -0.0141  0.0905
 1126loPI   GL218006  12.956  17.265   5.694 -0.0804 -0.1898  0.2533
 1126loPI   C1A18007  12.778  17.704   5.839 -0.0993  0.0989 -0.0796
 1126loPI   C2A18008  12.621  17.849   6.209 -0.2405 -0.1463 -0.0199
 1126loPI   C3A18009  12.729  18.192   6.403 -0.0161 -0.4240  0.1844
 1126loPI   C4A18010  12.785  18.444   6.864 -0.0701 -0.2207  0.0035
 1126loPI   C5A18011  12.906  18.639   7.216 -0.1771  0.1705 -0.0722
 1126loPI   C6A18012  12.855  18.883   7.467 -0.1107 -0.1267  0.2905
 1126loPI   C1B18013  13.038  17.312   6.111  0.1347 -0.2853  0.1630
 1126loPI   C2B18014  13.053  17.247   6.627  0.1322 -0.2423  0.0528
 1126loPI   C3B18015  13.135  17.371   7.008  0.1785  0.0708  0.0532
 1126loPI   C4B18016  13.361  17.598   7.431 -0.2658  0.3827  0.1226
 1127loPI    C118017  18.257   7.450   4.088 -0.0160  0.0923  0.0400
 1127loPI    C218018  18.317   7.197   3.784 -0.1484  0.0643  0.0366
 1127loPI    C318019  18.532   7.533   3.811  0.0384 -0.0551  0.0491
 1127loPI   PO418020  18.265   7.245   4.283 -0.3267 -0.0786 -0.0923
 1127loPI   GL118021  18.090   7.337   4.692  0.1759 -0.2809 -0.2535
 1127loPI   GL218022  18.225   7.573   4.649 -0.2859  0.2259  0.1343
 1127loPI   C1A18023  18.222   7.220   5.106 -0.0664 -0.0984  0.0140
 1127loPI   C2A18024  18.358   7.230   5.550  0.0451 -0.0796 -0.1063
 1127loPI   C3A18025  18.429   7.200   6.021 -0.1558 -0.1608 -0.0705
 1127loPI   C4A18026  18.421   7.174   6.417  0.1078  0.3824  0.0102
 1127loPI   C5A18027  18.322   7.272   6.942  0.0057  0.0977 -0.2018
 1127loPI   C6A18028  18.176   7.675   6.978  0.0033 -0.1670  0.1394
 1127loPI   C1B18029  18.174   7.743   5.092 -0.0674 -0.1051 -0.4974
 1127loPI   C2B18030  18.236   7.695   5.529 -0.0535 -0.1891  0.0573
 1127loPI   C3B18031  18.196   7.640   5.901  0.1668  0.1255 -0.1242
 1127loPI   C4B18032  18.318   7.684   6.358  0.3903  0.1528 -0.0431
 1128loPI    C118033   6.468  17.494   5.060 -0.1136  0.2992 -0.0534
 1128loPI    C218034   6.270  17.678   5.355 -0.1569  0.2904 -0.0769
 1128loPI    C318035   6.106  17.649   4.991 -0.3154 -0.1233  0.0219
 1128loPI   PO418036   6.528  17.299   5.164  0.0974  0.2137 -0.3292
 1128loPI   GL118037   6.645  17.212   5.527  0.1297 -0.0357 -0.1330
 1128loPI   GL218038   6.987  17.338   5.503 -0.3313 -0.1374 -0.2103
 1128loPI   C1A18039   6.621  17.394   5.831 -0.0171 -0.1113  0.2273
 1128loPI   C2A18040   6.967  17.679   5.975  0.1545  0.1345 -0.0508
 1128loPI   C3A18041   7.179  17.575   6.343 -0.2728  0.1346  0.2293
 1128loPI   C4A18042   7.068  17.568   6.770 -0.0978 -0.2279 -0.1583
 1128loPI   C5A18043   6.860  17.484   7.177  0.1478 -0.1417 -0.1311
 1128loPI   C6A18044   6.823  17.026   7.228 -0.0299  0.1835  0.1968
 1128loPI   C1B18045   7.197  17.706   5.480 -0.0511 -0.0104 -0.0254
 1128loPI   C2B18046   7.207  18.098   5.751 -0.1254 -0.2674  0.1925
 1128loPI   C3B18047   7.269  18.080   6.206 -0.0172 -0.2660 -0.1696
 1128loPI   C4B18048   7.116  18.000   6.612  0.0371  0.2211  0.0641
 1129loPI    C118049   7.265   9.438   4.354 -0.0315  0.1263 -0.0735
 1129loPI    C218050   6.889   9.386   4.229 -0.0530  0.3024 -0.0851
 1129loPI    C318051   7.193   9.335   3.974 -0.0620  0.0652 -0.0513
 1129loPI   PO418052   7.228   9.523   4.569 -0.2272 -0.0639  0.0398
 1129loPI   GL118053   7.283   9.764   4.867 -0.4726 -0.0349 -0.2182
 1129loPI   GL218054   7.221   9.532   5.132 -0.6140 -0.0839 -0.0411
 1129loPI   C1A18055   7.291   9.943   5.354 -0.0683 -0.0526 -0.3276
 1129loPI   C2A18056   7.387   9.840   5.766  0.0328 -0.4743  0.0472
 1129loPI   C3A18057   7.278   9.793   6.181 -0.3910 -0.2079 -0.0333
 1129loPI   C4A18058   7.159   9.779   6.617 -0.3591  0.0864 -0.4197
 1129loPI   C5A18059   7.233   9.629   7.047 -0.3720  0.1426 -0.1291
 1129loPI   C6A18060   7.306   9.598   7.488 -0.2343  0.3471 -0.0473
 1129loPI   C1B18061   7.464   9.153   5.418 -0.0313  0.0709 -0.0650
 1129loPI   C2B18062   7.423   8.917   5.840 -0.0953  0.1597 -0.1236
 1129loPI   C3B18063   7.596   8.882   6.300  0.2357 -0.4055 -0.1268
 1129loPI   C4B18064   7.538   8.856   6.710 -0.1731  0.2121 -0.1609
 1130loPI    C118065  10.400  19.311   4.945 -0.1460  0.0436 -0.0032
 1130loPI    C218066  10.618  19.270   4.612 -0.1233  0.0736  0.0079
 1130loPI    C318067  10.221  19.311   4.587 -0.1526 -0.1977 -0.0015
 1130loPI   PO418068  10.445  19.147   5.053 -0.0918  0.2065 -0.2098
 1130loPI   GL118069  10.614  18.796   5.362 -0.1956  0.0356 -0.2891
 1130loPI   GL218070  10.588  18.545   5.293  0.0075 -0.0299  0.0409
 1130loPI   C1A18071  10.529  18.588   5.836 -0.2467  0.0215  0.0671
 1130loPI   C2A18072  10.350  18.376   6.154  0.1454 -0.0046  0.1947
 1130loPI   C3A18073  10.138  18.127   6.609 -0.2664  0.0469  0.1529
 1130loPI   C4A18074  10.038  17.923   6.999 -0.1314 -0.0342  0.2229
 1130loPI   C5A18075   9.942  17.435   7.041  0.0749 -0.0871 -0.0503
 1130loPI   C6A18076  10.046  17.017   6.856  0.2686  0.2392 -0.1697
 1130loPI   C1B18077  10.577  18.171   5.493 -0.1700  0.1197  0.1905
 1130loPI   C2B18078  10.388  18.023   5.763  0.1305 -0.0061 -0.0581
 1130loPI   C3B18079  10.036  18.028   6.122  0.1829  0.2001  0.1379
 1130loPI   C4B18080   9.701  18.228   6.312  0.2976  0.0312 -0.2779
 1131loPI    C118081  18.745   1.576   4.705  0.1988 -0.2564  0.1754
 1131loPI    C218082  18.546   1.345   4.446 -0.0319  0.2324 -0.0971
 1131loPI    C318083  18.946   1.343   4.450 -0.0306 -0.1143 -0.1415
 1131loPI   PO418084  18.583   1.580   4.943  0.0066 -0.3515 -0.3627
 1131loPI   GL118085  18.615   1.672   5.406  0.0545  0.0680  0.1741
 1131loPI   GL218086  18.772   1.923   5.563  0.1078 -0.1158  0.1858
 1131loPI   C1A18087  18.474   1.634   5.821 -0.1159  0.0982  0.1885
 1131loPI   C2A18088  18.758   1.520   6.189  0.0008 -0.1023  0.1547
 1131loPI   C3A18089  19.072   1.622   6.535  0.0497 -0.0872  0.0124
 1131loPI   C4A18090  18.876   1.623   7.057 -0.0553 -0.1578 -0.2345
 1131loPI   C5A18091  18.679   1.368   7.510 -0.0487  0.0582 -0.0468
 1131loPI   C6A18092  18.383   1.203   7.849 -0.0779 -0.1833  0.0136
 1131loPI   C1B18093  18.732   1.984   5.972 -0.0954 -0.1766  0.5416
 1131loPI   C2B18094  18.740   2.055   6.388 -0.4000  0.2489  0.0237
 1131loPI   C3B18095  18.766   2.210   6.811  0.1808  0.2342  0.0511
 1131loPI   C4B18096  18.726   2.305   7.220 -0.2764 -0.2237 -0.1572
 1132loPI    C118097  13.177   2.270   4.261  0.0208 -0.1492 -0.2471
 1132loPI    C218098  13.363   2.600   4.134 -0.1030  0.0260  0.0183
 1132loPI    C318099  13.001   2.507   3.991 -0.1115  0.0599  0.0177
 1132loPI   PO418100  13.276   2.382   4.607  0.0083  0.0898 -0.2278
 1132loPI   GL118101  13.410   2.112   4.955 -0.0998  0.2112  0.0258
 1132loPI   GL218102  13.198   2.298   5.131 -0.2091  0.0623 -0.1582
 1132loPI   C1A18103  13.535   2.110   5.450 -0.1938  0.2511  0.1994
 1132loPI   C2A18104  13.722   2.096   5.911 -0.0132 -0.2738 -0.0828
 1132loPI   C3A18105  13.744   1.828   6.300 -0.1208 -0.1409  0.1655
 1132loPI   C4A18106  13.671   1.607   6.504 -0.0837  0.0844  0.0867
 1132loPI   C5A18107  13.550   1.224   6.795  0.2620 -0.1142 -0.0617
 1132loPI   C6A18108  13.630   0.936   7.126 -0.2430  0.0741 -0.0231
 1132loPI   C1B18109  13.410   2.637   5.471 -0.0296  0.1236  0.1267
 1132loPI   C2B18110  13.390   2.605   5.864 -0.1390 -0.0319  0.0348
 1132loPI   C3B18111  13.428   2.345   6.266  0.0934 -0.1876  0.0434
 1132loPI   C4B18112  13.262   2.004   6.486  0.0888 -0.1888 -0.0016
 1133loPI    C118113   3.582   5.003   4.711 -0.3721  0.0380  0.1614
 1133loPI    C218114   3.300   5.015   4.428 -0.2047  0.2241 -0.0011
 1133loPI    C318115   3.679   4.934   4.329 -0.1330  0.3572  0.1604
 1133loPI   PO418116   3.499   4.880   4.878  0.2047  0.1119 -0.0337
 1133loPI   GL118117   3.332   4.864   5.245 -0.1638  0.2057 -0.1525
 1133loPI   GL218118   3.157   5.091   5.426 -0.3918  0.0767 -0.3120
 1133loPI   C1A18119   3.257   4.711   5.783 -0.0426 -0.0225  0.0625
 1133loPI   C2A18120   3.362   4.953   6.123 -0.1348 -0.3418  0.0051
 1133loPI   C3A18121   3.605   4.754   6.495 -0.2485 -0.1125  0.1485
 1133loPI   C4A18122   3.399   4.435   6.660 -0.1878  0.2182 -0.2432
 1133loPI   C5A18123   3.365   4.036   6.860 -0.1088  0.1104  0.1308
 1133loPI   C6A18124   3.742   3.810   6.978  0.2813  0.3032  0.2929
 1133loPI   C1B18125   3.099   5.333   5.821  0.0240 -0.0287 -0.0102
 1133loPI   C2B18126   3.231   5.471   6.237  0.2173 -0.3914 -0.0607
 1133loPI   C3B18127   3.458   5.756   6.628  0.1048  0.4680 -0.1687
 1133loPI   C4B18128   3.536   5.827   6.988 -0.2911  0.0891 -0.0887
 1134loPI    C118129  14.635  15.560   4.428 -0.0603 -0.1556  0.0988
 1134loPI    C218130  14.822  15.257   4.246  0.0241  0.1088 -0.2664
 1134loPI    C318131  14.435  15.328   4.170 -0.1042 -0.1426  0.1211
 1134loPI   PO418132  14.653  15.548   4.730  0.0496 -0.0027 -0.0053
 1134loPI   GL118133  14.458  15.605   5.135  0.1719 -0.1155 -0.0928
 1134loPI   GL218134  14.118  15.660   5.064 -0.0780  0.1583 -0.1884
 1134loPI   C1A18135  14.381  15.379   5.486  0.0657  0.1396 -0.1981
 1134loPI   C2A18136  14.557  15.362   5.944  0.1368  0.1273 -0.2004
 1134loPI   C3A18137  14.466  15.702   6.293  0.0685  0.0586  0.3509
 1134loPI   C4A18138  14.579  15.677   6.725  0.2952 -0.0356  0.1692
 1134loPI   C5A18139  14.957  15.722   6.976 -0.3304  0.2243 -0.1905
 1134loPI   C6A18140  15.396  15.684   7.004  0.0145 -0.2354  0.1962
 1134loPI   C1B18141  13.969  15.727   5.432 -0.2451 -0.0382 -0.1490
 1134loPI   C2B18142  14.051  15.593   5.816  0.4421  0.1452 -0.4545
 1134loPI   C3B18143  14.112  15.305   6.099 -0.1142  0.1641  0.0135
 1134loPI   C4B18144  14.407  15.238   6.456  0.1503 -0.0282  0.0506
 1135loPI    C118145   6.840   8.989   4.657 -0.1317 -0.1239 -0.0414
 1135loPI    C218146   7.067   8.899   4.340 -0.0545  0.0475 -0.0362
 1135loPI    C318147   6.670   8.927   4.300 -0.0500  0.0141 -0.1051
 1135loPI   PO418148   6.908   9.186   4.783 -0.1727  0.0943  0.0084
 1135loPI   GL118149   6.889   9.178   5.294  0.0461  0.2854 -0.1199
 1135loPI   GL218150   6.663   9.074   5.218 -0.1491 -0.3103  0.2034
 1135loPI   C1A18151   7.089   9.261   5.723 -0.1631  0.0726  0.3587
 1135loPI   C2A18152   7.215   9.263   6.141 -0.0137 -0.0910 -0.2904
 1135loPI   C3A18153   7.251   9.268   6.615  0.1292  0.1837 -0.1795
 1135loPI   C4A18154   7.286   9.157   7.128  0.0831  0.1995  0.2972
 1135loPI   C5A18155   7.038   9.104   7.507 -0.0050 -0.0349  0.4454
 1135loPI   C6A18156   7.073   9.315   7.912  0.0478  0.1906  0.0097
 1135loPI   C1B18157   6.552   9.240   5.635 -0.0215 -0.2308  0.1377
 1135loPI   C2B18158   6.614   9.266   6.059  0.0272  0.2497  0.0931
 1135loPI   C3B18159   6.602   9.354   6.457  0.0505  0.2686  0.2847
 1135loPI   C4B18160   6.813   9.498   6.738  0.1576 -0.1009 -0.1420
 1136loPI    C118161   7.153   3.510   4.617  0.1242  0.2875  0.0068
 1136loPI    C218162   7.469   3.370   4.417 -0.0670  0.3128 -0.3207
 1136loPI    C318163   7.100   3.277   4.296 -0.1990 -0.3812  0.5218
 1136loPI   PO418164   7.161   3.458   4.835 -0.0123  0.2008  0.5868
 1136loPI   GL118165   7.124   3.602   5.196  0.0232  0.2434  0.1491
 1136loPI   GL218166   7.049   3.883   5.307  0.0604 -0.0577  0.1188
 1136loPI   C1A18167   7.191   3.622   5.740  0.1311  0.1747 -0.4021
 1136loPI   C2A18168   6.999   3.285   5.970 -0.0609 -0.0375 -0.1308
 1136loPI   C3A18169   6.860   2.956   6.185 -0.0917  0.1512 -0.1365
 1136loPI   C4A18170   7.055   2.755   6.504 -0.3143 -0.1206 -0.0927
 1136loPI   C5A18171   7.015   2.839   6.970 -0.0973  0.1281 -0.0513
 1136loPI   C6A18172   7.208   2.979   7.369  0.0005  0.1477 -0.2901
 1136loPI   C1B18173   6.612   4.094   5.508 -0.0730  0.3089 -0.1637
 1136loPI   C2B18174   6.456   4.069   5.903  0.0235 -0.0147 -0.0125
 1136loPI   C3B18175   6.437   4.112   6.357  0.1683  0.3676 -0.1896
 1136loPI   C4B18176   6.509   4.404   6.653  0.1563 -0.4550 -0.0877
 1137loPI    C118177   2.627   4.971   4.682  0.0804 -0.0382  0.0379
 1137loPI    C218178   2.976   4.843   4.831  0.0078 -0.3126 -0.0230
 1137loPI    C318179   2.876   4.757   4.453 -0.0541 -0.0942 -0.0574
 1137loPI   PO418180   2.598   5.161   4.908  0.2010  0.0692  0.0393
 1137loPI   GL118181   2.662   5.429   5.313 -0.1728 -0.1207  0.1945
 1137loPI   GL218182   2.411   5.284   5.365  0.1035 -0.2179  0.0340
 1137loPI   C1A18183   2.648   5.607   5.689  0.0172  0.1292  0.2945
 1137loPI   C2A18184   2.716   5.579   6.097 -0.2529  0.4325  0.3493
 1137loPI   C3A18185   2.662   5.669   6.448  0.2337  0.4090 -0.2596
 1137loPI   C4A18186   2.561   5.467   6.860  0.0641 -0.3586 -0.1132
 1137loPI   C5A18187   2.785   5.415   7.270  0.0491  0.0010 -0.4281
 1137loPI   C6A18188   2.553   5.110   7.461  0.0934  0.0247 -0.0389
 1137loPI   C1B18189   2.294   5.283   5.778  0.2696  0.2787  0.3079
 1137loPI   C2B18190   2.253   5.353   6.157 -0.0475 -0.1205  0.0498
 1137loPI   C3B18191   2.171   5.220   6.595 -0.1208 -0.1124 -0.2403
 1137loPI   C4B18192   2.168   5.080   7.079  0.0571 -0.0386  0.1970
 1138loPI    C118193  16.459   1.797   4.589 -0.1297 -0.1185  0.2649
 1138loPI    C218194  16.136   1.644   4.410  0.1723 -0.1705 -0.2550
 1138loPI    C318195  16.258   2.015   4.321  0.0621 -0.0201  0.1988
 1138loPI   PO418196  16.432   1.778   4.812  0.1739  0.1479  0.0459
 1138loPI   GL118197  16.590   1.880   5.211 -0.2173  0.1391  0.1169
 1138loPI   GL218198  16.645   2.077   5.440 -0.1378 -0.2493  0.5348
 1138loPI   C1A18199  16.665   1.506   5.500 -0.0952  0.4153 -0.0960
 1138loPI   C2A18200  16.737   1.238   5.884 -0.0767  0.1459 -0.0853
 1138loPI   C3A18201  16.755   1.085   6.290 -0.3691  0.2377 -0.2587
 1138loPI   C4A18202  16.897   1.181   6.638 -0.1946 -0.0943  0.2109
 1138loPI   C5A18203  16.901   1.046   7.063 -0.3547  0.0507 -0.0110
 1138loPI   C6A18204  16.967   0.886   7.503  0.1492 -0.2861 -0.1157
 1138loPI   C1B18205  16.299   1.933   5.780 -0.1456 -0.0662  0.1236
 1138loPI   C2B18206  16.074   2.167   6.113 -0.0372 -0.1535 -0.0235
 1138loPI   C3B18207  15.955   2.233   6.511  0.0910 -0.0755 -0.0501
 1138loPI   C4B18208  15.688   2.117   6.845  0.0366 -0.3527 -0.1542
 1139loPI    C118209  14.188  17.459   4.616 -0.0624  0.2138 -0.0479
 1139loPI    C218210  14.110  17.392   4.229 -0.0084  0.1325 -0.0450
 1139loPI    C318211  13.869  17.629   4.443 -0.0828  0.1151 -0.1088
 1139loPI   PO418212  14.265  17.297   4.777 -0.1826 -0.2148 -0.0253
 1139loPI   GL118213  14.156  17.174   5.234 -0.0179  0.1440  0.3484
 1139loPI   GL218214  14.471  17.039   5.187 -0.0979 -0.1799 -0.1393
 1139loPI   C1A18215  14.219  17.011   5.722  0.0341  0.0733  0.3165
 1139loPI   C2A18216  14.432  17.054   6.122  0.0029  0.3672  0.3448
 1139loPI   C3A18217  14.342  17.187   6.533 -0.1055  0.1407 -0.2883
 1139loPI   C4A18218  14.275  17.232   7.010 -0.2478 -0.1792  0.0876
 1139loPI   C5A18219  14.171  17.210   7.396  0.2935 -0.3311 -0.0686
 1139loPI   C6A18220  14.352  17.208   7.784  0.1068  0.3614 -0.0664
 1139loPI   C1B18221  14.570  17.251   5.535 -0.1642 -0.0798  0.0766
 1139loPI   C2B18222  14.823  17.367   5.727 -0.0864 -0.0267 -0.1649
 1139loPI   C3B18223  15.056  17.656   5.735  0.0647 -0.1238  0.0015
 1139loPI   C4B18224  15.274  17.815   6.050  0.2640  0.0544 -0.2268
 1140loPI    C118225   5.063   8.356   4.942 -0.1139  0.1109  0.2451
 1140loPI    C218226   5.009   8.709   4.761  0.1707  0.0832  0.1013
 1140loPI    C318227   4.750   8.410   4.699 -0.1343  0.2979  0.3112
 1140loPI   PO418228   5.347   8.438   5.103 -0.0707 -0.0082  0.1708
 1140loPI   GL118229   5.629   8.726   5.305  0.3431 -0.0350  0.0905
 1140loPI   GL218230   5.579   9.050   5.334 -0.0472 -0.3384 -0.0853
 1140loPI   C1A18231   5.847   8.623   5.629 -0.3896  0.2025  0.0761
 1140loPI   C2A18232   5.993   8.620   6.022 -0.1902 -0.0155 -0.7315
 1140loPI   C3A18233   5.859   8.549   6.412 -0.1329  0.2042  0.3255
 1140loPI   C4A18234   5.773   8.206   6.627  0.0013 -0.2809 -0.0570
 1140loPI   C5A18235   5.587   8.151   7.030  0.2067 -0.2538 -0.2520
 1140loPI   C6A18236   5.327   8.277   7.369 -0.0232 -0.3211 -0.0200
 1140loPI   C1B18237   5.591   9.094   5.840  0.0559 -0.0247  0.1705
 1140loPI   C2B18238   5.570   8.968   6.214 -0.3379 -0.0195  0.0241
 1140loPI   C3B18239   5.606   8.887   6.709 -0.1083 -0.1377 -0.2094
 1140loPI   C4B18240   5.769   8.662   7.020 -0.1027 -0.0566 -0.2215
 1141loPI    C118241  16.036  12.928   4.310  0.0216 -0.0492 -0.0254
 1141loPI    C218242  16.201  12.565   4.274 -0.0252 -0.0739  0.0077
 1141loPI    C318243  16.126  12.785   3.948  0.2071 -0.0018  0.0012
 1141loPI   PO418244  16.063  12.963   4.618  0.0927 -0.0263  0.0414
 1141loPI   GL118245  16.113  12.742   5.086 -0.0683  0.0934 -0.0506
 1141loPI   GL218246  15.904  12.958   5.164  0.0283 -0.1057  0.3600
 1141loPI   C1A18247  16.239  12.547   5.399  0.0140 -0.0904 -0.3229
 1141loPI   C2A18248  16.412  12.392   5.785  0.0093 -0.1208 -0.0384
 1141loPI   C3A18249  16.494  12.208   6.162 -0.2279 -0.0828  0.2108
 1141loPI   C4A18250  16.847  12.037   6.328 -0.0827  0.0584  0.1868
 1141loPI   C5A18251  16.968  11.941   6.699  0.1202 -0.2717 -0.1297
 1141loPI   C6A18252  16.967  12.195   7.011  0.0705  0.0703  0.1189
 1141loPI   C1B18253  16.217  13.170   5.414  0.0211 -0.1461  0.0606
 1141loPI   C2B18254  16.204  13.232   5.772  0.0998 -0.2070 -0.0807
 1141loPI   C3B18255  16.325  13.281   6.199 -0.1060  0.1021 -0.0789
 1141loPI   C4B18256  16.428  13.468   6.654  0.2461 -0.0292  0.0470
 1142loPI    C118257  14.884   4.091   4.369 -0.0546  0.0279  0.0552
 1142loPI    C218258  14.514   4.155   4.506 -0.0585 -0.0975  0.1041
 1142loPI    C318259  14.593   4.197   4.116 -0.1456 -0.1614  0.0792
 1142loPI   PO418260  14.968   4.074   4.699  0.0956  0.0818 -0.1542
 1142loPI   GL118261  14.929   3.850   5.206 -0.0025  0.0315 -0.0544
 1142loPI   GL218262  14.864   3.465   5.310  0.0975 -0.0207 -0.2137
 1142loPI   C1A18263  15.075   3.894   5.642  0.1251  0.1287  0.0205
 1142loPI   C2A18264  15.033   4.072   6.057 -0.2950  0.2531 -0.2165
 1142loPI   C3A18265  15.116   3.985   6.389 -0.3886  0.1279 -0.1235
 1142loPI   C4A18266  15.263   3.769   6.725 -0.1389 -0.2246  0.2542
 1142loPI   C5A18267  15.277   3.477   6.993 -0.0379  0.1958  0.2287
 1142loPI   C6A18268  15.503   3.336   7.379  0.0284  0.0743 -0.3527
 1142loPI   C1B18269  14.654   3.589   5.630  0.1253  0.4220 -0.2719
 1142loPI   C2B18270  14.761   3.649   6.101  0.2128  0.1423  0.2286
 1142loPI   C3B18271  14.716   3.719   6.549 -0.0867 -0.0662  0.0120
 1142loPI   C4B18272  14.750   3.643   6.957  0.3583 -0.2946 -0.2695
 1143loPI    C118273   4.039   5.442   4.651  0.0348  0.0092  0.0085
 1143loPI    C218274   4.094   5.723   4.371  0.0018  0.0888  0.0816
 1143loPI    C318275   4.405   5.511   4.505  0.0138  0.0335 -0.0327
 1143loPI   PO418276   3.880   5.563   4.838 -0.1685  0.2490  0.2501
 1143loPI   GL118277   3.606   5.343   5.044 -0.1504  0.2038  0.0056
 1143loPI   GL218278   3.908   5.235   5.206  0.0186  0.1485  0.0855
 1143loPI   C1A18279   3.502   5.445   5.498  0.1595 -0.0686  0.1113
 1143loPI   C2A18280   3.541   5.605   5.871 -0.1188  0.2397  0.0737
 1143loPI   C3A18281   3.605   5.873   6.228 -0.0499  0.2228  0.1174
 1143loPI   C4A18282   3.788   6.061   6.491 -0.2499  0.0194  0.0241
 1143loPI   C5A18283   4.008   5.949   6.852 -0.4609 -0.1257 -0.2373
 1143loPI   C6A18284   4.116   5.767   7.204 -0.0070 -0.2784  0.0408
 1143loPI   C1B18285   3.982   5.416   5.548  0.0569 -0.0517 -0.1132
 1143loPI   C2B18286   4.032   5.605   5.932 -0.2145 -0.0623  0.0267
 1143loPI   C3B18287   4.076   5.649   6.403 -0.1198  0.1382  0.3607
 1143loPI   C4B18288   4.323   5.587   6.741  0.0734  0.2019 -0.0962
 1144loPI    C118289   7.841  11.913   4.342  0.0538 -0.1594  0.1326
 1144loPI    C218290   7.479  11.870   4.177  0.1576  0.0991 -0.1736
 1144loPI    C318291   7.678  11.549   4.309 -0.1432 -0.0545 -0.0842
 1144loPI   PO418292   7.797  12.158   4.541 -0.1660 -0.0614  0.2046
 1144loPI   GL118293   7.985  12.340   4.956 -0.1830 -0.2376 -0.0847
 1144loPI   GL218294   7.635  12.440   4.989 -0.0535  0.3237  0.2615
 1144loPI   C1A18295   8.078  12.414   5.419  0.6649 -0.0001  0.0917
 1144loPI   C2A18296   7.678  12.502   5.725 -0.2493 -0.2208  0.0188
 1144loPI   C3A18297   7.535  12.703   6.152  0.0552 -0.1937  0.2232
 1144loPI   C4A18298   7.468  12.930   6.563 -0.2216 -0.1954 -0.1594
 1144loPI   C5A18299   7.285  13.230   6.867  0.0999 -0.0145  0.0756
 1144loPI   C6A18300   6.917  13.185   6.999  0.0877 -0.0361  0.1457
 1144loPI   C1B18301   7.423  12.622   5.349 -0.2472  0.1774  0.1119
 1144loPI   C2B18302   7.346  12.885   5.648 -0.1953 -0.0160  0.1204
 1144loPI   C3B18303   7.259  13.104   6.089  0.2296  0.3142 -0.1399
 1144loPI   C4B18304   6.980  13.091   6.458 -0.2205 -0.1510 -0.2650
 1145loPI    C118305  16.718  10.286   4.160  0.0031 -0.0692  0.0902
 1145loPI    C218306  17.102  10.351   4.069  0.0218 -0.0312  0.1947
 1145loPI    C318307  16.867  10.153   3.813  0.1092 -0.0488  0.1274
 1145loPI   PO418308  16.687  10.159   4.321 -0.1227 -0.1123 -0.0085
 1145loPI   GL118309  16.765   9.891   4.674 -0.0186  0.3568  0.0347
 1145loPI   GL218310  16.479   9.980   4.714  0.2319 -0.2245  0.3189
 1145loPI   C1A18311  16.897   9.827   5.033 -0.0659  0.1914  0.0158
 1145loPI   C2A18312  16.947   9.576   5.346 -0.0219  0.1699 -0.0846
 1145loPI   C3A18313  16.979   9.494   5.807 -0.0325 -0.3600 -0.2176
 1145loPI   C4A18314  17.054   9.570   6.206 -0.0601  0.2326  0.0356
 1145loPI   C5A18315  17.159   9.713   6.634 -0.1372 -0.1788  0.1195
 1145loPI   C6A18316  16.936   9.638   7.101 -0.1481 -0.0549  0.2541
 1145loPI   C1B18317  16.475  10.200   5.018 -0.3308  0.1124  0.0013
 1145loPI   C2B18318  16.715  10.193   5.383 -0.0228 -0.1009  0.0520
 1145loPI   C3B18319  16.824  10.456   5.743  0.2606  0.0840 -0.0098
 1145loPI   C4B18320  16.757  10.568   6.210 -0.0732  0.2173  0.3875
 1146loPI    C118321   9.219   3.334   4.850 -0.0197  0.0557 -0.1388
 1146loPI    C218322   9.504   3.528   4.648  0.1333 -0.0352 -0.0125
 1146loPI    C318323   9.226   3.320   4.450  0.0421  0.2068 -0.1437
 1146loPI   PO418324   9.181   3.509   5.079 -0.0526 -0.0669  0.1489
 1146loPI   GL118325   8.927   3.419   5.418 -0.1616  0.0548 -0.0445
 1146loPI   GL218326   8.645   3.478   5.521 -0.0843  0.4959 -0.1784
 1146loPI   C1A18327   8.858   3.255   5.908 -0.0785 -0.3484 -0.3243
 1146loPI   C2A18328   8.969   3.239   6.328  0.2121  0.0883  0.1849
 1146loPI   C3A18329   8.967   3.094   6.684 -0.1545 -0.1947  0.1995
 1146loPI   C4A18330   8.856   2.906   7.136  0.0205 -0.1708 -0.2037
 1146loPI   C5A18331   8.535   3.007   7.412 -0.0989  0.2764  0.1661
 1146loPI   C6A18332   8.139   3.121   7.734  0.4222  0.0554  0.0190
 1146loPI   C1B18333   8.729   3.766   5.937 -0.2589  0.0527  0.0428
 1146loPI   C2B18334   8.594   3.838   6.273  0.1404  0.0758 -0.1038
 1146loPI   C3B18335   8.792   4.024   6.702 -0.2160  0.1967  0.2932
 1146loPI   C4B18336   8.769   4.118   7.190 -0.2692 -0.1826 -0.0620
 1147loPI    C118337   2.487  16.793   4.609 -0.0977 -0.1369 -0.2352
 1147loPI    C218338   2.857  16.943   4.582 -0.0370 -0.1719  0.2943
 1147loPI    C318339   2.768  16.596   4.404  0.1920 -0.1780  0.1887
 1147loPI   PO418340   2.444  16.861   4.993 -0.1911 -0.1493 -0.1582
 1147loPI   GL118341   2.401  16.925   5.420  0.1247  0.0283 -0.1155
 1147loPI   GL218342   2.411  17.315   5.345  0.1382 -0.0298  0.1603
 1147loPI   C1A18343   2.560  16.885   5.857  0.0610 -0.1696  0.1145
 1147loPI   C2A18344   3.055  16.951   5.957 -0.0163 -0.0701 -0.0396
 1147loPI   C3A18345   3.277  16.840   6.287 -0.2616 -0.0245 -0.1450
 1147loPI   C4A18346   3.348  16.475   6.694  0.4296 -0.1215 -0.0750
 1147loPI   C5A18347   3.209  16.396   7.151  0.0040 -0.3776  0.1414
 1147loPI   C6A18348   3.010  16.393   7.549  0.1577 -0.0306  0.0824
 1147loPI   C1B18349   2.392  17.418   5.850 -0.0315 -0.1656 -0.2523
 1147loPI   C2B18350   2.452  17.377   6.342  0.0113 -0.0230  0.0708
 1147loPI   C3B18351   2.377  17.488   6.834  0.0345 -0.1791  0.1990
 1147loPI   C4B18352   2.240  17.440   7.225  0.0785 -0.0517  0.0325
 1148loPI    C118353  17.687   2.138   4.982 -0.1571  0.2776  0.0872
 1148loPI    C218354  18.067   2.231   4.898 -0.1162  0.0424  0.0039
 1148loPI    C318355  17.797   2.207   4.603 -0.0883 -0.2658  0.0005
 1148loPI   PO418356  17.682   2.166   5.288 -0.0598  0.2184  0.0120
 1148loPI   GL118357  17.980   2.150   5.577  0.1115 -0.0257  0.1099
 1148loPI   GL218358  18.252   2.064   5.667 -0.0957 -0.1553  0.3442
 1148loPI   C1A18359  17.939   2.437   5.898  0.1759  0.3725  0.2834
 1148loPI   C2A18360  17.930   2.324   6.302  0.0920  0.0072  0.0467
 1148loPI   C3A18361  18.073   2.231   6.607 -0.0075  0.3452 -0.2661
 1148loPI   C4A18362  18.283   2.344   6.902 -0.0045 -0.1714 -0.3909
 1148loPI   C5A18363  18.277   2.473   7.343 -0.0145  0.0226  0.1419
 1148loPI   C6A18364  18.077   2.560   7.694  0.1010 -0.0663 -0.0626
 1148loPI   C1B18365  18.393   2.304   6.021 -0.0343 -0.2882  0.1806
 1148loPI   C2B18366  18.401   2.557   6.388  0.2493  0.1598 -0.2159
 1148loPI   C3B18367  18.480   2.766   6.757  0.3112  0.0696  0.0673
 1148loPI   C4B18368  18.711   2.929   7.114  0.1613  0.2332  0.1245
 1149loPI    C118369   5.802   7.590   4.481  0.0575 -0.1958 -0.0608
 1149loPI    C218370   5.809   7.267   4.245 -0.0409 -0.1662 -0.1047
 1149loPI    C318371   5.570   7.575   4.155  0.1027 -0.0524 -0.1007
 1149loPI   PO418372   6.067   7.524   4.645  0.0452 -0.1279  0.0374
 1149loPI   GL118373   6.102   7.506   5.085 -0.1323  0.1065  0.0211
 1149loPI   GL218374   6.356   7.752   4.959 -0.2704 -0.1959 -0.1614
 1149loPI   C1A18375   6.230   7.706   5.434 -0.1154 -0.1906 -0.1728
 1149loPI   C2A18376   6.194   7.600   5.861  0.1200  0.2186 -0.0330
 1149loPI   C3A18377   6.417   7.386   6.050  0.3636 -0.1444 -0.1233
 1149loPI   C4A18378   6.402   7.452   6.464 -0.1183 -0.1538 -0.1774
 1149loPI   C5A18379   6.690   7.482   6.787  0.0446 -0.0243  0.1025
 1149loPI   C6A18380   7.120   7.728   6.810  0.2818 -0.0363  0.2860
 1149loPI   C1B18381   6.706   7.750   5.346  0.0910  0.2226 -0.1720
 1149loPI   C2B18382   7.025   7.982   5.632  0.1040  0.0308 -0.2325
 1149loPI   C3B18383   7.037   8.022   6.013  0.1660  0.1236  0.3622
 1149loPI   C4B18384   7.180   8.045   6.362 -0.2954  0.0581  0.0615
 1150loPI    C118385  13.063   9.947   4.513 -0.0498  0.1134 -0.1452
 1150loPI    C218386  13.438   9.977   4.378  0.0739 -0.0958  0.1415
 1150loPI    C318387  13.147  10.193   4.208  0.2846 -0.0871 -0.2200
 1150loPI   PO418388  13.060  10.035   4.689 -0.1819 -0.0162  0.0434
 1150loPI   GL118389  13.117  10.167   5.083  0.3209 -0.0958 -0.0658
 1150loPI   GL218390  13.364  10.085   5.212 -0.2674 -0.2251 -0.2619
 1150loPI   C1A18391  12.892   9.850   5.309  0.1138 -0.0301  0.2315
 1150loPI   C2A18392  12.910   9.752   5.763 -0.1883 -0.0489 -0.0565
 1150loPI   C3A18393  12.975   9.748   6.125 -0.0265 -0.3667 -0.0712
 1150loPI   C4A18394  12.950   9.814   6.514 -0.2875  0.0712 -0.0795
 1150loPI   C5A18395  12.529   9.552   6.780  0.1026  0.3398  0.0183
 1150loPI   C6A18396  12.464   9.161   6.589 -0.2946  0.1218  0.1726
 1150loPI   C1B18397  13.185  10.211   5.692  0.3473 -0.0653  0.3635
 1150loPI   C2B18398  13.078  10.269   6.062  0.0146  0.4066 -0.3937
 1150loPI   C3B18399  13.089  10.318   6.499  0.0693  0.2422 -0.0676
 1150loPI   C4B18400  13.154  10.103   6.876  0.1121 -0.0095 -0.0178
 1151loPI    C118401   9.019  18.534   4.981 -0.1556 -0.0688  0.1682
 1151loPI    C218402   9.212  18.592   5.326  0.0439  0.1503  0.0233
 1151loPI    C318403   9.408  18.444   5.011 -0.1851 -0.2387  0.0571
 1151loPI   PO418404   8.684  18.323   4.985 -0.0981 -0.1514  0.1974
 1151loPI   GL118405   8.696  17.978   5.331 -0.0825 -0.2259  0.2699
 1151loPI   GL218406   8.857  18.254   5.432 -0.2391  0.0533 -0.2111
 1151loPI   C1A18407   8.766  17.857   5.816 -0.2921 -0.0909 -0.0477
 1151loPI   C2A18408   8.706  17.867   6.281 -0.2756  0.1568 -0.2954
 1151loPI   C3A18409   8.586  17.738   6.691 -0.0377  0.1206  0.3795
 1151loPI   C4A18410   8.472  17.854   7.062  0.1607  0.0176  0.1705
 1151loPI   C5A18411   8.196  17.863   7.367  0.1897  0.0389  0.3353
 1151loPI   C6A18412   8.003  17.574   7.662 -0.2511  0.2310  0.0812
 1151loPI   C1B18413   8.511  18.282   5.653 -0.0235  0.2260 -0.1207
 1151loPI   C2B18414   8.394  18.183   6.118 -0.0977 -0.1217 -0.1031
 1151loPI   C3B18415   8.331  18.188   6.616  0.0878 -0.2621 -0.2664
 1151loPI   C4B18416   8.117  18.203   7.004 -0.1771  0.2715  0.3001
 1152loPI    C118417  14.993   3.046   4.551 -0.0666  0.1565 -0.0339
 1152loPI    C218418  15.380   3.030   4.651 -0.0622  0.2530 -0.0344
 1152loPI    C318419  15.274   3.066   4.267 -0.0670  0.4177 -0.0183
 1152loPI   PO418420  14.952   2.964   4.823 -0.2263 -0.1678 -0.1449
 1152loPI   GL118421  14.830   2.981   5.180  0.0040  0.1135 -0.1275
 1152loPI   GL218422  14.820   2.668   5.232 -0.1587 -0.0611 -0.1172
 1152loPI   C1A18423  14.924   2.944   5.677  0.0975 -0.0043 -0.1479
 1152loPI   C2A18424  14.846   3.120   6.068 -0.3140  0.3501  0.3665
 1152loPI   C3A18425  14.734   2.954   6.492  0.0319 -0.2726 -0.1003
 1152loPI   C4A18426  14.653   2.743   6.874  0.3299 -0.3072  0.0840
 1152loPI   C5A18427  14.592   2.550   7.234 -0.3070  0.1577 -0.2607
 1152loPI   C6A18428  14.356   2.559   7.475  0.3049  0.0716 -0.0091
 1152loPI   C1B18429  14.741   2.396   5.636 -0.0749  0.1674  0.0777
 1152loPI   C2B18430  14.760   2.095   6.085 -0.1256  0.3006  0.1578
 1152loPI   C3B18431  15.018   2.011   6.415 -0.0988  0.1095  0.0843
 1152loPI   C4B18432  15.083   2.137   6.848  0.1684 -0.3492 -0.0283
 1153loPI    C118433  14.414   1.626   4.862  0.0649 -0.0645 -0.1479
 1153loPI    C218434  14.664   1.472   4.591  0.3521  0.0282  0.0602
 1153loPI    C318435  14.719   1.396   4.980 -0.0958 -0.1580  0.0924
 1153loPI   PO418436  14.371   1.814   4.890 -0.3473 -0.0900 -0.1460
 1153loPI   GL118437  14.389   2.018   5.174 -0.0917 -0.1233  0.2602
 1153loPI   GL218438  14.481   1.710   5.359  0.1624  0.0497  0.0067
 1153loPI   C1A18439  14.234   2.191   5.595  0.2089  0.0626  0.3219
 1153loPI   C2A18440  14.241   2.301   6.028  0.1784 -0.0140  0.1539
 1153loPI   C3A18441  14.208   2.040   6.439 -0.1999  0.1217 -0.3864
 1153loPI   C4A18442  13.923   1.999   6.725 -0.0523 -0.1972  0.0324
 1153loPI   C5A18443  13.622   1.753   6.986  0.6046 -0.0039  0.0984
 1153loPI   C6A18444  13.517   1.467   7.272 -0.1035  0.2035 -0.0059
 1153loPI   C1B18445  14.589   1.845   5.707  0.1720  0.1663 -0.0763
 1153loPI   C2B18446  14.592   1.683   6.247 -0.0235 -0.2804  0.3316
 1153loPI   C3B18447  14.557   1.823   6.691  0.0147 -0.0413 -0.2430
 1153loPI   C4B18448  14.615   1.978   7.118 -0.2135 -0.0940 -0.0397
 1154loPI    C118449  16.425  12.120   4.393  0.1154  0.1016 -0.2765
 1154loPI    C218450  16.056  12.118   4.239  0.0829  0.0494 -0.1982
 1154loPI    C318451  16.319  11.835   4.133 -0.0361 -0.1672  0.0722
 1154loPI   PO418452  16.417  12.116   4.596  0.0866  0.0887  0.4494
 1154loPI   GL118453  16.448  12.277   5.072 -0.2508  0.1037  0.3135
 1154loPI   GL218454  16.690  12.190   4.977  0.0785  0.2694 -0.0146
 1154loPI   C1A18455  16.316  12.042   5.404  0.1998 -0.1962  0.2250
 1154loPI   C2A18456  16.345  11.837   5.848 -0.0795  0.0426 -0.1243
 1154loPI   C3A18457  16.447  11.691   6.163  0.1755  0.0309 -0.1345
 1154loPI   C4A18458  16.688  11.617   6.453  0.1656  0.2731 -0.0603
 1154loPI   C5A18459  17.025  11.452   6.753  0.0177  0.0746  0.1874
 1154loPI   C6A18460  17.229  11.104   6.814 -0.0664 -0.0315 -0.0876
 1154loPI   C1B18461  16.788  11.953   5.300 -0.0807 -0.0323  0.3724
 1154loPI   C2B18462  16.954  11.543   5.362  0.0450 -0.3476  0.0618
 1154loPI   C3B18463  17.086  11.250   5.718 -0.0355  0.2298  0.2702
 1154loPI   C4B18464  17.222  10.860   5.783 -0.0211  0.3321  0.0028
 1155loPI    C118465   1.115   7.204   4.309 -0.1055 -0.0383 -0.2957
 1155loPI    C218466   1.368   7.047   4.041  0.0625 -0.4483  0.0894
 1155loPI    C318467   0.980   6.950   4.031 -0.0261 -0.0835 -0.2936
 1155loPI   PO418468   1.308   7.394   4.411  0.1224 -0.0988  0.1906
 1155loPI   GL118469   1.378   7.568   4.759 -0.2308 -0.1106 -0.2861
 1155loPI   GL218470   1.085   7.628   4.886 -0.1759 -0.2001 -0.0427
 1155loPI   C1A18471   1.594   7.742   5.159  0.2152  0.0299 -0.3072
 1155loPI   C2A18472   1.492   7.680   5.589 -0.2059  0.0311 -0.2455
 1155loPI   C3A18473   1.558   7.805   6.024 -0.1880 -0.0612  0.1156
 1155loPI   C4A18474   1.687   7.799   6.493  0.1083 -0.4258  0.2575
 1155loPI   C5A18475   1.712   7.739   6.946  0.0108  0.0073  0.0205
 1155loPI   C6A18476   1.775   7.587   7.304  0.3098  0.2608  0.2288
 1155loPI   C1B18477   1.109   7.864   5.264  0.1456 -0.3093  0.1420
 1155loPI   C2B18478   1.078   7.921   5.707 -0.2155 -0.0843 -0.1126
 1155loPI   C3B18479   1.057   7.957   6.127  0.0787 -0.2992 -0.0315
 1155loPI   C4B18480   1.150   7.918   6.482 -0.0278 -0.2868  0.0892
 1156loPI    C118481   4.916  17.312   4.329 -0.1478 -0.0972 -0.0530
 1156loPI    C218482   5.008  17.571   4.038 -0.1695  0.0727  0.0894
 1156loPI    C318483   5.180  17.209   4.047 -0.1335  0.0841 -0.1068
 1156loPI   PO418484   4.873  17.498   4.566  0.0362  0.0055  0.0959
 1156loPI   GL118485   4.768  17.584   5.019 -0.1037 -0.1500 -0.2121
 1156loPI   GL218486   4.803  17.825   5.163 -0.5115  0.0249  0.2211
 1156loPI   C1A18487   5.036  17.368   5.293 -0.0748  0.2628 -0.3659
 1156loPI   C2A18488   5.419  17.397   5.556 -0.3598 -0.0618  0.2172
 1156loPI   C3A18489   5.679  17.425   5.992 -0.0138  0.2067 -0.1647
 1156loPI   C4A18490   5.881  17.545   6.368 -0.1116  0.0968 -0.2057
 1156loPI   C5A18491   6.333  17.608   6.617 -0.3194 -0.1111  0.2718
 1156loPI   C6A18492   6.549  17.427   6.831 -0.3833 -0.2436 -0.0606
 1156loPI   C1B18493   5.303  17.790   5.349 -0.1705  0.1235 -0.2444
 1156loPI   C2B18494   5.431  17.944   5.742  0.1972 -0.0881 -0.2203
 1156loPI   C3B18495   5.558  18.029   6.123 -0.0593 -0.1081  0.0902
 1156loPI   C4B18496   5.601  18.207   6.388  0.0300 -0.0270  0.0316
 1157loPI    C118497   1.736   5.837   4.557  0.1575 -0.0896 -0.0582
 1157loPI    C218498   1.580   5.740   4.201 -0.2617  0.0888  0.0713
 1157loPI    C318499   1.376   5.664   4.537  0.0350  0.1198  0.2624
 1157loPI   PO418500   1.911   5.754   4.634 -0.2177 -0.0037  0.2069
 1157loPI   GL118501   1.977   5.979   5.065  0.0558 -0.1109 -0.0677
 1157loPI   GL218502   1.773   5.800   5.125  0.2847 -0.0736 -0.2101
 1157loPI   C1A18503   1.709   6.274   5.119 -0.0066 -0.0374 -0.0028
 1157loPI   C2A18504   1.469   6.311   5.477 -0.5321 -0.0520 -0.0140
 1157loPI   C3A18505   1.423   6.411   5.857  0.1418 -0.0380  0.0253
 1157loPI   C4A18506   1.578   6.370   6.248  0.1658 -0.1291  0.2268
 1157loPI   C5A18507   1.463   6.410   6.740 -0.1642 -0.1523  0.2136
 1157loPI   C6A18508   1.291   6.200   7.125  0.2091  0.2672 -0.0028
 1157loPI   C1B18509   1.664   5.854   5.593 -0.0661 -0.1196 -0.2193
 1157loPI   C2B18510   1.471   5.934   6.049  0.0184  0.1279  0.3268
 1157loPI   C3B18511   1.521   5.933   6.466  0.1418  0.1819  0.0418
 1157loPI   C4B18512   1.472   5.812   6.925  0.0295 -0.2954 -0.0727
 1158loPI    C118513   5.443  14.986   4.583 -0.0180  0.0280  0.1004
 1158loPI    C218514   5.564  14.991   4.202 -0.0537 -0.1152  0.0867
 1158loPI    C318515   5.204  14.844   4.296 -0.0761 -0.0103  0.1673
 1158loPI   PO418516   5.689  15.050   4.748 -0.1243 -0.0140 -0.1280
 1158loPI   GL118517   5.924  15.089   5.132 -0.0028 -0.1342 -0.1523
 1158loPI   GL218518   6.201  14.993   5.274 -0.0494 -0.0811  0.2004
 1158loPI   C1A18519   5.709  14.969   5.530  0.4235  0.1160 -0.2161
 1158loPI   C2A18520   5.685  14.976   5.971 -0.0797 -0.0190  0.1371
 1158loPI   C3A18521   5.897  15.210   6.407  0.3230 -0.1607 -0.2043
 1158loPI   C4A18522   6.134  15.319   6.779  0.1658  0.1125 -0.1717
 1158loPI   C5A18523   6.439  15.655   6.999  0.0743  0.0742  0.2443
 1158loPI   C6A18524   6.693  16.057   6.894 -0.2189  0.1867  0.1654
 1158loPI   C1B18525   6.437  15.094   5.559 -0.1879  0.0472 -0.0360
 1158loPI   C2B18526   6.710  14.959   5.937 -0.0604  0.0063  0.0981
 1158loPI   C3B18527   6.823  14.845   6.345 -0.0438 -0.3552  0.0293
 1158loPI   C4B18528   6.993  14.925   6.768 -0.0691  0.0820 -0.1890
 1159loPI    C118529   9.932   7.623   4.646  0.0745  0.3079 -0.0477
 1159loPI    C218530   9.800   7.275   4.500  0.2172  0.1157  0.2714
 1159loPI    C318531  10.118   7.453   4.335  0.0076  0.2134 -0.0362
 1159loPI   PO418532  10.061   7.590   4.861  0.0189  0.0081  0.1450
 1159loPI   GL118533  10.063   7.685   5.245  0.2979 -0.0505  0.0201
 1159loPI   GL218534  10.208   7.720   5.557  0.1995  0.0077  0.3162
 1159loPI   C1A18535   9.685   7.640   5.649  0.2502  0.0389  0.0289
 1159loPI   C2A18536   9.478   7.780   6.035 -0.0550  0.1070 -0.1419
 1159loPI   C3A18537   9.246   7.563   6.269 -0.5437  0.0585 -0.1632
 1159loPI   C4A18538   9.085   7.501   6.685  0.1773 -0.1125 -0.2967
 1159loPI   C5A18539   8.914   7.737   7.107 -0.0886  0.0641  0.3183
 1159loPI   C6A18540   8.615   7.640   7.401  0.1453  0.1893  0.0131
 1159loPI   C1B18541  10.077   7.715   5.956  0.0202 -0.1200 -0.1658
 1159loPI   C2B18542  10.099   7.748   6.385  0.1898  0.0670 -0.2416
 1159loPI   C3B18543  10.439   7.920   6.568  0.1892 -0.1350  0.0597
 1159loPI   C4B18544  10.802   8.046   6.871 -0.1053 -0.6159 -0.0975
 1160loPI    C118545   7.835   8.844   4.488  0.1054  0.0841  0.1432
 1160loPI    C218546   8.230   8.802   4.447  0.0786  0.0575 -0.1018
 1160loPI    C318547   7.982   8.629   4.185 -0.1028 -0.0852  0.1596
 1160loPI   PO418548   7.834   8.778   4.755  0.0468 -0.0148 -0.0506
 1160loPI   GL118549   8.071   8.480   4.965  0.1574  0.0761 -0.3432
 1160loPI   GL218550   7.880   8.626   5.180 -0.5579  0.2214  0.1346
 1160loPI   C1A18551   8.361   8.779   5.179 -0.1899 -0.0079 -0.1713
 1160loPI   C2A18552   8.476   8.992   5.648 -0.1336 -0.0483 -0.3106
 1160loPI   C3A18553   8.614   9.246   5.918  0.0596  0.0049  0.0786
 1160loPI   C4A18554   8.829   9.417   6.293  0.2950 -0.0233  0.0170
 1160loPI   C5A18555   8.784   9.522   6.703  0.2754  0.3396 -0.0951
 1160loPI   C6A18556   9.089   9.390   7.056 -0.1559  0.0832  0.1357
 1160loPI   C1B18557   7.737   8.606   5.594 -0.2376 -0.0071 -0.0931
 1160loPI   C2B18558   7.840   8.579   6.039  0.2187 -0.1577 -0.0951
 1160loPI   C3B18559   7.682   8.382   6.419  0.0941  0.0854 -0.0357
 1160loPI   C4B18560   7.477   8.148   6.746  0.3803 -0.0500  0.0724
 1161loPI    C118561   8.833   9.442   4.428 -0.1651 -0.1531  0.0625
 1161loPI    C218562   8.587   9.679   4.220 -0.0453 -0.1353 -0.0603
 1161loPI    C318563   8.967   9.632   4.102  0.0340 -0.0963  0.1755
 1161loPI   PO418564   8.774   9.621   4.677 -0.0833  0.0366  0.0181
 1161loPI   GL118565   8.776   9.814   5.014  0.0608  0.0809  0.1759
 1161loPI   GL218566   9.112   9.776   4.949 -0.0250  0.0614 -0.1756
 1161loPI   C1A18567   8.777   9.923   5.459 -0.1683  0.1050 -0.2817
 1161loPI   C2A18568   8.444   9.905   5.741 -0.0462  0.1577 -0.1172
 1161loPI   C3A18569   8.389   9.843   6.149  0.2358  0.2593  0.0235
 1161loPI   C4A18570   8.486   9.889   6.514 -0.2162  0.1500 -0.2592
 1161loPI   C5A18571   8.725   9.903   6.975  0.1582  0.0753  0.0116
 1161loPI   C6A18572   8.790   9.655   7.352  0.2521 -0.0682  0.4648
 1161loPI   C1B18573   9.211   9.576   5.352  0.1570  0.2927  0.3348
 1161loPI   C2B18574   9.418   9.361   5.652  0.1583 -0.0653  0.1847
 1161loPI   C3B18575   9.409   9.331   6.146 -0.2337 -0.0072 -0.0398
 1161loPI   C4B18576   9.252   9.423   6.518  0.0648  0.2362 -0.0531
 1162loPI    C118577  17.494   8.596   3.928 -0.0924 -0.0214 -0.0120
 1162loPI    C218578  17.375   8.226   3.834 -0.0295 -0.0106 -0.1375
 1162loPI    C318579  17.610   8.430   3.583  0.0546  0.0600 -0.0029
 1162loPI   PO418580  17.580   8.580   4.194  0.1910 -0.0783  0.1690
 1162loPI   GL118581  17.566   8.691   4.563  0.0976 -0.2347 -0.0323
 1162loPI   GL218582  17.586   8.446   4.723 -0.3953  0.4086  0.1444
 1162loPI   C1A18583  17.556   8.881   4.996 -0.0196  0.1162 -0.3165
 1162loPI   C2A18584  17.518   8.908   5.351 -0.1676  0.0034  0.0085
 1162loPI   C3A18585  17.660   8.840   5.663  0.4793  0.2542 -0.0362
 1162loPI   C4A18586  17.538   8.843   6.115  0.1323 -0.1353 -0.0807
 1162loPI   C5A18587  17.456   8.729   6.574 -0.4658 -0.0249  0.0737
 1162loPI   C6A18588  17.226   8.468   6.778 -0.3600  0.0120 -0.1574
 1162loPI   C1B18589  17.669   8.380   5.093 -0.2164  0.0110  0.1464
 1162loPI   C2B18590  17.618   8.354   5.566 -0.2302 -0.0947 -0.1937
 1162loPI   C3B18591  17.686   8.371   6.066  0.0062  0.1560  0.1478
 1162loPI   C4B18592  17.573   8.260   6.428 -0.1611  0.2772 -0.3362
 1163loPI    C118593  10.932  17.067   4.724  0.1738 -0.1886 -0.0742
 1163loPI    C218594  11.026  16.982   4.345 -0.1342 -0.2068 -0.1488
 1163loPI    C318595  10.842  17.326   4.433 -0.0068 -0.1742 -0.0069
 1163loPI   PO418596  10.711  16.894   4.826 -0.1406  0.1882  0.0593
 1163loPI   GL118597  10.543  16.743   5.193 -0.0153 -0.1541 -0.1823
 1163loPI   GL218598  10.757  16.481   5.267  0.0714 -0.2478  0.3192
 1163loPI   C1A18599  10.469  16.718   5.637 -0.0438  0.1728  0.1830
 1163loPI   C2A18600  10.353  16.568   6.070  0.1332  0.1430  0.1089
 1163loPI   C3A18601  10.566  16.278   6.255  0.2394 -0.1524 -0.0385
 1163loPI   C4A18602  10.781  16.274   6.647 -0.1570  0.0370 -0.1617
 1163loPI   C5A18603  10.971  16.404   7.024 -0.0028  0.2624  0.0471
 1163loPI   C6A18604  11.230  16.416   7.395 -0.1245  0.1577 -0.0168
 1163loPI   C1B18605  10.565  16.199   5.521  0.0154 -0.1987 -0.2392
 1163loPI   C2B18606  10.396  15.997   5.875  0.2409 -0.1754  0.0706
 1163loPI   C3B18607  10.242  15.751   6.251 -0.1991 -0.2841 -0.0214
 1163loPI   C4B18608  10.093  15.589   6.610 -0.1882  0.0656  0.1398
 1164loPI    C118609  18.040   6.722   4.352  0.0195  0.0391 -0.1063
 1164loPI    C218610  17.794   7.033   4.304  0.1622  0.1549 -0.0960
 1164loPI    C318611  17.967   6.865   3.985  0.0685  0.0712 -0.1036
 1164loPI   PO418612  18.260   6.792   4.493  0.0647 -0.0366 -0.0989
 1164loPI   GL118613  18.491   6.780   4.883 -0.1869  0.0542  0.1770
 1164loPI   GL218614  18.865   6.891   4.982  0.0787 -0.1854  0.0232
 1164loPI   C1A18615  18.458   6.714   5.295 -0.0144 -0.3133 -0.2047
 1164loPI   C2A18616  18.501   6.703   5.698  0.1783  0.0553  0.0992
 1164loPI   C3A18617  18.460   6.734   6.184  0.3269 -0.0017 -0.2880
 1164loPI   C4A18618  18.457   6.623   6.598 -0.1097  0.1279  0.2252
 1164loPI   C5A18619  18.712   6.631   6.950 -0.0478 -0.1332  0.0541
 1164loPI   C6A18620  19.061   6.704   7.278  0.1952  0.0007 -0.0214
 1164loPI   C1B18621  18.874   6.973   5.418 -0.0289 -0.2822 -0.2534
 1164loPI   C2B18622  18.874   7.065   5.798 -0.2311 -0.1254  0.1515
 1164loPI   C3B18623  18.925   7.019   6.204 -0.0765 -0.1609  0.1552
 1164loPI   C4B18624  18.883   6.911   6.591  0.2232 -0.1154  0.0469
 1165loPI    C118625  17.768   7.598   4.121 -0.0325 -0.1844 -0.0368
 1165loPI    C218626  17.458   7.754   3.922 -0.0212  0.0583  0.1318
 1165loPI    C318627  17.461   7.365   4.014 -0.2567  0.0459  0.0934
 1165loPI   PO418628  17.840   7.797   4.313  0.2558 -0.0361  0.0525
 1165loPI   GL118629  17.749   7.946   4.722 -0.3136  0.0284  0.1763
 1165loPI   GL218630  18.034   8.045   4.713 -0.0108 -0.0403  0.0977
 1165loPI   C1A18631  17.598   7.667   5.138 -0.1317 -0.1516  0.4109
 1165loPI   C2A18632  17.696   7.806   5.548 -0.1139 -0.0719  0.1866
 1165loPI   C3A18633  17.769   7.890   5.895  0.1533  0.0830  0.3180
 1165loPI   C4A18634  17.820   7.834   6.323 -0.1916 -0.1171 -0.1529
 1165loPI   C5A18635  17.879   7.959   6.738  0.1336 -0.1698 -0.1004
 1165loPI   C6A18636  17.668   8.183   6.952  0.3205  0.0422  0.0549
 1165loPI   C1B18637  18.162   8.224   5.148  0.0230  0.0894  0.0766
 1165loPI   C2B18638  18.131   8.184   5.560 -0.1794  0.3668  0.1008
 1165loPI   C3B18639  18.148   8.155   6.037 -0.1017 -0.1277  0.2077
 1165loPI   C4B18640  18.193   8.182   6.480 -0.0016  0.1483  0.0799
 1166loPI    C118641   9.979  15.405   4.630  0.1264 -0.2816  0.1467
 1166loPI    C218642  10.361  15.371   4.517  0.0598 -0.1266 -0.1349
 1166loPI    C318643  10.084  15.126   4.364  0.0450 -0.2423  0.0728
 1166loPI   PO418644   9.936  15.498   4.900 -0.2518  0.0808  0.2682
 1166loPI   GL118645  10.000  15.634   5.346 -0.0880 -0.2276  0.1919
 1166loPI   GL218646   9.690  15.565   5.382 -0.1493 -0.1001  0.2682
 1166loPI   C1A18647  10.169  15.517   5.630 -0.2501  0.2509  0.1252
 1166loPI   C2A18648  10.473  15.357   6.026 -0.0592 -0.3502  0.1403
 1166loPI   C3A18649  10.476  15.307   6.392  0.2283 -0.2069 -0.0130
 1166loPI   C4A18650  10.361  15.058   6.730 -0.0774 -0.0488 -0.1200
 1166loPI   C5A18651  10.208  15.029   7.078  0.1287  0.1087  0.0228
 1166loPI   C6A18652  10.197  14.803   7.374 -0.0506 -0.1146 -0.1853
 1166loPI   C1B18653   9.380  15.641   5.706  0.1290  0.3359 -0.1611
 1166loPI   C2B18654   9.166  15.578   6.144  0.0577  0.3121  0.0212
 1166loPI   C3B18655   8.907  15.593   6.468 -0.1998  0.2553 -0.0509
 1166loPI   C4B18656   8.920  15.683   6.917 -0.1909 -0.1561 -0.2286
 1167loPI    C118657   8.955   1.034   4.682  0.0373  0.0461  0.0191
 1167loPI    C218658   9.191   0.992   4.362  0.0708 -0.0089  0.0510
 1167loPI    C318659   9.139   1.353   4.527  0.1351  0.0029  0.0458
 1167loPI   PO418660   9.033   0.830   4.884 -0.1698  0.0738  0.3115
 1167loPI   GL118661   9.213   0.646   5.369  0.2528 -0.5046  0.2089
 1167loPI   GL218662   9.067   0.897   5.350 -0.4767 -0.0349  0.0502
 1167loPI   C1A18663   9.232   0.765   5.903  0.0615  0.2135 -0.1957
 1167loPI   C2A18664   8.853   0.769   6.260 -0.0293  0.0420  0.0465
 1167loPI   C3A18665   8.664   0.547   6.652  0.1819 -0.2494 -0.1184
 1167loPI   C4A18666   8.677   0.381   7.082  0.1095 -0.0473 -0.2164
 1167loPI   C5A18667   9.028   0.278   7.317  0.3347 -0.1985  0.0712
 1167loPI   C6A18668   9.193   0.424   7.718  0.0717 -0.2825  0.2384
 1167loPI   C1B18669   9.098   1.214   5.681 -0.0450  0.0008  0.2660
 1167loPI   C2B18670   9.204   1.243   6.082 -0.4177  0.1731  0.2599
 1167loPI   C3B18671   8.929   1.233   6.406  0.1744 -0.0512  0.0830
 1167loPI   C4B18672   8.854   1.295   6.850  0.2741  0.1775 -0.1737
 1168loPI    C118673   0.509   8.328   4.243 -0.1373 -0.1327 -0.0551
 1168loPI    C218674   0.748   8.639   4.165 -0.2180 -0.0367  0.0770
 1168loPI    C318675   0.591   8.427   3.864  0.0766 -0.1349 -0.0110
 1168loPI   PO418676   0.654   8.161   4.453  0.0289 -0.0847 -0.3025
 1168loPI   GL118677   0.772   8.022   4.857 -0.0803 -0.2454 -0.0550
 1168loPI   GL218678   0.506   7.839   4.840 -0.0585  0.0554 -0.0061
 1168loPI   C1A18679   0.653   8.069   5.299  0.4550  0.1628 -0.0431
 1168loPI   C2A18680   0.616   8.130   5.710  0.1147 -0.1658 -0.0010
 1168loPI   C3A18681   0.558   8.152   6.161 -0.0870 -0.0676  0.0116
 1168loPI   C4A18682   0.624   8.067   6.688 -0.0442  0.1354  0.0096
 1168loPI   C5A18683   1.018   7.959   6.987 -0.3688  0.1333  0.3716
 1168loPI   C6A18684   1.254   7.755   7.298 -0.0674 -0.3358 -0.0926
 1168loPI   C1B18685   0.267   7.801   5.262  0.1615  0.2676 -0.0061
 1168loPI   C2B18686   0.133   7.759   5.637 -0.0066  0.1723  0.1700
 1168loPI   C3B18687   0.185   7.701   6.117 -0.0689  0.0859  0.0306
 1168loPI   C4B18688   0.182   7.752   6.548 -0.1898 -0.1493  0.2275
 1169loPI    C118689   0.651   7.321   4.365  0.1502 -0.0535  0.0282
 1169loPI    C218690   0.599   7.685   4.208  0.1737 -0.0646 -0.0052
 1169loPI    C318691   0.745   7.389   3.982  0.0858 -0.1134  0.0015
 1169loPI   PO418692   0.676   7.423   4.618 -0.0117 -0.0680  0.0556
 1169loPI   GL118693   0.653   7.379   4.945  0.0050  0.1790  0.1723
 1169loPI   GL218694   0.308   7.375   4.992  0.0246 -0.1052  0.2209
 1169loPI   C1A18695   0.689   7.555   5.384  0.1764 -0.0685 -0.0310
 1169loPI   C2A18696   0.633   7.622   5.810 -0.0929  0.0987  0.0365
 1169loPI   C3A18697   0.658   7.647   6.256  0.0754 -0.0456 -0.0906
 1169loPI   C4A18698   0.883   7.532   6.692 -0.0990 -0.0100 -0.4516
 1169loPI   C5A18699   0.892   7.363   7.034  0.0752 -0.0567  0.0092
 1169loPI   C6A18700   0.924   6.995   7.335  0.1399  0.1135  0.1434
 1169loPI   C1B18701   0.266   7.232   5.418 -0.1996  0.0297 -0.1985
 1169loPI   C2B18702   0.357   7.250   5.833  0.1952  0.1507  0.0780
 1169loPI   C3B18703   0.285   7.170   6.136  0.1077 -0.0225 -0.0807
 1169loPI   C4B18704   0.398   7.294   6.521  0.2796  0.3283 -0.1591
 1170loPI    C118705   1.543  13.708   4.228  0.1553 -0.0630 -0.0177
 1170loPI    C218706   1.148  13.754   4.179  0.1462  0.0447  0.1473
 1170loPI    C318707   1.401  13.872   3.892  0.0703  0.2016  0.1436
 1170loPI   PO418708   1.575  13.594   4.444  0.0490 -0.1981  0.0666
 1170loPI   GL118709   1.574  13.435   4.854 -0.2074  0.2093 -0.2471
 1170loPI   GL218710   1.539  12.996   4.877 -0.0301 -0.0060 -0.0119
 1170loPI   C1A18711   1.617  13.413   5.292  0.2089  0.0801 -0.0259
 1170loPI   C2A18712   1.560  13.231   5.695  0.0239 -0.2365 -0.1531
 1170loPI   C3A18713   1.517  13.100   6.111  0.0040  0.2467  0.0071
 1170loPI   C4A18714   1.507  12.626   6.266  0.1062 -0.0219  0.1195
 1170loPI   C5A18715   1.369  12.441   6.570  0.1385  0.2451  0.1420
 1170loPI   C6A18716   1.406  12.236   6.931  0.1109  0.1421  0.2128
 1170loPI   C1B18717   1.647  12.800   5.326  0.0870 -0.2967 -0.2580
 1170loPI   C2B18718   1.978  12.901   5.643  0.1815 -0.1501  0.0522
 1170loPI   C3B18719   2.038  12.827   6.068 -0.2650 -0.2540  0.3202
 1170loPI   C4B18720   2.251  12.939   6.440  0.0701  0.2225 -0.0966
 1171loPI    C118721  10.281  16.216   4.440  0.1047  0.1166 -0.1104
 1171loPI    C218722  10.360  15.856   4.285  0.1233  0.0861 -0.0309
 1171loPI    C318723  10.391  16.183   4.057 -0.1151  0.0162 -0.1667
 1171loPI   PO418724  10.102  16.199   4.568 -0.1316 -0.0180 -0.2181
 1171loPI   GL118725  10.182  16.178   5.056 -0.1002 -0.0518  0.0375
 1171loPI   GL218726   9.836  16.010   5.011  0.1868 -0.2957  0.0214
 1171loPI   C1A18727  10.108  16.068   5.523  0.1880 -0.3226  0.3723
 1171loPI   C2A18728   9.817  15.826   5.822  0.2201  0.0659 -0.1021
 1171loPI   C3A18729   9.642  15.855   6.222  0.0248 -0.1917 -0.0420
 1171loPI   C4A18730   9.683  15.954   6.738  0.0299 -0.0113  0.0483
 1171loPI   C5A18731   9.456  15.759   7.074 -0.3203  0.2217  0.1405
 1171loPI   C6A18732   9.260  15.693   7.428  0.2987  0.1599 -0.1892
 1171loPI   C1B18733   9.600  16.133   5.417  0.1540  0.1844 -0.1600
 1171loPI   C2B18734   9.506  16.251   5.887 -0.0881 -0.0199 -0.3943
 1171loPI   C3B18735   9.425  16.391   6.195 -0.1439 -0.0311  0.1701
 1171loPI   C4B18736   9.499  16.390   6.594  0.0808  0.0216  0.1707
 1172loPI    C118737  14.437   7.267   4.312  0.0657 -0.0974 -0.0073
 1172loPI    C218738  14.669   7.569   4.189 -0.0259 -0.0129  0.0260
 1172loPI    C318739  14.509   7.319   3.922  0.2237 -0.1618  0.0128
 1172loPI   PO418740  14.582   7.188   4.540  0.1332  0.3120  0.1852
 1172loPI   GL118741  14.443   7.001   4.929  0.0178 -0.0560 -0.2228
 1172loPI   GL218742  14.354   7.330   4.955 -0.0310 -0.2756 -0.0516
 1172loPI   C1A18743  14.310   6.735   5.407 -0.0507 -0.1202 -0.2007
 1172loPI   C2A18744  14.356   6.639   5.889  0.1297 -0.3086  0.3037
 1172loPI   C3A18745  14.351   6.472   6.235  0.4033  0.0036 -0.0260
 1172loPI   C4A18746  14.473   6.146   6.325 -0.0702  0.1666  0.0629
 1172loPI   C5A18747  14.404   6.038   6.734  0.3070 -0.2655  0.2029
 1172loPI   C6A18748  14.495   6.252   7.120 -0.3974 -0.2457  0.3970
 1172loPI   C1B18749  14.611   7.542   5.142 -0.3441 -0.1534  0.3876
 1172loPI   C2B18750  14.593   7.614   5.538  0.0276 -0.1679 -0.0091
 1172loPI   C3B18751  14.665   7.533   5.903 -0.0355  0.1492 -0.0570
 1172loPI   C4B18752  14.571   7.416   6.307  0.1079  0.0784  0.3269
 1173loPI    C118753   2.887   3.041   5.293 -0.0196 -0.0630 -0.0229
 1173loPI    C218754   3.221   3.209   5.152  0.0297 -0.0062  0.1591
 1173loPI    C318755   2.878   3.415   5.150 -0.0647 -0.1561 -0.2696
 1173loPI   PO418756   2.973   2.723   5.185  0.2498 -0.3891 -0.1582
 1173loPI   GL118757   2.697   2.409   5.290 -0.1636  0.1028 -0.5063
 1173loPI   GL218758   3.075   2.226   5.334 -0.1080 -0.3888 -0.2293
 1173loPI   C1A18759   2.675   2.018   5.466 -0.1834  0.4414 -0.0063
 1173loPI   C2A18760   2.875   1.644   5.578  0.0644 -0.1305 -0.0043
 1173loPI   C3A18761   3.020   1.443   5.817  0.4167  0.0038  0.1989
 1173loPI   C4A18762   2.966   1.371   6.234 -0.1279 -0.0570  0.0496
 1173loPI   C5A18763   2.788   1.273   6.598  0.0212  0.2074 -0.0296
 1173loPI   C6A18764   2.551   1.094   6.899  0.0621 -0.2752  0.1703
 1173loPI   C1B18765   2.938   2.282   5.770 -0.0279 -0.0035 -0.1115
 1173loPI   C2B18766   2.959   2.416   6.271  0.1299  0.3786  0.0371
 1173loPI   C3B18767   2.930   2.597   6.671  0.2216 -0.1774 -0.1092
 1173loPI   C4B18768   2.829   2.926   6.957  0.0592  0.0459  0.1610
 1174loPI    C118769  11.383  10.900   4.483 -0.0434  0.0007 -0.0939
 1174loPI    C218770  11.437  10.607   4.216  0.0178 -0.0595 -0.0159
 1174loPI    C318771  11.439  10.989   4.097  0.2643 -0.0755 -0.0693
 1174loPI   PO418772  11.498  10.772   4.685 -0.0937  0.1289 -0.0199
 1174loPI   GL118773  11.711  10.584   5.020 -0.0250 -0.2432  0.1566
 1174loPI   GL218774  11.321  10.489   5.052  0.1338  0.2951 -0.2371
 1174loPI   C1A18775  11.752  10.799   5.375  0.1201  0.1564  0.1292
 1174loPI   C2A18776  11.926  10.409   5.552  0.0791  0.1699  0.0593
 1174loPI   C3A18777  11.966  10.044   5.768  0.1165 -0.0975  0.2617
 1174loPI   C4A18778  11.915  10.004   6.127  0.0585 -0.0171 -0.0178
 1174loPI   C5A18779  11.644   9.897   6.548  0.2958  0.0668  0.0705
 1174loPI   C6A18780  11.538  10.083   6.964  0.1789  0.0428 -0.2862
 1174loPI   C1B18781  11.445  10.432   5.489  0.0629 -0.0189 -0.0948
 1174loPI   C2B18782  11.503  10.329   5.907  0.2386  0.1444  0.2123
 1174loPI   C3B18783  11.640  10.526   6.235 -0.0613  0.1321 -0.0574
 1174loPI   C4B18784  11.886  10.857   6.405  0.0656 -0.1508  0.2204
 1175loPI    C118785   2.521   8.416   4.307  0.2786 -0.0726  0.1358
 1175loPI    C218786   2.916   8.378   4.260  0.2671  0.0953 -0.1161
 1175loPI    C318787   2.694   8.534   3.967  0.0007 -0.0782 -0.0103
 1175loPI   PO418788   2.565   8.489   4.622 -0.0592 -0.1716  0.1039
 1175loPI   GL118789   2.669   8.421   5.092  0.2131  0.0219 -0.0443
 1175loPI   GL218790   2.899   8.510   5.097  0.0838 -0.1646 -0.0858
 1175loPI   C1A18791   2.589   8.284   5.475 -0.1226 -0.2507  0.0098
 1175loPI   C2A18792   2.310   8.316   5.790  0.2699  0.2589  0.0373
 1175loPI   C3A18793   2.382   8.400   6.333  0.1085 -0.0350  0.0719
 1175loPI   C4A18794   2.241   8.666   6.715  0.0980 -0.1585 -0.1663
 1175loPI   C5A18795   2.251   9.029   6.955 -0.0108  0.1565  0.1567
 1175loPI   C6A18796   2.575   9.250   7.134  0.0383 -0.0585 -0.0736
 1175loPI   C1B18797   2.821   8.792   5.403  0.4093  0.2502  0.0398
 1175loPI   C2B18798   2.663   8.740   5.847  0.0618  0.0214 -0.0036
 1175loPI   C3B18799   2.365   8.880   6.085  0.1498  0.1805 -0.1572
 1175loPI   C4B18800   2.185   9.109   6.363 -0.0002  0.2129 -0.1705
 1176loPI    C118801  14.771  12.545   4.345 -0.0485 -0.0973 -0.0178
 1176loPI    C218802  14.584  12.896   4.387  0.0456 -0.0575  0.0763
 1176loPI    C318803  14.554  12.693   4.043 -0.0351  0.0270  0.0328
 1176loPI   PO418804  14.664  12.506   4.721  0.0286 -0.2605 -0.1987
 1176loPI   GL118805  14.749  12.424   5.143  0.2215 -0.0006  0.1194
 1176loPI   GL218806  14.851  12.079   5.215  0.1407  0.1954  0.0174
 1176loPI   C1A18807  14.527  12.604   5.399  0.1044 -0.0011 -0.0742
 1176loPI   C2A18808  14.433  12.567   5.849  0.3379 -0.1871 -0.1788
 1176loPI   C3A18809  14.443  12.725   6.329  0.1887 -0.1591  0.1481
 1176loPI   C4A18810  14.472  12.571   6.833 -0.1737  0.0603  0.1619
 1176loPI   C5A18811  14.363  12.698   7.319 -0.3243  0.1483 -0.1751
 1176loPI   C6A18812  14.384  13.054   7.582 -0.1259  0.0174 -0.0292
 1176loPI   C1B18813  14.862  11.891   5.548  0.0087 -0.1565 -0.1265
 1176loPI   C2B18814  14.939  11.887   5.998  0.1504  0.2117 -0.1805
 1176loPI   C3B18815  14.958  11.913   6.504 -0.2043 -0.0868 -0.1607
 1176loPI   C4B18816  14.797  11.597   6.790 -0.0449 -0.2448 -0.2809
 1177loPI    C118817  19.070   1.303   4.924 -0.1762  0.2183 -0.0890
 1177loPI    C218818  19.082   0.910   4.849 -0.1554  0.2379 -0.1894
 1177loPI    C318819  19.361   1.152   4.694 -0.2332  0.3077 -0.2205
 1177loPI   PO418820  18.977   1.322   5.142  0.2773  0.3789 -0.0764
 1177loPI   GL118821  19.016   1.422   5.533 -0.0106  0.1085 -0.0135
 1177loPI   GL218822  19.223   1.613   5.595 -0.1646 -0.1331  0.3073
 1177loPI   C1A18823  19.173   1.129   5.874  0.0243  0.1571  0.0506
 1177loPI   C2A18824  19.283   1.142   6.307  0.0884  0.1214 -0.1385
 1177loPI   C3A18825  19.337   1.244   6.702  0.0842 -0.0278 -0.1188
 1177loPI   C4A18826  19.340   1.143   7.185 -0.0239  0.0227  0.1169
 1177loPI   C5A18827  19.305   1.177   7.589  0.0221  0.1320  0.2278
 1177loPI   C6A18828  19.482   1.055   8.009 -0.0051 -0.1769  0.0352
 1177loPI   C1B18829  19.225   1.623   6.014  0.2624 -0.0083 -0.0590
 1177loPI   C2B18830  19.480   1.591   6.288  0.2540  0.1212  0.1295
 1177loPI   C3B18831  19.618   1.670   6.715 -0.1051 -0.1104  0.1939
 1177loPI   C4B18832  19.659   1.602   7.119 -0.3441  0.0538 -0.4533
 1178loPI    C118833   2.189  17.794   4.709  0.0185  0.1713 -0.2868
 1178loPI    C218834   2.419  17.530   4.517  0.1096  0.1313 -0.1247
 1178loPI    C318835   2.025  17.540   4.447  0.1282  0.0556 -0.2443
 1178loPI   PO418836   2.193  17.766   4.930  0.1692 -0.0932  0.2387
 1178loPI   GL118837   1.974  18.017   5.232 -0.3048  0.1034  0.5705
 1178loPI   GL218838   1.803  18.072   5.455 -0.0556 -0.0096  0.1257
 1178loPI   C1A18839   2.225  17.865   5.630  0.2692  0.2480 -0.0286
 1178loPI   C2A18840   2.134  17.755   6.104  0.2049 -0.0988  0.0142
 1178loPI   C3A18841   2.308  17.928   6.526  0.1711 -0.0125  0.3288
 1178loPI   C4A18842   2.294  17.987   7.001  0.0070 -0.2520  0.2734
 1178loPI   C5A18843   2.032  17.908   7.326 -0.1924 -0.1264 -0.1355
 1178loPI   C6A18844   1.593  17.942   7.326 -0.0160 -0.2528  0.0933
 1178loPI   C1B18845   1.588  18.075   5.813 -0.0700 -0.1199 -0.0328
 1178loPI   C2B18846   1.235  18.023   6.126  0.1901  0.1890 -0.3204
 1178loPI   C3B18847   1.097  18.017   6.465  0.2607  0.2414 -0.1434
 1178loPI   C4B18848   1.302  18.063   6.931 -0.0797 -0.3536 -0.4668
 1179loPI    C118849  12.214  10.498   4.439  0.1106  0.0066  0.2298
 1179loPI    C218850  11.826  10.415   4.491  0.1273 -0.1016  0.1850
 1179loPI    C318851  11.935  10.725   4.263  0.0670 -0.0606  0.2118
 1179loPI   PO418852  12.316  10.519   4.670 -0.3754  0.1343  0.1271
 1179loPI   GL118853  12.188  10.653   5.059  0.1441  0.1600 -0.0918
 1179loPI   GL218854  12.573  10.520   5.097  0.0464 -0.4233  0.1039
 1179loPI   C1A18855  12.310  10.717   5.495  0.2233  0.2991  0.1848
 1179loPI   C2A18856  12.430  10.826   5.810 -0.0521  0.0434  0.0353
 1179loPI   C3A18857  12.351  10.870   6.342 -0.0650  0.2195  0.0411
 1179loPI   C4A18858  12.278  10.806   6.754  0.1532 -0.0971  0.1157
 1179loPI   C5A18859  12.208  11.027   7.074 -0.2555 -0.1117 -0.0141
 1179loPI   C6A18860  12.224  11.241   7.481  0.0539  0.0701 -0.2228
 1179loPI   C1B18861  12.772  10.370   5.410 -0.0942  0.0837 -0.1315
 1179loPI   C2B18862  12.573  10.296   5.739 -0.4497  0.0951  0.1893
 1179loPI   C3B18863  12.200  10.403   5.956 -0.0633  0.0774  0.0194
 1179loPI   C4B18864  12.107  10.366   6.363 -0.0141 -0.1806  0.2381
 1180loPI    C118865  13.430   3.739   4.967 -0.1562 -0.0580 -0.0254
 1180loPI    C218866  13.697   3.915   4.728 -0.1383  0.0508  0.0737
 1180loPI    C318867  13.800   3.591   4.938 -0.1323 -0.0018 -0.0098
 1180loPI   PO418868  13.333   3.912   5.165 -0.1535  0.1380  0.2136
 1180loPI   GL118869  13.236   3.985   5.563  0.0643 -0.0114  0.0818
 1180loPI   GL218870  13.576   3.952   5.717  0.1791 -0.1034 -0.2217
 1180loPI   C1A18871  13.009   3.990   5.912  0.0305 -0.4259 -0.0442
 1180loPI   C2A18872  12.706   4.142   6.232  0.0906  0.2428 -0.3305
 1180loPI   C3A18873  12.940   4.169   6.625  0.1063  0.0884  0.0196
 1180loPI   C4A18874  12.800   4.069   7.130 -0.0258  0.0589 -0.0751
 1180loPI   C5A18875  12.493   4.155   7.537  0.0062 -0.1311 -0.1193
 1180loPI   C6A18876  12.027   4.278   7.710  0.0564  0.0487  0.2770
 1180loPI   C1B18877  13.474   4.265   6.083 -0.1586 -0.0535  0.0100
 1180loPI   C2B18878  13.406   4.431   6.485  0.0680  0.1344  0.0640
 1180loPI   C3B18879  13.498   4.248   6.839 -0.1239  0.0318 -0.2199
 1180loPI   C4B18880  13.587   4.227   7.280 -0.3065 -0.2241 -0.0499
 1181loPI    C118881  19.123   6.844   4.456 -0.0530  0.0066 -0.1331
 1181loPI    C218882  18.758   6.899   4.303 -0.1667 -0.0096  0.1278
 1181loPI    C318883  18.826   6.593   4.552  0.0581 -0.0844 -0.0231
 1181loPI   PO418884  19.167   7.134   4.634  0.2034  0.0740 -0.2939
 1181loPI   GL118885  19.321   7.120   4.974  0.1427 -0.2861  0.0975
 1181loPI   GL218886  19.460   6.938   5.141  0.1282 -0.1509 -0.2159
 1181loPI   C1A18887  19.187   7.361   5.396 -0.4304 -0.1322 -0.0827
 1181loPI   C2A18888  19.291   7.333   5.701 -0.1067 -0.0649  0.2848
 1181loPI   C3A18889  19.274   7.341   6.106 -0.3099  0.0467 -0.2679
 1181loPI   C4A18890  19.304   7.262   6.510  0.0598  0.3956 -0.0386
 1181loPI   C5A18891  19.288   7.503   6.859  0.3477 -0.0326  0.3269
 1181loPI   C6A18892  19.211   7.745   7.223  0.1408 -0.0855  0.0839
 1181loPI   C1B18893  19.354   6.835   5.564  0.0161  0.0323 -0.3747
 1181loPI   C2B18894  19.341   6.836   6.005  0.0360  0.1205 -0.0432
 1181loPI   C3B18895  19.339   6.801   6.441  0.0202  0.2209  0.3188
 1181loPI   C4B18896  19.485   6.952   6.884  0.0173 -0.0322  0.1722
 1182loPI    C118897   5.697   3.847   5.034 -0.2300  0.2716 -0.3642
 1182loPI    C218898   5.325   3.733   5.126 -0.0089 -0.2391 -0.0628
 1182loPI    C318899   5.510   3.573   4.810 -0.0242 -0.0234 -0.1825
 1182loPI   PO418900   5.690   4.079   5.000  0.3118  0.2177 -0.1328
 1182loPI   GL118901   5.604   4.410   5.357 -0.0767 -0.1090  0.0496
 1182loPI   GL218902   5.478   4.180   5.469 -0.0814 -0.2016  0.0158
 1182loPI   C1A18903   5.620   4.567   5.818  0.1714 -0.0453 -0.1387
 1182loPI   C2A18904   5.821   4.962   6.072  0.0344 -0.0708  0.1234
 1182loPI   C3A18905   5.958   5.227   6.389  0.0288  0.0413  0.0569
 1182loPI   C4A18906   5.687   5.473   6.627 -0.0056 -0.0131  0.0878
 1182loPI   C5A18907   5.600   5.400   7.006  0.1346 -0.0072 -0.1842
 1182loPI   C6A18908   5.482   5.558   7.410 -0.3580 -0.0414 -0.0483
 1182loPI   C1B18909   5.558   4.046   5.838 -0.0865 -0.1832 -0.1763
 1182loPI   C2B18910   5.700   3.869   6.193 -0.1450  0.3734  0.2461
 1182loPI   C3B18911   5.644   3.664   6.559  0.3010  0.0415 -0.0680
 1182loPI   C4B18912   5.908   3.418   6.860 -0.1461 -0.2653  0.0643
 1183loPI    C118913   2.575  15.591   4.603 -0.1558  0.0119 -0.1232
 1183loPI    C218914   2.500  15.442   4.240 -0.2042 -0.0925 -0.0708
 1183loPI    C318915   2.726  15.770   4.279  0.2027 -0.3549 -0.1668
 1183loPI   PO418916   2.375  15.353   4.718  0.0424  0.2003  0.0715
 1183loPI   GL118917   2.193  15.381   5.009  0.0990 -0.3971 -0.1788
 1183loPI   GL218918   2.155  15.578   5.236  0.0582  0.1904  0.0275
 1183loPI   C1A18919   2.043  15.113   5.317  0.0837 -0.0001 -0.4032
 1183loPI   C2A18920   1.883  15.171   5.691  0.3321 -0.0836 -0.0808
 1183loPI   C3A18921   1.942  14.815   5.997  0.0606  0.0393  0.0331
 1183loPI   C4A18922   1.985  14.594   6.300 -0.1795  0.2995 -0.1752
 1183loPI   C5A18923   2.211  14.526   6.624 -0.1395 -0.0620  0.1051
 1183loPI   C6A18924   2.603  14.396   6.889  0.3212 -0.0849  0.0819
 1183loPI   C1B18925   1.798  15.609   5.477  0.1790 -0.0392  0.0113
 1183loPI   C2B18926   1.515  15.951   5.631  0.2278  0.3593 -0.0241
 1183loPI   C3B18927   1.100  16.006   5.642  0.1691  0.2601 -0.2405
 1183loPI   C4B18928   0.772  15.753   5.398 -0.2014 -0.2107 -0.2299
 1184loPI    C118929  13.443  16.181   4.617 -0.1062 -0.2723 -0.3181
 1184loPI    C218930  13.464  15.908   4.326  0.1786 -0.1479 -0.4171
 1184loPI    C318931  13.632  16.268   4.276  0.1712 -0.1016 -0.1256
 1184loPI   PO418932  13.524  16.043   4.911  0.0946 -0.1776 -0.2493
 1184loPI   GL118933  13.536  15.757   5.191 -0.0956  0.3135 -0.1019
 1184loPI   GL218934  13.468  15.534   5.362 -0.1100  0.2122  0.0671
 1184loPI   C1A18935  13.567  15.948   5.579  0.1926  0.1447 -0.2528
 1184loPI   C2A18936  13.513  15.969   5.959  0.4534 -0.0094  0.0321
 1184loPI   C3A18937  13.438  15.972   6.386  0.1835 -0.1720 -0.1335
 1184loPI   C4A18938  13.356  15.983   6.863  0.1019 -0.0429  0.1131
 1184loPI   C5A18939  13.503  16.178   7.319 -0.3377  0.2687  0.0852
 1184loPI   C6A18940  13.767  16.463   7.291  0.1589 -0.1084 -0.3011
 1184loPI   C1B18941  13.433  15.461   5.786  0.0482  0.1799 -0.3473
 1184loPI   C2B18942  13.440  15.489   6.255  0.2359 -0.1867  0.0192
 1184loPI   C3B18943  13.384  15.555   6.596  0.1356  0.0883 -0.1603
 1184loPI   C4B18944  13.620  15.527   6.928  0.1349 -0.0793  0.1714
 1185loPI    C118945  16.139  16.738   4.543 -0.1733 -0.3809 -0.3708
 1185loPI    C218946  16.469  16.914   4.399 -0.1308 -0.1605 -0.0166
 1185loPI    C318947  16.133  16.910   4.182 -0.0295  0.0372 -0.1807
 1185loPI   PO418948  16.185  16.783   4.839  0.0655 -0.0057 -0.1567
 1185loPI   GL118949  16.032  16.838   5.248 -0.2242 -0.1564  0.0412
 1185loPI   GL218950  15.970  16.592   5.490  0.1207  0.2829 -0.0053
 1185loPI   C1A18951  16.412  16.856   5.527  0.0820  0.1961 -0.0077
 1185loPI   C2A18952  16.593  16.944   5.838  0.0108  0.1082  0.2147
 1185loPI   C3A18953  16.515  17.160   6.227  0.1078 -0.1714  0.0494
 1185loPI   C4A18954  16.503  17.149   6.642 -0.0597  0.0324 -0.2126
 1185loPI   C5A18955  16.303  17.090   7.096 -0.1493  0.1408  0.2337
 1185loPI   C6A18956  16.055  17.068   7.448 -0.0139  0.1282 -0.2937
 1185loPI   C1B18957  16.033  16.804   5.958  0.1749 -0.0114  0.1105
 1185loPI   C2B18958  15.823  16.660   6.345 -0.2252  0.0782 -0.1733
 1185loPI   C3B18959  15.738  16.403   6.656  0.0086  0.3453 -0.2132
 1185loPI   C4B18960  16.063  16.197   6.795 -0.1388 -0.0217 -0.1711
 1186loPI    C118961  18.036   3.718   4.878  0.1250 -0.0652 -0.0402
 1186loPI    C218962  17.706   3.502   4.949  0.0556  0.0442 -0.0280
 1186loPI    C318963  17.951   3.400   4.650 -0.0101 -0.0141 -0.0621
 1186loPI   PO418964  18.209   3.686   5.105  0.1207  0.0435  0.0447
 1186loPI   GL118965  18.283   3.694   5.428  0.1752 -0.0612 -0.3159
 1186loPI   GL218966  18.604   3.550   5.595 -0.2144  0.4532 -0.0513
 1186loPI   C1A18967  18.128   3.913   5.806 -0.0388  0.1023 -0.1350
 1186loPI   C2A18968  18.439   3.811   6.034  0.2611  0.1184 -0.0064
 1186loPI   C3A18969  18.633   3.578   6.312  0.0625  0.0190 -0.2421
 1186loPI   C4A18970  18.607   3.746   6.729  0.2136 -0.1862  0.2213
 1186loPI   C5A18971  18.548   3.874   7.078  0.0129 -0.1214  0.0398
 1186loPI   C6A18972  18.579   3.547   7.371 -0.3435  0.0664 -0.0009
 1186loPI   C1B18973  18.821   3.449   5.867  0.0729 -0.2791 -0.0676
 1186loPI   C2B18974  19.109   3.577   6.194  0.2698  0.3995  0.2599
 1186loPI   C3B18975  19.083   3.649   6.591  0.2084  0.1190 -0.1566
 1186loPI   C4B18976  19.022   3.468   6.998 -0.1461  0.1533  0.2682
 1187loPI    C118977   2.556   9.486   4.160 -0.0802  0.0310  0.0426
 1187loPI    C218978   2.323   9.360   3.861  0.0328 -0.0100 -0.0288
 1187loPI    C318979   2.262   9.720   4.023 -0.2109 -0.1031  0.0920
 1187loPI   PO418980   2.540   9.343   4.385 -0.1966 -0.0451 -0.1903
 1187loPI   GL118981   2.425   9.467   4.808 -0.0162  0.2354 -0.0595
 1187loPI   GL218982   2.764   9.696   4.814  0.0173 -0.1303 -0.0139
 1187loPI   C1A18983   2.217   9.546   5.074  0.0119  0.0333  0.0382
 1187loPI   C2A18984   2.002   9.698   5.441 -0.2630 -0.2040 -0.0785
 1187loPI   C3A18985   1.598   9.628   5.730 -0.3053 -0.0305 -0.2653
 1187loPI   C4A18986   1.428   9.738   6.162  0.1361  0.0407 -0.2669
 1187loPI   C5A18987   1.352   9.633   6.645  0.2554  0.1038  0.0936
 1187loPI   C6A18988   1.122   9.254   6.822  0.0741 -0.0907 -0.2857
 1187loPI   C1B18989   2.617   9.909   5.144  0.2098  0.0313 -0.3361
 1187loPI   C2B18990   2.621  10.213   5.503  0.0392 -0.1227 -0.0654
 1187loPI   C3B18991   2.556  10.541   5.890 -0.1778  0.5246 -0.2480
 1187loPI   C4B18992   2.384  10.661   6.240  0.2456  0.1889  0.4782
 1188loPI    C118993   5.824   1.357   5.270  0.0344  0.2361 -0.1158
 1188loPI    C218994   5.856   1.480   4.891 -0.0605  0.2854 -0.1084
 1188loPI    C318995   5.496   1.406   5.047 -0.0092  0.0719 -0.0886
 1188loPI   PO418996   6.060   1.499   5.372 -0.1152  0.3820 -0.2674
 1188loPI   GL118997   6.114   1.891   5.479  0.0396 -0.1592 -0.2445
 1188loPI   GL218998   5.780   1.802   5.606  0.1975 -0.1630 -0.1318
 1188loPI   C1A18999   6.347   1.819   5.871  0.0379  0.0382 -0.0532
 1188loPI   C2A19000   6.409   1.575   6.346  0.0292 -0.1077  0.2965
 1188loPI   C3A19001   6.227   1.743   6.697  0.0817 -0.2120 -0.1137
 1188loPI   C4A19002   6.061   1.901   7.095  0.2290  0.0144 -0.2475
 1188loPI   C5A19003   6.015   1.934   7.531 -0.1363  0.1924  0.0016
 1188loPI   C6A19004   5.772   2.274   7.735 -0.2296  0.3035  0.5250
 1188loPI   C1B19005   5.886   1.861   6.091  0.0479 -0.2068 -0.3183
 1188loPI   C2B19006   5.769   2.066   6.474  0.0526 -0.0061  0.0737
 1188loPI   C3B19007   5.726   2.159   6.857  0.1549 -0.3171  0.1093
 1188loPI   C4B19008   5.592   2.059   7.234  0.0592  0.1917  0.1157
 1189loPI    C119009   6.321   6.618   4.421  0.0202 -0.1090  0.0713
 1189loPI    C219010   6.062   6.892   4.555 -0.1375 -0.2472  0.0525
 1189loPI    C319011   6.031   6.753   4.181  0.1564 -0.0358 -0.0543
 1189loPI   PO419012   6.593   6.729   4.526  0.2455 -0.0164  0.0167
 1189loPI   GL119013   6.423   6.669   4.994  0.2710  0.0882  0.0276
 1189loPI   GL219014   6.482   6.344   4.857 -0.3775 -0.0185 -0.0641
 1189loPI   C1A19015   6.637   6.723   5.358 -0.1518  0.2068  0.0916
 1189loPI   C2A19016   6.738   6.926   5.790  0.3255 -0.0161 -0.1979
 1189loPI   C3A19017   6.758   7.102   6.244 -0.4490  0.0768  0.0820
 1189loPI   C4A19018   6.613   6.961   6.621  0.2561  0.0415  0.0832
 1189loPI   C5A19019   6.442   6.924   7.049 -0.0220 -0.1621  0.0722
 1189loPI   C6A19020   6.670   7.054   7.460 -0.0685 -0.0593  0.0157
 1189loPI   C1B19021   6.723   6.160   5.138 -0.0026 -0.1498 -0.1135
 1189loPI   C2B19022   7.092   6.278   5.377  0.0527 -0.0180 -0.1184
 1189loPI   C3B19023   7.051   6.400   5.827  0.1922 -0.1263 -0.4604
 1189loPI   C4B19024   6.829   6.602   6.211  0.0192 -0.2271  0.0349
 1190loPI    C119025  17.361   0.419   4.615  0.0300 -0.0760  0.1288
 1190loPI    C219026  17.334   0.034   4.720 -0.1162 -0.1098 -0.0273
 1190loPI    C319027  17.425   0.132   4.343  0.0508  0.0097  0.0426
 1190loPI   PO419028  17.353   0.597   4.893  0.3044 -0.0198 -0.2033
 1190loPI   GL119029  17.610   0.555   5.239 -0.2046  0.1638 -0.3264
 1190loPI   GL219030  17.856   0.464   5.395 -0.0225 -0.1183  0.0119
 1190loPI   C1A19031  17.542   0.764   5.670 -0.2984 -0.2610 -0.0216
 1190loPI   C2A19032  17.679   0.773   6.100 -0.1256  0.0394  0.0773
 1190loPI   C3A19033  17.594   0.593   6.520 -0.1408 -0.0658  0.0086
 1190loPI   C4A19034  17.620   0.437   6.810 -0.2573  0.1625  0.2012
 1190loPI   C5A19035  17.631   0.316   7.169 -0.3089  0.0884  0.0231
 1190loPI   C6A19036  18.011   0.031   7.336 -0.0352 -0.2264  0.2567
 1190loPI   C1B19037  17.882   0.390   5.835  0.0277  0.0562 -0.1490
 1190loPI   C2B19038  17.887   0.322   6.248 -0.3603 -0.0025  0.0193
 1190loPI   C3B19039  18.118   0.377   6.521  0.5230  0.2299  0.1722
 1190loPI   C4B19040  18.232   0.500   6.995 -0.5457  0.2306  0.2040
 1191loPI    C119041  18.795  17.401   4.858  0.0712  0.0956  0.0265
 1191loPI    C219042  18.517  17.412   4.570 -0.0865  0.1799  0.1801
 1191loPI    C319043  18.905  17.436   4.474 -0.1217 -0.1081 -0.0491
 1191loPI   PO419044  18.698  17.415   4.991 -0.4170  0.1005  0.1434
 1191loPI   GL119045  18.434  17.462   5.254  0.0072 -0.1709 -0.2787
 1191loPI   GL219046  18.458  17.787   5.241  0.0188  0.2548 -0.1734
 1191loPI   C1A19047  18.576  17.233   5.626  0.2679 -0.0249 -0.1480
 1191loPI   C2A19048  18.733  17.473   5.928  0.2957  0.0156 -0.0505
 1191loPI   C3A19049  18.948  17.640   6.302  0.0361 -0.0841  0.0388
 1191loPI   C4A19050  18.933  17.511   6.676 -0.0011 -0.0539 -0.2051
 1191loPI   C5A19051  19.056  17.340   7.045  0.1573 -0.0618 -0.2776
 1191loPI   C6A19052  18.725  17.062   7.254  0.0953  0.0596 -0.0609
 1191loPI   C1B19053  18.481  17.842   5.613 -0.1584 -0.1613  0.2553
 1191loPI   C2B19054  18.193  17.804   6.043  0.2092 -0.0420  0.0346
 1191loPI   C3B19055  18.209  17.892   6.436 -0.0041  0.3253  0.2506
 1191loPI   C4B19056  18.149  17.753   6.880  0.0418  0.1729 -0.4869
 1192loPI    C119057   4.529   7.832   4.609 -0.1715 -0.0632 -0.2007
 1192loPI    C219058   4.795   8.035   4.390 -0.0429 -0.0096  0.0021
 1192loPI    C319059   4.529   7.796   4.210 -0.1708  0.3062 -0.2374
 1192loPI   PO419060   4.422   7.977   4.761 -0.0258  0.1963 -0.2130
 1192loPI   GL119061   4.269   8.040   5.209  0.0851  0.0434 -0.0377
 1192loPI   GL219062   4.652   8.066   5.259 -0.0444 -0.0762  0.0820
 1192loPI   C1A19063   4.070   7.731   5.491  0.3120 -0.0280 -0.1306
 1192loPI   C2A19064   3.844   7.632   5.803  0.0778 -0.0831 -0.0656
 1192loPI   C3A19065   3.632   7.692   6.104  0.3992 -0.1434 -0.1382
 1192loPI   C4A19066   3.517   7.611   6.481 -0.1247  0.0690 -0.0586
 1192loPI   C5A19067   3.397   7.813   6.818 -0.0277 -0.1248  0.1882
 1192loPI   C6A19068   3.045   8.039   7.101  0.0952 -0.1072 -0.0583
 1192loPI   C1B19069   4.901   8.236   5.585  0.0869 -0.1739 -0.1292
 1192loPI   C2B19070   4.755   8.473   5.846  0.1119  0.0436  0.2595
 1192loPI   C3B19071   5.018   8.739   6.082  0.2248 -0.2155  0.0374
 1192loPI   C4B19072   5.097   9.115   6.247 -0.1142  0.2921 -0.1044
 1193loPI    C119073   2.517   7.943   4.462  0.0468  0.2753  0.0206
 1193loPI    C219074   2.290   7.658   4.297  0.1742  0.0803  0.1772
 1193loPI    C319075   2.282   8.031   4.151 -0.1226  0.0377  0.0789
 1193loPI   PO419076   2.439   7.941   4.700 -0.1242  0.0112  0.1319
 1193loPI   GL119077   2.500   7.827   5.107 -0.0918 -0.0044  0.1504
 1193loPI   GL219078   2.774   7.887   5.233  0.3308 -0.3502  0.0803
 1193loPI   C1A19079   2.069   7.912   5.310 -0.0462 -0.0642 -0.1181
 1193loPI   C2A19080   1.840   8.013   5.671 -0.3320  0.1535 -0.2168
 1193loPI   C3A19081   1.970   8.057   6.129  0.0257 -0.3337 -0.2813
 1193loPI   C4A19082   2.230   7.947   6.483  0.2095  0.1018 -0.1768
 1193loPI   C5A19083   2.202   7.779   6.862 -0.0993 -0.3460  0.2420
 1193loPI   C6A19084   2.220   7.890   7.309  0.1635 -0.0581  0.1078
 1193loPI   C1B19085   2.470   7.862   5.602  0.0065  0.2632  0.3279
 1193loPI   C2B19086   2.431   7.860   5.989  0.2845 -0.5098 -0.3083
 1193loPI   C3B19087   2.767   7.963   6.350 -0.0819  0.2243  0.1255
 1193loPI   C4B19088   3.200   8.079   6.428  0.2375  0.2648 -0.1080
 1194loPI    C119089   5.805  17.319   4.454 -0.2710 -0.0481  0.0743
 1194loPI    C219090   5.789  17.710   4.373  0.3108 -0.0733 -0.2104
 1194loPI    C319091   5.617  17.447   4.125 -0.0104 -0.0076 -0.0616
 1194loPI   PO419092   5.850  17.295   4.757 -0.0209  0.1459 -0.0019
 1194loPI   GL119093   5.796  17.014   5.032 -0.2746 -0.1645  0.2674
 1194loPI   GL219094   6.036  17.208   5.271  0.2601  0.0465 -0.1309
 1194loPI   C1A19095   5.806  16.909   5.620  0.3248 -0.1370 -0.0941
 1194loPI   C2A19096   5.811  17.023   6.085 -0.0411  0.2119  0.0105
 1194loPI   C3A19097   5.777  16.912   6.585 -0.2603 -0.1894 -0.3572
 1194loPI   C4A19098   5.900  16.685   6.944 -0.0361  0.1438  0.4228
 1194loPI   C5A19099   5.996  16.723   7.295  0.2837  0.0203  0.1055
 1194loPI   C6A19100   6.175  16.321   7.575 -0.0665  0.0650 -0.1902
 1194loPI   C1B19101   6.124  17.258   5.694 -0.1104 -0.3278 -0.3604
 1194loPI   C2B19102   6.253  17.251   6.151  0.0375  0.1482  0.1688
 1194loPI   C3B19103   6.193  17.124   6.585 -0.0114  0.1952  0.0127
 1194loPI   C4B19104   6.366  16.972   6.963 -0.4319 -0.0960 -0.2982
 1195loPI    C119105  13.833   2.548   4.700 -0.0490 -0.1267 -0.0771
 1195loPI    C219106  13.580   2.729   4.952  0.1284 -0.0296  0.0334
 1195loPI    C319107  13.555   2.800   4.559 -0.0317 -0.0407  0.0407
 1195loPI   PO419108  14.082   2.608   4.830 -0.2558 -0.2670 -0.0506
 1195loPI   GL119109  14.231   2.478   5.198 -0.1691  0.0695 -0.0019
 1195loPI   GL219110  13.909   2.618   5.291 -0.1382 -0.0440 -0.2165
 1195loPI   C1A19111  14.409   2.764   5.566  0.1551  0.1090  0.2955
 1195loPI   C2A19112  14.487   2.753   6.047 -0.1151 -0.2300 -0.0768
 1195loPI   C3A19113  14.308   2.705   6.521  0.0678  0.0116 -0.3142
 1195loPI   C4A19114  14.114   2.735   6.936  0.1552 -0.0078 -0.1618
 1195loPI   C5A19115  14.093   2.968   7.324  0.3520 -0.0726  0.0001
 1195loPI   C6A19116  14.309   3.119   7.688 -0.0617  0.0014 -0.0338
 1195loPI   C1B19117  13.910   2.573   5.683  0.1839  0.0816 -0.1963
 1195loPI   C2B19118  13.832   2.575   6.155 -0.1146  0.2348 -0.0621
 1195loPI   C3B19119  13.729   2.567   6.620 -0.0802 -0.4172  0.0064
 1195loPI   C4B19120  13.605   2.324   6.886  0.4814 -0.2312  0.1301
 1196loPI    C119121  16.057   4.452   4.728 -0.0741 -0.1001 -0.1692
 1196loPI    C219122  15.840   4.677   4.480 -0.0184 -0.0101 -0.1367
 1196loPI    C319123  15.741   4.295   4.541 -0.1371  0.0163 -0.1613
 1196loPI   PO419124  16.181   4.708   4.863 -0.1168 -0.0175  0.3665
 1196loPI   GL119125  16.276   4.694   5.276 -0.0580 -0.0179  0.1329
 1196loPI   GL219126  16.184   5.041   5.315 -0.3574  0.1421  0.2531
 1196loPI   C1A19127  15.941   4.432   5.506 -0.1644 -0.1529  0.3602
 1196loPI   C2A19128  15.899   4.338   5.924 -0.0629  0.1217 -0.0910
 1196loPI   C3A19129  15.893   4.109   6.294  0.0871 -0.1687 -0.1722
 1196loPI   C4A19130  15.706   4.125   6.684 -0.3744 -0.2195 -0.0001
 1196loPI   C5A19131  15.437   4.154   6.998 -0.1515 -0.3792  0.1393
 1196loPI   C6A19132  15.343   4.579   7.246 -0.3212 -0.1150 -0.3075
 1196loPI   C1B19133  16.076   5.082   5.723 -0.1217 -0.3448  0.1167
 1196loPI   C2B19134  16.176   5.053   6.187  0.0790  0.2729  0.1415
 1196loPI   C3B19135  16.455   4.939   6.372 -0.0084  0.0416  0.0684
 1196loPI   C4B19136  16.490   4.498   6.372  0.1987  0.0544 -0.0460
 1197loPI    C119137   8.779  10.207   4.217  0.3892 -0.0094 -0.1403
 1197loPI    C219138   8.548  10.355   3.925  0.1594  0.1000  0.0931
 1197loPI    C319139   8.719   9.996   3.883 -0.1553 -0.0391 -0.0334
 1197loPI   PO419140   8.885  10.401   4.324  0.0295 -0.0297  0.0060
 1197loPI   GL119141   8.773  10.522   4.746 -0.0188 -0.2358 -0.1076
 1197loPI   GL219142   9.026  10.278   4.839 -0.2831  0.1595 -0.1147
 1197loPI   C1A19143   8.608  10.406   5.175  0.0502  0.2665  0.2229
 1197loPI   C2A19144   8.629  10.393   5.590 -0.0231  0.5035 -0.3194
 1197loPI   C3A19145   8.673  10.540   5.938 -0.1238  0.0124 -0.2966
 1197loPI   C4A19146   8.559  10.297   6.236 -0.0249 -0.2679  0.1226
 1197loPI   C5A19147   8.686  10.367   6.613 -0.0440 -0.0867 -0.0239
 1197loPI   C6A19148   9.031  10.433   6.826 -0.0607  0.1545 -0.2627
 1197loPI   C1B19149   9.158  10.220   5.264 -0.1149 -0.1198 -0.0856
 1197loPI   C2B19150   9.155  10.082   5.693  0.3686 -0.1098  0.2707
 1197loPI   C3B19151   9.097  10.290   6.098  0.3232  0.0778 -0.3817
 1197loPI   C4B19152   9.010  10.577   6.348 -0.2964  0.2440 -0.0152
 1198loPI    C119153  13.439   1.723   4.556 -0.0848  0.1526 -0.0405
 1198loPI    C219154  13.184   1.663   4.860 -0.0896 -0.2176 -0.1127
 1198loPI    C319155  13.064   1.861   4.533 -0.1566 -0.0279  0.0252
 1198loPI   PO419156  13.686   1.724   4.762 -0.0419  0.1612  0.3172
 1198loPI   GL119157  13.959   1.641   5.166  0.0446  0.1345  0.1039
 1198loPI   GL219158  14.132   1.252   5.298  0.0823 -0.0273 -0.1118
 1198loPI   C1A19159  14.011   1.643   5.642  0.0532 -0.0145 -0.1509
 1198loPI   C2A19160  14.167   1.745   6.024 -0.0060 -0.1012 -0.0289
 1198loPI   C3A19161  14.161   1.551   6.454  0.2397  0.0949 -0.3055
 1198loPI   C4A19162  14.055   1.518   6.835 -0.0871 -0.0355 -0.2260
 1198loPI   C5A19163  14.159   1.807   7.118  0.0053 -0.1580 -0.0784
 1198loPI   C6A19164  14.256   2.035   7.560  0.4961 -0.0471  0.1260
 1198loPI   C1B19165  14.360   1.288   5.776 -0.2715 -0.1863  0.3555
 1198loPI   C2B19166  14.409   1.206   6.166 -0.2959 -0.2712 -0.0725
 1198loPI   C3B19167  14.468   1.135   6.637 -0.3033 -0.0960  0.3699
 1198loPI   C4B19168  14.514   1.331   7.028 -0.1961 -0.0118 -0.1700
 1199loPI    C119169  12.611  13.994   4.601 -0.2604 -0.2358  0.1308
 1199loPI    C219170  12.853  13.809   4.342 -0.0251 -0.2625  0.3651
 1199loPI    C319171  12.470  13.875   4.246  0.1498  0.0750 -0.1465
 1199loPI   PO419172  12.635  13.807   4.907 -0.2919  0.0488  0.3388
 1199loPI   GL119173  13.023  13.745   5.205  0.4700 -0.2451  0.4291
 1199loPI   GL219174  13.050  14.061   5.412  0.0434  0.0107  0.1920
 1199loPI   C1A19175  12.686  13.734   5.551 -0.1484 -0.2810 -0.0132
 1199loPI   C2A19176  12.501  13.558   6.011 -0.0207  0.0867  0.3134
 1199loPI   C3A19177  12.329  13.688   6.376 -0.1048 -0.0678 -0.1570
 1199loPI   C4A19178  12.379  13.431   6.751  0.1640  0.1149  0.0064
 1199loPI   C5A19179  11.976  13.394   7.098  0.2918  0.2831  0.2843
 1199loPI   C6A19180  11.714  13.393   7.451 -0.0718 -0.1889 -0.0350
 1199loPI   C1B19181  13.265  13.678   5.599 -0.1606  0.1684 -0.5282
 1199loPI   C2B19182  13.429  13.581   5.978 -0.2884 -0.1901  0.0199
 1199loPI   C3B19183  13.490  13.598   6.384 -0.0490 -0.0960 -0.0273
 1199loPI   C4B19184  13.521  13.565   6.845 -0.1264 -0.1366  0.0974
 1200loPI    C119185   9.033  19.212   4.889  0.1896 -0.0382  0.1343
 1200loPI    C219186   9.067  19.115   4.502 -0.0533  0.1390  0.0660
 1200loPI    C319187   8.836  19.423   4.612 -0.1349 -0.0260  0.3684
 1200loPI   PO419188   8.939  19.000   5.013 -0.1199  0.0260 -0.3084
 1200loPI   GL119189   8.712  18.794   5.255  0.3817 -0.0947  0.3055
 1200loPI   GL219190   8.704  19.067   5.435  0.0659  0.0151 -0.1239
 1200loPI   C1A19191   8.812  18.673   5.725 -0.0536 -0.0322 -0.1207
 1200loPI   C2A19192   8.903  18.786   6.084 -0.1767 -0.3087  0.0396
 1200loPI   C3A19193   8.978  18.845   6.537 -0.3985  0.0619 -0.1750
 1200loPI   C4A19194   9.170  18.568   6.906 -0.6363 -0.2174 -0.2567
 1200loPI   C5A19195   9.376  18.502   7.275 -0.1537  0.3753  0.2054
 1200loPI   C6A19196   9.239  18.763   7.631  0.0044 -0.4587  0.0252
 1200loPI   C1B19197   8.503  19.125   5.839 -0.2273 -0.0991 -0.0700
 1200loPI   C2B19198   8.476  19.121   6.322  0.0440 -0.1168  0.2151
 1200loPI   C3B19199   8.261  19.047   6.649 -0.0305  0.1983  0.3953
 1200loPI   C4B19200   8.445  19.032   7.104 -0.0526 -0.0453  0.0583
 1201loPI    C119201  14.028  16.109   4.725 -0.0655 -0.3163  0.1338
 1201loPI    C219202  14.074  16.036   4.334 -0.2278  0.0437  0.0434
 1201loPI    C319203  14.345  15.901   4.596  0.1359  0.2025 -0.2417
 1201loPI   PO419204  13.932  16.322   4.814 -0.2573  0.1011  0.2618
 1201loPI   GL119205  13.955  16.566   5.289 -0.2453  0.2332  0.0212
 1201loPI   GL219206  13.812  16.228   5.289  0.1868 -0.1873 -0.0875
 1201loPI   C1A19207  13.698  16.589   5.606  0.2056  0.0728 -0.4664
 1201loPI   C2A19208  13.705  16.449   6.052 -0.1115 -0.1435  0.2903
 1201loPI   C3A19209  13.659  16.524   6.489  0.0352 -0.0461  0.1356
 1201loPI   C4A19210  13.517  16.457   6.882  0.1803 -0.2242 -0.1369
 1201loPI   C5A19211  13.299  16.612   7.298  0.2647 -0.1461  0.1679
 1201loPI   C6A19212  13.208  16.488   7.732  0.0855  0.0628 -0.0041
 1201loPI   C1B19213  14.039  16.121   5.727  0.3212  0.0333  0.0799
 1201loPI   C2B19214  13.989  15.976   6.135  0.0344  0.0523  0.1112
 1201loPI   C3B19215  14.187  16.148   6.492 -0.1326 -0.2252  0.0709
 1201loPI   C4B19216  14.246  16.230   6.925  0.0493  0.4447 -0.1969
 1202loPI    C119217  13.470   3.281   4.747  0.2963 -0.1781 -0.1290
 1202loPI    C219218  13.209   3.519   4.561  0.2141 -0.0189  0.1825
 1202loPI    C319219  13.384   3.220   4.361  0.1346  0.1498 -0.1481
 1202loPI   PO419220  13.364   3.212   4.983  0.0619 -0.1564  0.1567
 1202loPI   GL119221  13.375   3.425   5.402 -0.0215 -0.2046 -0.0079
 1202loPI   GL219222  13.633   3.596   5.415 -0.0322 -0.1318  0.3177
 1202loPI   C1A19223  13.212   3.536   5.754  0.0219  0.0129 -0.1724
 1202loPI   C2A19224  13.393   3.763   6.122  0.1767 -0.0417 -0.1482
 1202loPI   C3A19225  13.421   3.907   6.455  0.1442  0.1146  0.0524
 1202loPI   C4A19226  13.232   3.877   6.970 -0.5437  0.4498 -0.0588
 1202loPI   C5A19227  13.395   3.780   7.315 -0.1178  0.1839 -0.2631
 1202loPI   C6A19228  13.562   3.538   7.743  0.2553 -0.0562  0.3260
 1202loPI   C1B19229  13.781   3.501   5.851 -0.2187 -0.0254 -0.0889
 1202loPI   C2B19230  13.831   3.651   6.295 -0.0264  0.1444 -0.0820
 1202loPI   C3B19231  13.733   3.664   6.760  0.0188  0.3372  0.1121
 1202loPI   C4B19232  13.868   3.845   7.104  0.0470  0.0323 -0.1922
 1203loPI    C119233  19.043  17.828   4.739  0.0805  0.1816 -0.1663
 1203loPI    C219234  18.783  17.997   4.991  0.0240  0.1485 -0.2022
 1203loPI    C319235  18.659  17.865   4.634 -0.0187 -0.3347 -0.0158
 1203loPI   PO419236  19.192  17.702   4.916 -0.3234 -0.2933  0.5181
 1203loPI   GL119237  19.024  17.644   5.313  0.1496 -0.0524  0.1827
 1203loPI   GL219238  18.973  17.398   5.418  0.3841 -0.1086 -0.1402
 1203loPI   C1A19239  19.037  17.855   5.727  0.2706  0.0293  0.4302
 1203loPI   C2A19240  19.346  17.888   6.012 -0.2201  0.0156 -0.0610
 1203loPI   C3A19241  19.547  17.812   6.340 -0.1986 -0.2402  0.1343
 1203loPI   C4A19242  19.672  17.830   6.754 -0.0100 -0.4307 -0.0809
 1203loPI   C5A19243  19.761  18.065   7.159 -0.0355  0.2177 -0.4308
 1203loPI   C6A19244  19.510  17.879   7.494  0.1117 -0.1866 -0.0623
 1203loPI   C1B19245  19.216  17.398   5.851  0.0118 -0.0443 -0.1162
 1203loPI   C2B19246  19.298  17.347   6.233  0.3141 -0.0367  0.0253
 1203loPI   C3B19247  19.432  17.402   6.685 -0.1591 -0.0537  0.1001
 1203loPI   C4B19248  19.864  17.298   6.867  0.0029 -0.0753  0.0943
 1204loPI    C119249  12.481  15.391   4.532 -0.0083 -0.0976 -0.0224
 1204loPI    C219250  12.844  15.290   4.665  0.0353  0.0535 -0.0245
 1204loPI    C319251  12.759  15.673   4.587 -0.0324 -0.0157 -0.3017
 1204loPI   PO419252  12.284  15.299   4.666  0.2480 -0.0346 -0.0848
 1204loPI   GL119253  12.427  15.245   5.115 -0.0615 -0.0042 -0.0908
 1204loPI   GL219254  12.475  15.508   5.034 -0.1845  0.0410  0.2546
 1204loPI   C1A19255  12.553  15.143   5.592  0.3072  0.0786  0.1996
 1204loPI   C2A19256  12.365  15.135   6.005  0.0454 -0.0763 -0.0123
 1204loPI   C3A19257  12.011  15.128   6.293 -0.5367  0.3106  0.1203
 1204loPI   C4A19258  11.783  15.074   6.651  0.1247  0.2670  0.0215
 1204loPI   C5A19259  11.515  15.158   6.952  0.1360 -0.2084  0.2943
 1204loPI   C6A19260  11.213  15.113   7.240 -0.1744  0.2102  0.0048
 1204loPI   C1B19261  12.573  15.673   5.415  0.1426  0.0596 -0.0790
 1204loPI   C2B19262  12.596  15.648   5.817  0.1949  0.2577  0.0897
 1204loPI   C3B19263  12.466  15.603   6.269  0.0030  0.2253  0.1018
 1204loPI   C4B19264  12.528  15.577   6.711  0.1324  0.3638 -0.1307
 1205loPI    C119265  15.238   4.363   4.953  0.1631 -0.1762 -0.4743
 1205loPI    C219266  15.623   4.360   5.060  0.0114  0.1503  0.1279
 1205loPI    C319267  15.461   4.692   4.906 -0.0329  0.0131 -0.1260
 1205loPI   PO419268  15.105   4.310   5.131  0.1402 -0.0622  0.1589
 1205loPI   GL119269  15.231   4.397   5.537  0.0272 -0.0826  0.1698
 1205loPI   GL219270  15.443   4.786   5.411 -0.1706 -0.1770 -0.0520
 1205loPI   C1A19271  15.387   4.376   6.001 -0.0072  0.1027 -0.1565
 1205loPI   C2A19272  15.355   4.400   6.386  0.1102 -0.2778 -0.2537
 1205loPI   C3A19273  14.988   4.416   6.761 -0.2642 -0.2889 -0.1346
 1205loPI   C4A19274  14.810   4.606   7.170  0.1518 -0.4038  0.2899
 1205loPI   C5A19275  14.480   4.702   7.364  0.3989 -0.0241 -0.2368
 1205loPI   C6A19276  14.293   4.899   7.691 -0.0727 -0.0349 -0.0351
 1205loPI   C1B19277  15.619   4.797   5.799 -0.0012  0.0780 -0.0910
 1205loPI   C2B19278  15.726   4.662   6.230  0.0539  0.0469  0.0376
 1205loPI   C3B19279  16.016   4.621   6.531  0.0527 -0.3498 -0.3500
 1205loPI   C4B19280  16.321   4.547   6.868  0.1619  0.2631 -0.3249
 1206loPI    C119281   0.810  10.071   4.046 -0.1418 -0.0800  0.2000
 1206loPI    C219282   0.804   9.736   3.828 -0.1410  0.0802 -0.0500
 1206loPI    C319283   0.788  10.092   3.647 -0.2469  0.2146  0.2191
 1206loPI   PO419284   0.634  10.091   4.206 -0.1920  0.4769 -0.1942
 1206loPI   GL119285   0.606   9.955   4.651 -0.0027  0.1814 -0.2088
 1206loPI   GL219286   0.366  10.182   4.631  0.0988  0.1399  0.3997
 1206loPI   C1A19287   0.559   9.992   5.099 -0.1837 -0.0390  0.2031
 1206loPI   C2A19288   0.720   9.952   5.572 -0.2618 -0.1202 -0.1023
 1206loPI   C3A19289   0.582  10.028   6.060  0.0105  0.1537  0.1443
 1206loPI   C4A19290   0.534  10.172   6.574 -0.0590 -0.1036 -0.0571
 1206loPI   C5A19291   0.529  10.608   6.749 -0.0648  0.2463 -0.2174
 1206loPI   C6A19292   0.713  10.966   6.909 -0.0001  0.0515 -0.1488
 1206loPI   C1B19293   0.181  10.332   5.016 -0.1320 -0.0399 -0.0193
 1206loPI   C2B19294   0.272  10.212   5.484 -0.4399  0.1013 -0.0300
 1206loPI   C3B19295   0.154  10.050   5.873 -0.0349  0.3066 -0.1150
 1206loPI   C4B19296   0.094  10.122   6.344 -0.0598  0.0424 -0.0629
 1207loPI    C119297  15.793  13.802   4.650 -0.0071 -0.0846  0.0157
 1207loPI    C219298  15.682  13.730   4.273  0.2857  0.0195 -0.0934
 1207loPI    C319299  15.802  14.096   4.379  0.0117  0.0412  0.1519
 1207loPI   PO419300  15.646  13.698   4.854 -0.2423 -0.1318  0.0506
 1207loPI   GL119301  15.886  13.441   5.163 -0.1367  0.0512 -0.2938
 1207loPI   GL219302  16.104  13.651   5.138  0.2845  0.0626  0.1380
 1207loPI   C1A19303  15.753  13.251   5.532  0.1979  0.0670 -0.0111
 1207loPI   C2A19304  15.790  12.869   5.714  0.1037  0.2285  0.0646
 1207loPI   C3A19305  16.048  12.833   6.013 -0.1122  0.0569 -0.1962
 1207loPI   C4A19306  15.808  12.857   6.449  0.1405  0.0630 -0.1830
 1207loPI   C5A19307  15.826  12.586   6.832  0.0354 -0.3641  0.0133
 1207loPI   C6A19308  16.091  12.108   6.977  0.1040  0.2138  0.4984
 1207loPI   C1B19309  16.078  13.705   5.552  0.1548 -0.1678 -0.1811
 1207loPI   C2B19310  16.180  13.696   6.001  0.2132  0.0791 -0.1538
 1207loPI   C3B19311  16.084  13.787   6.359  0.0399 -0.0270  0.0322
 1207loPI   C4B19312  16.127  13.996   6.702 -0.2992  0.1623 -0.2095
 1208loPI    C119313   2.399  18.716   4.524 -0.0794  0.1308 -0.0084
 1208loPI    C219314   2.013  18.784   4.447 -0.0835  0.0921 -0.0217
 1208loPI    C319315   2.222  18.535   4.215 -0.1088 -0.0642  0.1212
 1208loPI   PO419316   2.431  18.658   4.765  0.2048  0.2002 -0.1231
 1208loPI   GL119317   2.493  18.743   5.198  0.1139 -0.0028  0.0290
 1208loPI   GL219318   2.739  18.608   5.413 -0.0091 -0.0681 -0.1596
 1208loPI   C1A19319   2.602  19.145   5.616  0.0334 -0.1466 -0.0010
 1208loPI   C2A19320   2.547  19.221   6.070  0.2000  0.0674 -0.3166
 1208loPI   C3A19321   2.685  19.359   6.584  0.2168  0.1814 -0.0734
 1208loPI   C4A19322   2.598  19.657   6.947  0.1307 -0.3758 -0.0629
 1208loPI   C5A19323   2.227  19.688   7.271  0.0512 -0.2900 -0.0028
 1208loPI   C6A19324   2.347  19.324   7.436 -0.3619 -0.2753 -0.0629
 1208loPI   C1B19325   2.791  18.743   5.875  0.1642 -0.0271 -0.3192
 1208loPI   C2B19326   2.803  18.829   6.375 -0.0424 -0.4956 -0.2253
 1208loPI   C3B19327   2.822  18.714   6.761 -0.2593 -0.0947 -0.3022
 1208loPI   C4B19328   2.923  18.804   7.254 -0.2366  0.1109 -0.1081
 1209loPI    C119329  16.028  15.894   4.562 -0.0707 -0.0797 -0.1740
 1209loPI    C219330  16.178  16.251   4.462 -0.0802 -0.0599 -0.1175
 1209loPI    C319331  16.087  15.986   4.177 -0.0053 -0.0445 -0.1557
 1209loPI   PO419332  15.934  15.871   4.774 -0.2624 -0.2186 -0.0050
 1209loPI   GL119333  15.913  15.867   5.215  0.2792 -0.0990  0.0819
 1209loPI   GL219334  16.118  16.091   5.412 -0.0222 -0.2133 -0.0500
 1209loPI   C1A19335  15.781  15.689   5.543  0.2464  0.1481  0.1802
 1209loPI   C2A19336  15.928  15.833   5.945 -0.2536  0.0972  0.0496
 1209loPI   C3A19337  15.989  15.665   6.316 -0.1934 -0.0160  0.0334
 1209loPI   C4A19338  16.107  15.431   6.704 -0.2440  0.2494 -0.0641
 1209loPI   C5A19339  16.161  15.315   7.130 -0.1649 -0.1453  0.2103
 1209loPI   C6A19340  16.297  15.150   7.498 -0.1762 -0.1776 -0.2001
 1209loPI   C1B19341  16.215  16.264   5.770  0.0512  0.2067 -0.2298
 1209loPI   C2B19342  16.468  16.510   6.024  0.2482  0.2960 -0.6416
 1209loPI   C3B19343  16.378  16.669   6.384  0.1530 -0.0218  0.2947
 1209loPI   C4B19344  16.413  16.694   6.853  0.3428  0.0736  0.1422
 1210loPI    C119345  10.828  15.561   4.467  0.1142 -0.0659  0.1686
 1210loPI    C219346  11.122  15.294   4.416 -0.0015 -0.1380 -0.1452
 1210loPI    C319347  10.773  15.246   4.227 -0.0568  0.1873 -0.1319
 1210loPI   PO419348  10.827  15.551   4.743  0.0637  0.1603  0.0193
 1210loPI   GL119349  10.767  15.397   5.136 -0.1787 -0.1284 -0.0409
 1210loPI   GL219350  10.425  15.319   5.059 -0.1355 -0.1690 -0.1034
 1210loPI   C1A19351  11.079  15.324   5.474 -0.2586 -0.0448  0.0815
 1210loPI   C2A19352  11.285  15.243   5.820 -0.1427  0.0590  0.1456
 1210loPI   C3A19353  11.518  15.179   6.050  0.2407 -0.3684 -0.2796
 1210loPI   C4A19354  11.319  14.961   6.479 -0.0827 -0.1098  0.0290
 1210loPI   C5A19355  11.278  14.736   6.826  0.5452  0.0449  0.2330
 1210loPI   C6A19356  11.531  14.623   7.261  0.0646  0.1969 -0.0431
 1210loPI   C1B19357  10.560  15.190   5.550  0.0692  0.2805 -0.0015
 1210loPI   C2B19358  10.718  15.029   5.746  0.0192  0.2656 -0.1358
 1210loPI   C3B19359  10.927  15.041   6.086  0.0559  0.2119 -0.1674
 1210loPI   C4B19360  10.869  14.754   6.505 -0.4400 -0.0489  0.0860
 1211loPI    C119361   6.731   0.872   4.622 -0.2938  0.2533  0.0810
 1211loPI    C219362   6.334   0.863   4.569 -0.2864  0.2881  0.0180
 1211loPI    C319363   6.573   0.651   4.328 -0.2559  0.4027 -0.0534
 1211loPI   PO419364   6.768   0.766   4.900  0.1470 -0.1090  0.0598
 1211loPI   GL119365   6.622   0.792   5.332  0.1848 -0.1778 -0.3553
 1211loPI   GL219366   6.865   1.111   5.241  0.1713  0.0838 -0.1884
 1211loPI   C1A19367   6.714   0.847   5.675 -0.3269  0.0280  0.1848
 1211loPI   C2A19368   6.980   0.916   6.052 -0.1361  0.1272  0.1399
 1211loPI   C3A19369   7.211   0.939   6.444  0.1675  0.2146 -0.3955
 1211loPI   C4A19370   7.638   0.983   6.781 -0.1282 -0.2075  0.0778
 1211loPI   C5A19371   7.750   1.197   7.107  0.1672  0.0838  0.2332
 1211loPI   C6A19372   7.660   1.149   7.440 -0.1740  0.0557 -0.0670
 1211loPI   C1B19373   7.067   1.285   5.495  0.1725  0.3321  0.0246
 1211loPI   C2B19374   7.163   1.339   5.974  0.1740 -0.1837  0.0999
 1211loPI   C3B19375   6.946   1.384   6.338  0.0952  0.2112  0.0731
 1211loPI   C4B19376   6.826   1.484   6.741 -0.1716 -0.0475  0.1441
 1212loPI    C119377   9.437   8.694   4.969 -0.0131 -0.1297 -0.1288
 1212loPI    C219378   9.203   8.497   5.227  0.3041 -0.4567 -0.0812
 1212loPI    C319379   9.052   8.631   4.881 -0.1248 -0.0193  0.2606
 1212loPI   PO419380   9.647   8.582   4.924  0.1187 -0.3691 -0.1933
 1212loPI   GL119381   9.778   8.386   5.263 -0.0640 -0.1179  0.1664
 1212loPI   GL219382  10.161   8.157   5.220  0.1214 -0.0301  0.0868
 1212loPI   C1A19383   9.508   8.507   5.600 -0.0573  0.0179  0.1978
 1212loPI   C2A19384   9.387   8.595   5.964 -0.2156  0.0996  0.1225
 1212loPI   C3A19385   9.323   8.755   6.389  0.1221 -0.1876 -0.2090
 1212loPI   C4A19386   8.924   8.965   6.506  0.0260  0.0853  0.1368
 1212loPI   C5A19387   8.616   9.032   6.739 -0.1526 -0.0735  0.0536
 1212loPI   C6A19388   8.639   9.223   7.119  0.1747  0.0707  0.0627
 1212loPI   C1B19389   9.901   8.099   5.688  0.1418  0.1282  0.1510
 1212loPI   C2B19390   9.718   8.223   5.989  0.0143  0.0771 -0.0390
 1212loPI   C3B19391   9.750   8.109   6.483  0.1845  0.2659  0.2695
 1212loPI   C4B19392   9.921   7.933   6.870  0.0942 -0.0491  0.0522
 1213loPI    C119393  14.848  15.992   4.606 -0.0614  0.1228 -0.2193
 1213loPI    C219394  15.122  16.060   4.323  0.0143  0.0572 -0.1622
 1213loPI    C319395  15.190  15.785   4.606 -0.1385 -0.0065 -0.1862
 1213loPI   PO419396  14.795  16.276   4.798  0.1494 -0.0594  0.4203
 1213loPI   GL119397  14.982  16.421   5.154 -0.2357 -0.1652  0.0879
 1213loPI   GL219398  14.902  16.152   5.347 -0.0978  0.0143 -0.1205
 1213loPI   C1A19399  14.790  16.650   5.365  0.0857  0.3026 -0.1322
 1213loPI   C2A19400  14.741  16.845   5.704 -0.0086  0.1334 -0.1379
 1213loPI   C3A19401  14.798  16.640   6.063 -0.1806 -0.0464  0.1265
 1213loPI   C4A19402  14.744  16.603   6.446  0.0895 -0.1104  0.1922
 1213loPI   C5A19403  14.516  16.788   6.869  0.0840 -0.0387 -0.0985
 1213loPI   C6A19404  14.462  16.833   7.265 -0.0717  0.0349 -0.0966
 1213loPI   C1B19405  14.816  16.280   5.759 -0.0696  0.0050 -0.2780
 1213loPI   C2B19406  14.674  16.186   6.173  0.0358  0.0563  0.4106
 1213loPI   C3B19407  14.725  16.115   6.647 -0.0070 -0.1214 -0.0507
 1213loPI   C4B19408  14.741  16.350   6.996  0.0916 -0.0019 -0.0121
 1214loPI    C119409   9.665  10.941   4.521  0.1666 -0.0531  0.1160
 1214loPI    C219410  10.054  10.880   4.450  0.1065 -0.0568 -0.2288
 1214loPI    C319411   9.883  11.226   4.345  0.1192  0.1446  0.3709
 1214loPI   PO419412   9.630  10.876   4.814 -0.0593 -0.0735  0.0693
 1214loPI   GL119413   9.629  10.876   5.332  0.3978  0.1689 -0.2660
 1214loPI   GL219414   9.259  10.891   5.166 -0.0279 -0.1512 -0.2073
 1214loPI   C1A19415   9.323  11.112   5.615  0.0472 -0.0074  0.0853
 1214loPI   C2A19416   9.132  11.216   5.968  0.2832 -0.3092 -0.1149
 1214loPI   C3A19417   8.912  11.071   6.280 -0.1768 -0.1433  0.0085
 1214loPI   C4A19418   8.717  10.935   6.662  0.2010  0.0632 -0.1192
 1214loPI   C5A19419   8.260  10.694   6.695  0.3333 -0.0866  0.2471
 1214loPI   C6A19420   8.228  10.795   7.262 -0.0011  0.2972 -0.3249
 1214loPI   C1B19421   9.057  10.653   5.490 -0.1679 -0.0186 -0.3502
 1214loPI   C2B19422   9.171  10.707   5.833  0.0136  0.1039  0.2217
 1214loPI   C3B19423   9.393  10.835   6.172 -0.1721 -0.1566 -0.0471
 1214loPI   C4B19424   9.309  10.814   6.608 -0.0404  0.1693  0.1840
 1215loPI    C119425  12.141  13.860   4.687 -0.1418 -0.0869  0.0439
 1215loPI    C219426  12.048  13.665   4.350  0.0386  0.1051 -0.1200
 1215loPI    C319427  12.318  13.511   4.601  0.0199  0.0382 -0.1407
 1215loPI   PO419428  11.922  13.998   4.782  0.0106  0.0261 -0.0877
 1215loPI   GL119429  11.689  13.908   5.186  0.2186 -0.2468  0.0042
 1215loPI   GL219430  11.249  13.769   5.211  0.0849  0.1177  0.1827
 1215loPI   C1A19431  11.769  13.700   5.521 -0.1382 -0.1006  0.2114
 1215loPI   C2A19432  11.779  13.394   5.873 -0.3586 -0.0242  0.0875
 1215loPI   C3A19433  11.594  13.235   6.190  0.0646 -0.0828 -0.1665
 1215loPI   C4A19434  11.402  13.089   6.574  0.0118  0.1686 -0.0224
 1215loPI   C5A19435  11.701  12.913   6.833 -0.3934 -0.2679  0.0635
 1215loPI   C6A19436  11.696  12.861   7.295 -0.0743 -0.1010 -0.0779
 1215loPI   C1B19437  11.156  13.918   5.582  0.1163  0.1686  0.1704
 1215loPI   C2B19438  10.980  14.080   6.030 -0.1039  0.1160  0.2526
 1215loPI   C3B19439  10.758  14.278   6.401 -0.0475  0.0068  0.0114
 1215loPI   C4B19440  10.796  14.257   6.854  0.0267  0.2279 -0.1569
 1216loPI    C119441   7.739   9.351   4.353  0.2509  0.1038 -0.2262
 1216loPI    C219442   7.919   9.142   4.063  0.1915 -0.0645 -0.1432
 1216loPI    C319443   7.548   9.045   4.179  0.2343 -0.0311  0.0241
 1216loPI   PO419444   7.911   9.330   4.525  0.3255 -0.0621 -0.0557
 1216loPI   GL119445   8.191   9.209   4.807 -0.0090  0.1480 -0.0317
 1216loPI   GL219446   7.858   9.163   5.052  0.1823 -0.0780 -0.0023
 1216loPI   C1A19447   8.298   9.421   5.129  0.2903 -0.2878  0.3370
 1216loPI   C2A19448   8.203   9.530   5.529 -0.1911 -0.2117 -0.2750
 1216loPI   C3A19449   8.145   9.468   6.017 -0.0540 -0.0026  0.0988
 1216loPI   C4A19450   8.319   9.307   6.390  0.2650 -0.0305 -0.5052
 1216loPI   C5A19451   8.134   9.165   6.860  0.0936 -0.0959 -0.0720
 1216loPI   C6A19452   8.194   9.175   7.370 -0.1951 -0.2639  0.3315
 1216loPI   C1B19453   7.951   9.030   5.450 -0.0225 -0.1465  0.0606
 1216loPI   C2B19454   8.025   9.031   5.917  0.0153  0.2168 -0.0891
 1216loPI   C3B19455   8.092   8.869   6.319 -0.3546 -0.1746  0.1935
 1216loPI   C4B19456   7.981   8.708   6.677 -0.1349 -0.0777  0.0796
 1217loPI    C119457  12.146   0.723   5.028  0.0161 -0.0978 -0.0092
 1217loPI    C219458  11.763   0.825   5.075  0.0979  0.1139  0.2238
 1217loPI    C319459  11.858   0.461   4.940 -0.1892  0.1634 -0.1276
 1217loPI   PO419460  12.309   0.952   5.307  0.2402 -0.1547 -0.0810
 1217loPI   GL119461  12.361   1.122   5.623 -0.0288 -0.1811 -0.2091
 1217loPI   GL219462  12.698   1.185   5.551  0.0050 -0.1232 -0.1817
 1217loPI   C1A19463  12.278   1.197   6.148 -0.1453 -0.0396  0.1741
 1217loPI   C2A19464  12.147   1.369   6.425  0.0267 -0.1368 -0.1235
 1217loPI   C3A19465  12.256   1.339   6.808 -0.0370 -0.0315  0.1125
 1217loPI   C4A19466  12.409   1.074   7.232  0.1732  0.0072  0.3769
 1217loPI   C5A19467  12.727   0.964   7.369  0.0587  0.2692  0.4586
 1217loPI   C6A19468  12.767   0.737   7.831 -0.1486 -0.2229  0.0804
 1217loPI   C1B19469  12.779   0.925   5.908  0.0930  0.1755 -0.0583
 1217loPI   C2B19470  13.048   0.912   6.271  0.0037  0.0118 -0.0307
 1217loPI   C3B19471  13.051   1.150   6.505 -0.1583 -0.0102 -0.0633
 1217loPI   C4B19472  12.786   1.203   6.849  0.3182  0.1163  0.0490
 1218loPI    C119473  10.341  11.827   4.399  0.0293 -0.2318 -0.2521
 1218loPI    C219474  10.023  11.959   4.195 -0.1619 -0.1912  0.0657
 1218loPI    C319475  10.188  11.606   4.103 -0.0753 -0.0524 -0.3339
 1218loPI   PO419476  10.239  11.851   4.718  0.0616  0.3403 -0.0191
 1218loPI   GL119477  10.140  11.731   5.100  0.0397  0.0665  0.1648
 1218loPI   GL219478  10.332  11.941   5.264 -0.0258  0.0005  0.1158
 1218loPI   C1A19479  10.301  11.493   5.476  0.1003 -0.1971  0.0796
 1218loPI   C2A19480  10.442  11.728   5.857 -0.1758  0.1173  0.1453
 1218loPI   C3A19481  10.525  11.568   6.195 -0.0814  0.2346  0.0729
 1218loPI   C4A19482  10.702  11.257   6.647 -0.0157  0.2277  0.1088
 1218loPI   C5A19483  10.889  11.422   7.036 -0.3158  0.2501  0.0525
 1218loPI   C6A19484  11.348  11.602   7.032  0.0862  0.2327 -0.1040
 1218loPI   C1B19485  10.311  12.121   5.648  0.0020 -0.0135 -0.2743
 1218loPI   C2B19486  10.233  12.181   6.089  0.2141  0.2371 -0.0548
 1218loPI   C3B19487  10.237  12.513   6.270 -0.1997  0.0833 -0.2640
 1218loPI   C4B19488  10.469  12.926   6.206  0.1869  0.2303  0.0880
 1219loPI    C119489   5.970   6.434   4.753  0.0487 -0.2853 -0.0740
 1219loPI    C219490   5.761   6.368   4.419  0.0014 -0.3645 -0.0291
 1219loPI    C319491   6.103   6.170   4.484  0.2525 -0.0132 -0.2456
 1219loPI   PO419492   5.887   6.489   4.980  0.1240 -0.1148  0.1157
 1219loPI   GL119493   5.991   6.459   5.375  0.1320  0.0555  0.0819
 1219loPI   GL219494   6.313   6.304   5.361 -0.0583 -0.0371  0.0298
 1219loPI   C1A19495   6.209   6.796   5.586 -0.2012  0.2302  0.1055
 1219loPI   C2A19496   6.267   6.881   6.022 -0.1287  0.3754  0.0068
 1219loPI   C3A19497   6.131   6.766   6.439  0.2505 -0.2591  0.1077
 1219loPI   C4A19498   6.068   6.357   6.529  0.3010 -0.1152 -0.1576
 1219loPI   C5A19499   6.299   6.104   6.900 -0.1362 -0.1239  0.0365
 1219loPI   C6A19500   6.265   6.120   7.385  0.0572 -0.1269  0.3111
 1219loPI   C1B19501   6.454   6.398   5.747 -0.4178 -0.1013  0.3526
 1219loPI   C2B19502   6.489   6.277   6.209 -0.2230 -0.0292  0.0279
 1219loPI   C3B19503   6.623   6.417   6.613  0.0285  0.1639  0.2845
 1219loPI   C4B19504   6.653   6.355   7.068  0.1272 -0.0950  0.0731
 1220loPI    C119505   8.728   8.858   4.289 -0.3479  0.1847 -0.2999
 1220loPI    C219506   8.801   9.161   4.039 -0.0206  0.2067 -0.1825
 1220loPI    C319507   8.985   8.810   3.987 -0.1765  0.1186 -0.1453
 1220loPI   PO419508   8.785   8.965   4.540 -0.2960  0.0950  0.4517
 1220loPI   GL119509   8.721   9.039   4.975  0.0349 -0.0872 -0.1871
 1220loPI   GL219510   8.856   9.340   5.069 -0.0508 -0.0392  0.0902
 1220loPI   C1A19511   8.827   8.851   5.273 -0.5154 -0.3350 -0.2338
 1220loPI   C2A19512   8.755   8.487   5.605  0.2296 -0.0820  0.1036
 1220loPI   C3A19513   8.851   8.521   5.929 -0.1282  0.0987  0.0239
 1220loPI   C4A19514   8.759   8.346   6.290 -0.2180 -0.0340 -0.2911
 1220loPI   C5A19515   8.764   8.207   6.767  0.3502  0.1452  0.1842
 1220loPI   C6A19516   8.533   8.325   7.072 -0.0850  0.1537 -0.1004
 1220loPI   C1B19517   8.762   9.392   5.437 -0.0853  0.1123 -0.2870
 1220loPI   C2B19518   8.948   9.605   5.792 -0.0847 -0.4000  0.0953
 1220loPI   C3B19519   8.877   9.873   6.136  0.3603 -0.0364  0.1698
 1220loPI   C4B19520   9.016   9.887   6.550 -0.3492 -0.0249 -0.0736
 1221loPI    C119521  17.537   9.571   3.887  0.0375  0.0691  0.1119
 1221loPI    C219522  17.220   9.804   3.813  0.1415  0.1415 -0.1169
 1221loPI    C319523  17.294   9.488   3.580  0.1787  0.0622  0.0012
 1221loPI   PO419524  17.540   9.560   4.212 -0.1650 -0.1458 -0.0247
 1221loPI   GL119525  17.736   9.446   4.640  0.0184 -0.3959  0.0941
 1221loPI   GL219526  17.426   9.600   4.700 -0.2177  0.2575  0.0244
 1221loPI   C1A19527  17.840   9.730   5.016 -0.1688 -0.3433 -0.2149
 1221loPI   C2A19528  17.873   9.755   5.462 -0.1929  0.2307  0.2468
 1221loPI   C3A19529  17.808   9.690   5.918  0.0038 -0.1915  0.0289
 1221loPI   C4A19530  17.876   9.436   6.347  0.0921 -0.1007  0.3080
 1221loPI   C5A19531  17.685   9.610   6.712  0.1560 -0.0382  0.2863
 1221loPI   C6A19532  17.493   9.882   6.948  0.1091  0.3745 -0.3751
 1221loPI   C1B19533  17.385   9.508   5.124 -0.1296  0.0776 -0.2526
 1221loPI   C2B19534  17.425   9.372   5.523 -0.0257  0.2433 -0.0511
 1221loPI   C3B19535  17.478   9.305   6.013 -0.1673  0.3509  0.0311
 1221loPI   C4B19536  17.452   9.248   6.475  0.0078  0.2577  0.1631
 1222loPI    C119537  17.753  16.716   4.747  0.0277 -0.1145  0.3459
 1222loPI    C219538  17.384  16.687   4.900 -0.1337  0.1103  0.0110
 1222loPI    C319539  17.449  16.597   4.515  0.0652  0.5374 -0.0616
 1222loPI   PO419540  17.848  16.917   4.835 -0.3762 -0.3621 -0.1310
 1222loPI   GL119541  17.881  17.159   5.225 -0.3167  0.0357 -0.0882
 1222loPI   GL219542  17.561  17.172   5.133  0.0748  0.1288  0.2971
 1222loPI   C1A19543  18.090  16.909   5.578  0.1508 -0.0900  0.0070
 1222loPI   C2A19544  18.124  16.725   6.009  0.2402 -0.2321 -0.4814
 1222loPI   C3A19545  18.150  16.437   6.395  0.0387  0.0580  0.1030
 1222loPI   C4A19546  18.248  16.241   6.708 -0.0571  0.0490 -0.0754
 1222loPI   C5A19547  18.214  15.823   6.887 -0.0412 -0.0575  0.0025
 1222loPI   C6A19548  17.971  15.688   7.267 -0.1445 -0.0159 -0.5656
 1222loPI   C1B19549  17.471  16.899   5.450 -0.0188 -0.2845  0.1590
 1222loPI   C2B19550  17.217  16.917   5.840 -0.3742  0.0100  0.1117
 1222loPI   C3B19551  17.024  16.929   6.195 -0.3577 -0.2425  0.2156
 1222loPI   C4B19552  16.835  16.791   6.602 -0.1747 -0.2812 -0.0629
 1223loPI    C119553  12.446   7.798   5.016  0.0337 -0.0659 -0.0566
 1223loPI    C219554  12.432   8.030   4.690 -0.1184  0.1603  0.1081
 1223loPI    C319555  12.278   7.661   4.680  0.2236  0.0193 -0.1888
 1223loPI   PO419556  12.305   7.963   5.242  0.1813  0.3858  0.1725
 1223loPI   GL119557  11.931   8.135   5.471  0.1086  0.1107  0.0950
 1223loPI   GL219558  11.886   7.871   5.484  0.1699  0.0718 -0.2354
 1223loPI   C1A19559  11.779   8.094   5.924  0.2182  0.0476 -0.0697
 1223loPI   C2A19560  11.766   8.292   6.341  0.0712 -0.3734 -0.1677
 1223loPI   C3A19561  11.739   8.545   6.731  0.0654  0.0057 -0.0919
 1223loPI   C4A19562  11.810   8.698   7.108 -0.0150 -0.0801 -0.2059
 1223loPI   C5A19563  11.515   8.977   7.391 -0.0757 -0.1775  0.2896
 1223loPI   C6A19564  11.347   8.777   7.738  0.2846  0.4018  0.0086
 1223loPI   C1B19565  12.136   7.752   5.828 -0.2153  0.2212 -0.0025
 1223loPI   C2B19566  12.239   7.664   6.198  0.0842 -0.1410 -0.1787
 1223loPI   C3B19567  12.357   7.642   6.649 -0.2609 -0.0677  0.0500
 1223loPI   C4B19568  12.316   7.861   7.030 -0.1208  0.0411 -0.0134
 1224loPI    C119569   2.086  10.811   4.105  0.0834 -0.1622  0.0621
 1224loPI    C219570   2.246  10.732   4.463  0.0106  0.1690  0.1713
 1224loPI    C319571   2.483  10.778   4.144  0.0704 -0.2051  0.1581
 1224loPI   PO419572   1.876  10.962   4.156  0.0602  0.2532  0.0005
 1224loPI   GL119573   1.737  10.936   4.587  0.4126 -0.2063  0.4720
 1224loPI   GL219574   1.871  10.668   4.756 -0.1857 -0.0023 -0.0108
 1224loPI   C1A19575   1.452  11.241   4.822 -0.1736 -0.2794 -0.1324
 1224loPI   C2A19576   1.418  11.257   5.222  0.2028  0.0461  0.2631
 1224loPI   C3A19577   1.593  11.689   5.448 -0.0503  0.1942  0.0955
 1224loPI   C4A19578   1.527  12.130   5.673  0.1826  0.1490 -0.0816
 1224loPI   C5A19579   1.523  12.144   6.086 -0.0196  0.2281  0.0010
 1224loPI   C6A19580   1.638  11.940   6.529  0.2474 -0.0464  0.1128
 1224loPI   C1B19581   2.207  10.548   5.051  0.1630 -0.0771  0.0672
 1224loPI   C2B19582   2.331  10.632   5.388 -0.0753  0.4098  0.0081
 1224loPI   C3B19583   2.219  10.879   5.753 -0.0248  0.0330  0.0086
 1224loPI   C4B19584   1.931  11.184   5.932 -0.0709  0.0188  0.1510
 1225loPI    C119585   9.890   4.651   4.918  0.0355  0.0870 -0.2503
 1225loPI    C219586   9.514   4.770   4.850 -0.0088  0.0526 -0.0708
 1225loPI    C319587   9.773   4.742   4.547 -0.1327  0.1390 -0.1856
 1225loPI   PO419588   9.803   4.433   5.120 -0.0269  0.0861 -0.0347
 1225loPI   GL119589   9.935   4.355   5.489  0.2967 -0.0345 -0.1600
 1225loPI   GL219590  10.201   4.529   5.591  0.1379  0.1293 -0.0115
 1225loPI   C1A19591   9.641   4.576   5.913  0.0108  0.0493  0.1492
 1225loPI   C2A19592   9.623   4.535   6.289 -0.0824 -0.1808 -0.0059
 1225loPI   C3A19593   9.603   4.598   6.734  0.1401  0.1959  0.2065
 1225loPI   C4A19594   9.404   4.691   7.167 -0.0753 -0.0673 -0.2473
 1225loPI   C5A19595   9.338   5.006   7.544  0.2391  0.0190 -0.0411
 1225loPI   C6A19596   9.294   5.484   7.614  0.1593 -0.0913 -0.0181
 1225loPI   C1B19597  10.087   4.422   6.025  0.1960 -0.0140  0.0248
 1225loPI   C2B19598  10.073   4.393   6.432 -0.2400  0.1686  0.1718
 1225loPI   C3B19599  10.119   4.462   6.912  0.0062 -0.0164 -0.0310
 1225loPI   C4B19600   9.924   4.425   7.372 -0.0894 -0.1656  0.1063
 1226loPI    C119601  12.934   8.237   4.593 -0.1308  0.3090  0.1057
 1226loPI    C219602  13.125   8.177   4.247  0.0223 -0.1099  0.2560
 1226loPI    C319603  12.725   8.184   4.256  0.0172 -0.1113  0.0748
 1226loPI   PO419604  13.130   8.368   4.803  0.0880  0.3524  0.2443
 1226loPI   GL119605  13.404   8.321   5.151  0.0247  0.0717 -0.2559
 1226loPI   GL219606  13.180   8.334   5.338  0.3777  0.0618 -0.0458
 1226loPI   C1A19607  13.635   8.067   5.378 -0.0398 -0.1597  0.1486
 1226loPI   C2A19608  13.671   7.935   5.805 -0.2118 -0.1541 -0.2480
 1226loPI   C3A19609  13.732   7.966   6.152  0.2119 -0.1754  0.1293
 1226loPI   C4A19610  13.668   7.750   6.531  0.2378  0.0334 -0.3258
 1226loPI   C5A19611  13.774   7.672   7.001  0.1643 -0.2791 -0.1855
 1226loPI   C6A19612  13.748   7.392   7.326  0.0002  0.1704 -0.2229
 1226loPI   C1B19613  13.159   8.043   5.668 -0.2460 -0.4999  0.3837
 1226loPI   C2B19614  13.069   8.099   6.068 -0.3521 -0.0350 -0.0494
 1226loPI   C3B19615  13.001   8.330   6.438  0.2367  0.3688  0.0440
 1226loPI   C4B19616  13.187   8.182   6.811 -0.1277  0.0302 -0.2683
 1227loPI    C119617  11.963   6.374   4.990 -0.2520 -0.1205 -0.3478
 1227loPI    C219618  12.201   6.548   4.720 -0.0823  0.1346 -0.0401
 1227loPI    C319619  12.314   6.208   4.897 -0.1156  0.0590 -0.1634
 1227loPI   PO419620  11.953   6.457   5.212  0.5438  0.0151  0.2545
 1227loPI   GL119621  12.057   6.748   5.555 -0.3792  0.0011 -0.1307
 1227loPI   GL219622  12.281   6.471   5.535 -0.0825  0.0556 -0.0789
 1227loPI   C1A19623  12.274   6.764   5.996 -0.0174 -0.1319  0.0523
 1227loPI   C2A19624  12.108   6.627   6.371 -0.0930 -0.0685 -0.0599
 1227loPI   C3A19625  12.347   6.628   6.769  0.2065  0.0671 -0.0749
 1227loPI   C4A19626  12.338   6.538   7.194  0.1910 -0.2755 -0.0186
 1227loPI   C5A19627  12.112   6.278   7.449 -0.0693 -0.1619 -0.1482
 1227loPI   C6A19628  12.290   5.865   7.636 -0.4401  0.1051  0.1040
 1227loPI   C1B19629  12.564   6.386   6.021 -0.3891 -0.0377  0.0489
 1227loPI   C2B19630  12.639   6.645   6.357 -0.2509 -0.0990 -0.0118
 1227loPI   C3B19631  12.728   6.891   6.671  0.3643  0.0328  0.1084
 1227loPI   C4B19632  12.740   7.327   6.539 -0.0438  0.0590  0.0872
 1228loPI    C119633  17.007  17.087   4.439  0.2018 -0.0805  0.0176
 1228loPI    C219634  17.387  17.106   4.563  0.2518 -0.3959 -0.0807
 1228loPI    C319635  17.305  17.091   4.172  0.1076  0.2871 -0.0880
 1228loPI   PO419636  16.924  16.863   4.671  0.2506  0.0833  0.0932
 1228loPI   GL119637  16.957  16.589   5.052  0.2738 -0.1699  0.0067
 1228loPI   GL219638  16.822  16.348   5.116 -0.3503  0.0326 -0.1849
 1228loPI   C1A19639  16.930  16.670   5.522  0.0954 -0.0871  0.0637
 1228loPI   C2A19640  17.041  16.522   5.984  0.0457 -0.2012  0.2132
 1228loPI   C3A19641  16.885  16.266   6.307 -0.0674 -0.0843  0.0312
 1228loPI   C4A19642  16.786  16.278   6.724 -0.0632 -0.0680  0.1917
 1228loPI   C5A19643  16.520  16.250   7.046  0.1304 -0.1377  0.1405
 1228loPI   C6A19644  16.521  16.192   7.489 -0.1773  0.0063  0.2633
 1228loPI   C1B19645  16.695  16.196   5.535  0.0610 -0.0582 -0.0445
 1228loPI   C2B19646  16.708  16.126   5.864  0.0637 -0.1748 -0.0281
 1228loPI   C3B19647  16.469  15.948   6.228  0.0177  0.0140  0.2064
 1228loPI   C4B19648  16.096  16.177   6.303 -0.0913  0.1134  0.0412
 1229loPI    C119649  17.518  13.748   4.552 -0.0277  0.5573 -0.1520
 1229loPI    C219650  17.703  13.640   4.215  0.2870 -0.0172  0.1882
 1229loPI    C319651  17.307  13.696   4.216  0.2780 -0.0295 -0.2666
 1229loPI   PO419652  17.550  13.547   4.762  0.0567  0.0205 -0.2821
 1229loPI   GL119653  17.537  13.326   5.067  0.0483 -0.0211  0.1810
 1229loPI   GL219654  17.243  13.196   5.031  0.2901 -0.0119 -0.0781
 1229loPI   C1A19655  17.434  13.602   5.404  0.0210 -0.2357 -0.3060
 1229loPI   C2A19656  17.472  13.766   5.753  0.0422 -0.1615 -0.0905
 1229loPI   C3A19657  17.416  13.885   6.219  0.0255  0.0117 -0.0514
 1229loPI   C4A19658  17.712  13.811   6.543 -0.3006  0.0346  0.2195
 1229loPI   C5A19659  17.904  13.934   6.962 -0.1952  0.0442 -0.0278
 1229loPI   C6A19660  18.218  14.275   7.095 -0.2155  0.0942  0.0374
 1229loPI   C1B19661  17.191  12.879   5.327  0.0929 -0.3171 -0.1587
 1229loPI   C2B19662  17.107  12.714   5.721 -0.0408  0.0491 -0.0735
 1229loPI   C3B19663  16.971  12.534   6.087 -0.1825 -0.3420 -0.2074
 1229loPI   C4B19664  16.900  12.547   6.502 -0.0133  0.0197  0.1604
 1230loPI    C119665  16.315  10.644   4.200  0.2648  0.1782 -0.0678
 1230loPI    C219666  15.972  10.849   4.209  0.0050 -0.2347 -0.2615
 1230loPI    C319667  16.275  10.977   3.982 -0.0683  0.0554 -0.2000
 1230loPI   PO419668  16.246  10.529   4.437  0.0712 -0.0959 -0.2649
 1230loPI   GL119669  16.132  10.366   4.689  0.0547 -0.3135 -0.0081
 1230loPI   GL219670  15.978  10.114   4.578 -0.5862 -0.2150 -0.1484
 1230loPI   C1A19671  15.988  10.410   5.118  0.0430  0.2854  0.0327
 1230loPI   C2A19672  16.203  10.176   5.452  0.0990  0.1622  0.2211
 1230loPI   C3A19673  16.336  10.196   5.819 -0.0365 -0.3455 -0.0276
 1230loPI   C4A19674  16.444  10.200   6.295 -0.1351 -0.1167  0.0948
 1230loPI   C5A19675  16.430  10.228   6.708 -0.0440 -0.0155 -0.1210
 1230loPI   C6A19676  16.702  10.452   7.089  0.0075  0.2125 -0.2790
 1230loPI   C1B19677  16.046   9.901   5.003  0.0614 -0.0780  0.1307
 1230loPI   C2B19678  15.971   9.635   5.242  0.1671  0.2775 -0.2133
 1230loPI   C3B19679  16.088   9.409   5.599  0.2584  0.3341  0.1256
 1230loPI   C4B19680  16.154   9.386   6.009  0.2072  0.2958  0.0946
 1231loPI    C119681   2.594   1.575   4.676 -0.1369 -0.0808  0.1859
 1231loPI    C219682   2.721   1.519   4.301  0.2436  0.1005  0.2830
 1231loPI    C319683   2.356   1.667   4.368  0.1741  0.0709 -0.0144
 1231loPI   PO419684   2.765   1.405   4.843 -0.0670  0.0029  0.0098
 1231loPI   GL119685   2.645   1.299   5.291 -0.1341  0.0429 -0.1171
 1231loPI   GL219686   2.377   1.279   5.106 -0.3864 -0.0129 -0.2052
 1231loPI   C1A19687   2.639   1.090   5.687  0.0777  0.0486  0.1514
 1231loPI   C2A19688   2.706   0.737   5.690  0.1295 -0.0247 -0.0644
 1231loPI   C3A19689   2.873   0.500   5.969 -0.0659 -0.2323 -0.1720
 1231loPI   C4A19690   3.165   0.607   6.335 -0.0818  0.1959  0.2855
 1231loPI   C5A19691   3.297   0.685   6.809 -0.2037  0.0680 -0.0407
 1231loPI   C6A19692   3.548   0.547   7.214 -0.4919 -0.3165 -0.2557
 1231loPI   C1B19693   2.046   1.234   5.441 -0.0832  0.0057 -0.0747
 1231loPI   C2B19694   2.061   1.278   5.865  0.0827 -0.0816 -0.2664
 1231loPI   C3B19695   1.970   1.245   6.328 -0.0594  0.0036  0.0783
 1231loPI   C4B19696   2.160   1.441   6.680 -0.1405  0.1601  0.1425
 1232loPI    C119697   7.963   3.760   4.866 -0.1014  0.0439 -0.1559
 1232loPI    C219698   8.260   3.722   4.600 -0.0499 -0.1407 -0.0741
 1232loPI    C319699   7.887   3.614   4.501 -0.0393 -0.1666 -0.0859
 1232loPI   PO419700   8.029   3.618   5.094 -0.3174  0.0245 -0.1161
 1232loPI   GL119701   8.176   3.672   5.494  0.0109  0.0944  0.2234
 1232loPI   GL219702   8.025   4.071   5.472  0.3737  0.4107 -0.1428
 1232loPI   C1A19703   8.127   3.734   5.965  0.2059  0.1636 -0.0452
 1232loPI   C2A19704   8.122   3.787   6.514 -0.0714  0.1412 -0.0080
 1232loPI   C3A19705   8.376   3.927   6.950 -0.1029  0.0777  0.0306
 1232loPI   C4A19706   8.561   3.731   7.365 -0.0274 -0.0698  0.2940
 1232loPI   C5A19707   8.826   3.479   7.468  0.0272 -0.1404 -0.1176
 1232loPI   C6A19708   8.932   3.174   7.732  0.2044 -0.3329 -0.3965
 1232loPI   C1B19709   8.232   4.204   5.827 -0.2582  0.0951 -0.0747
 1232loPI   C2B19710   8.544   4.307   6.106 -0.2253  0.2339 -0.2770
 1232loPI   C3B19711   8.581   4.490   6.582 -0.0950 -0.1027  0.1723
 1232loPI   C4B19712   8.495   4.721   6.920  0.3312 -0.1144 -0.1125
 1233loPI    C119713   6.266   8.596   4.401  0.0886  0.2185  0.1694
 1233loPI    C219714   5.891   8.661   4.279  0.1110  0.0683  0.0178
 1233loPI    C319715   6.197   8.821   4.078  0.1378  0.0092  0.0113
 1233loPI   PO419716   6.246   8.309   4.467  0.1438 -0.0924  0.1511
 1233loPI   GL119717   6.346   8.253   4.838 -0.1790  0.0003  0.0865
 1233loPI   GL219718   6.592   8.217   4.896  0.0283  0.0809  0.1228
 1233loPI   C1A19719   6.181   8.197   5.276  0.2320 -0.0876 -0.0097
 1233loPI   C2A19720   6.118   8.117   5.739 -0.4469 -0.0108  0.2099
 1233loPI   C3A19721   5.784   8.120   6.111  0.0352  0.2286  0.0768
 1233loPI   C4A19722   5.512   7.875   6.414 -0.1354 -0.0795  0.1249
 1233loPI   C5A19723   5.412   7.645   6.822  0.1707 -0.0344  0.0593
 1233loPI   C6A19724   5.226   7.760   7.179  0.1619  0.2261  0.2652
 1233loPI   C1B19725   6.691   8.231   5.270 -0.1490  0.0463 -0.1882
 1233loPI   C2B19726   6.591   8.283   5.777  0.1936  0.1014  0.0100
 1233loPI   C3B19727   6.700   8.414   6.116  0.2067 -0.0647  0.0461
 1233loPI   C4B19728   6.734   8.447   6.555 -0.0054  0.1506 -0.0852
 1234loPI    C119729  15.311  12.567   4.227  0.1816  0.1306 -0.1579
 1234loPI    C219730  15.115  12.880   4.073 -0.5097 -0.1070  0.1952
 1234loPI    C319731  15.038  12.511   3.940 -0.0629 -0.1817  0.1276
 1234loPI   PO419732  15.207  12.613   4.513  0.2118 -0.1171 -0.0451
 1234loPI   GL119733  15.205  12.639   4.975 -0.2042  0.0091  0.2229
 1234loPI   GL219734  15.246  12.346   5.171  0.1605 -0.0560  0.0525
 1234loPI   C1A19735  15.411  12.855   5.367  0.0797 -0.1249  0.3499
 1234loPI   C2A19736  15.258  12.824   5.803  0.1068 -0.0308  0.2441
 1234loPI   C3A19737  15.231  12.682   6.101  0.4268 -0.2071 -0.1242
 1234loPI   C4A19738  15.400  12.572   6.468  0.1166  0.1089  0.1439
 1234loPI   C5A19739  15.408  12.357   6.804  0.0170 -0.0392 -0.1505
 1234loPI   C6A19740  15.490  11.880   6.938 -0.0366  0.2701 -0.0491
 1234loPI   C1B19741  15.067  12.517   5.469 -0.0964 -0.0249 -0.1043
 1234loPI   C2B19742  14.872  12.413   5.812 -0.1101  0.0338  0.0789
 1234loPI   C3B19743  14.802  12.316   6.165  0.0612 -0.0043  0.2471
 1234loPI   C4B19744  14.922  12.525   6.571 -0.0096  0.0980 -0.0362
 1235loPI    C119745  15.462  10.146   4.288 -0.1791 -0.0185  0.1645
 1235loPI    C219746  15.469  10.115   3.890  0.1048 -0.1232  0.1751
 1235loPI    C319747  15.141  10.252   4.074 -0.1234 -0.3197 -0.0756
 1235loPI   PO419748  15.650   9.901   4.295 -0.1699  0.2633  0.1167
 1235loPI   GL119749  15.484   9.735   4.563  0.1762  0.1491  0.1722
 1235loPI   GL219750  15.544  10.064   4.843  0.1417  0.1904 -0.1391
 1235loPI   C1A19751  15.468   9.597   4.987  0.1049  0.5225 -0.0276
 1235loPI   C2A19752  15.524   9.593   5.485  0.1291  0.2024 -0.2565
 1235loPI   C3A19753  15.591   9.602   5.999 -0.1505 -0.1005 -0.1433
 1235loPI   C4A19754  15.495   9.543   6.387  0.0186  0.2281  0.2449
 1235loPI   C5A19755  15.795   9.494   6.717 -0.3226  0.0518 -0.2885
 1235loPI   C6A19756  15.901   9.207   6.904 -0.1165  0.0135 -0.1609
 1235loPI   C1B19757  15.715  10.053   5.340 -0.0390  0.1510 -0.0476
 1235loPI   C2B19758  15.902   9.893   5.743 -0.1427  0.1220  0.0705
 1235loPI   C3B19759  16.087   9.875   6.108  0.0432  0.1160 -0.1230
 1235loPI   C4B19760  16.205   9.810   6.590 -0.1313  0.0520  0.0537
 1236loPI    C119761   3.620  14.304   3.993 -0.0009 -0.0577 -0.0736
 1236loPI    C219762   3.327  14.544   3.866  0.0696  0.0602 -0.0153
 1236loPI    C319763   3.674  14.530   3.668  0.0245 -0.0808 -0.0854
 1236loPI   PO419764   3.368  14.175   4.195 -0.0991  0.2513 -0.0455
 1236loPI   GL119765   3.363  14.050   4.616  0.0019 -0.0920 -0.0866
 1236loPI   GL219766   3.721  14.159   4.636 -0.2482 -0.1282  0.1315
 1236loPI   C1A19767   3.267  14.046   5.084  0.2193 -0.1726  0.2067
 1236loPI   C2A19768   3.513  14.038   5.348 -0.1871  0.0538 -0.0310
 1236loPI   C3A19769   3.643  14.092   5.731 -0.1797  0.2534  0.1267
 1236loPI   C4A19770   3.626  14.109   6.255 -0.1300 -0.2884 -0.0846
 1236loPI   C5A19771   3.684  14.122   6.565 -0.0551  0.3085 -0.1957
 1236loPI   C6A19772   4.031  14.090   6.794  0.3800  0.0520  0.2016
 1236loPI   C1B19773   3.731  13.875   4.943  0.3069  0.0183 -0.2962
 1236loPI   C2B19774   3.816  13.589   5.377 -0.3568  0.0819 -0.0004
 1236loPI   C3B19775   3.628  13.356   5.688  0.3629 -0.1347 -0.0798
 1236loPI   C4B19776   3.605  13.183   6.074 -0.1367  0.3189 -0.3093
 1237loPI    C119777  12.803   6.835   4.976  0.2645 -0.0622  0.1204
 1237loPI    C219778  12.716   6.912   4.593  0.2216 -0.1043  0.1215
 1237loPI    C319779  13.097   6.901   4.713  0.2395 -0.2029  0.0564
 1237loPI   PO419780  12.636   6.568   5.063 -0.1885  0.1451 -0.2602
 1237loPI   GL119781  12.780   6.641   5.520 -0.2088  0.3452  0.1578
 1237loPI   GL219782  12.542   6.968   5.492  0.1800  0.1364 -0.0580
 1237loPI   C1A19783  13.067   6.667   5.927 -0.1140 -0.2920  0.1289
 1237loPI   C2A19784  13.336   6.509   6.265 -0.0192  0.2576  0.1680
 1237loPI   C3A19785  13.611   6.408   6.643 -0.1747  0.0804  0.0985
 1237loPI   C4A19786  13.693   6.311   7.019  0.1844 -0.2952 -0.1621
 1237loPI   C5A19787  13.754   6.478   7.269  0.1919 -0.1577  0.2517
 1237loPI   C6A19788  14.098   6.375   7.657 -0.0481  0.2375  0.0948
 1237loPI   C1B19789  12.732   7.022   5.940 -0.1201 -0.1469 -0.1969
 1237loPI   C2B19790  13.002   7.008   6.245 -0.2514  0.2032 -0.0378
 1237loPI   C3B19791  13.161   6.736   6.679 -0.0661  0.1444 -0.2011
 1237loPI   C4B19792  13.248   6.643   7.083  0.1472  0.2076  0.0066
 1238loPI    C119793   3.706  15.487   4.411 -0.0887  0.0056 -0.0273
 1238loPI    C219794   3.950  15.375   4.114  0.1152  0.4525 -0.0366
 1238loPI    C319795   3.564  15.274   4.104  0.3155 -0.3947  0.0533
 1238loPI   PO419796   3.913  15.506   4.615 -0.0889  0.1619  0.0353
 1238loPI   GL119797   4.033  15.643   4.977 -0.0093 -0.0557 -0.1895
 1238loPI   GL219798   4.136  15.813   5.113  0.0636  0.0711  0.3968
 1238loPI   C1A19799   3.950  15.430   5.318  0.2185 -0.1791  0.0847
 1238loPI   C2A19800   4.018  15.031   5.448 -0.0201 -0.1884  0.0576
 1238loPI   C3A19801   4.283  14.821   5.727  0.1798  0.2542 -0.2455
 1238loPI   C4A19802   4.321  14.850   6.157  0.0421  0.3308  0.0773
 1238loPI   C5A19803   4.377  14.982   6.535  0.0446  0.1952 -0.0991
 1238loPI   C6A19804   4.154  14.760   6.904 -0.2099  0.0045  0.2671
 1238loPI   C1B19805   4.344  15.888   5.566  0.3290  0.0404  0.0096
 1238loPI   C2B19806   4.411  15.763   5.968  0.0398  0.1341  0.0871
 1238loPI   C3B19807   4.485  15.842   6.335  0.1820  0.0094  0.0984
 1238loPI   C4B19808   4.367  15.654   6.729 -0.1187  0.0550 -0.0611
 1239loPI    C119809  15.758   1.325   4.624  0.0291  0.1277  0.0557
 1239loPI    C219810  15.625   1.645   4.424  0.0859  0.1907  0.1182
 1239loPI    C319811  15.515   1.277   4.310  0.2202  0.2190 -0.1081
 1239loPI   PO419812  15.717   1.423   4.955 -0.1015 -0.2428  0.3722
 1239loPI   GL119813  15.876   1.322   5.348 -0.1060  0.0760 -0.0733
 1239loPI   GL219814  15.708   0.996   5.431  0.1191 -0.3137  0.2461
 1239loPI   C1A19815  16.087   1.434   5.755  0.2452 -0.2009 -0.0953
 1239loPI   C2A19816  16.302   1.417   6.129  0.1752 -0.1867  0.2843
 1239loPI   C3A19817  16.368   1.300   6.526  0.0786  0.0826 -0.1318
 1239loPI   C4A19818  16.362   1.023   6.964  0.3045 -0.0650  0.2732
 1239loPI   C5A19819  16.156   0.885   7.296 -0.4282 -0.1448  0.1575
 1239loPI   C6A19820  15.927   1.040   7.630  0.0147  0.0503  0.2849
 1239loPI   C1B19821  15.890   0.936   5.845  0.1553  0.0106  0.0594
 1239loPI   C2B19822  15.825   1.063   6.307 -0.0544  0.2360 -0.1131
 1239loPI   C3B19823  15.707   0.946   6.728  0.2137  0.0858  0.3064
 1239loPI   C4B19824  15.769   0.726   7.011 -0.2921 -0.1718  0.0788
 1240loPI    C119825   3.606   3.708   4.955  0.1216  0.1417 -0.0110
 1240loPI    C219826   3.366   3.639   5.267  0.0059 -0.1050 -0.1513
 1240loPI    C319827   3.520   4.003   5.211 -0.2658  0.0348 -0.0106
 1240loPI   PO419828   3.633   3.491   4.855  0.1168  0.2266 -0.1161
 1240loPI   GL119829   3.987   3.232   5.070  0.0895  0.0900 -0.1605
 1240loPI   GL219830   3.745   3.242   5.279  0.1710  0.0893 -0.1082
 1240loPI   C1A19831   4.254   3.258   5.468  0.1746 -0.0073  0.0193
 1240loPI   C2A19832   4.144   3.286   5.864 -0.0129 -0.1561  0.0588
 1240loPI   C3A19833   3.824   3.284   6.146  0.0329 -0.1811 -0.1603
 1240loPI   C4A19834   3.747   3.146   6.514 -0.1584  0.2121  0.1391
 1240loPI   C5A19835   3.598   3.344   6.874  0.1507  0.0744 -0.1948
 1240loPI   C6A19836   3.334   3.536   7.330  0.0118  0.0775 -0.2119
 1240loPI   C1B19837   3.586   3.255   5.652 -0.0642 -0.1309  0.4765
 1240loPI   C2B19838   3.357   3.234   6.018 -0.0560 -0.0169  0.0041
 1240loPI   C3B19839   3.302   3.302   6.412 -0.1114  0.1357 -0.0747
 1240loPI   C4B19840   3.116   3.435   6.828  0.1733  0.1201  0.1629
 1241loPI    C119841   8.348  14.578   4.290 -0.1271  0.0676 -0.0230
 1241loPI    C219842   8.560  14.874   4.455 -0.2312  0.0872  0.0771
 1241loPI    C319843   8.346  14.942   4.124 -0.2481  0.1220  0.0951
 1241loPI   PO419844   8.353  14.479   4.650  0.0075  0.0212  0.0383
 1241loPI   GL119845   8.406  14.361   5.047  0.0030  0.1637 -0.1215
 1241loPI   GL219846   8.640  14.419   5.302 -0.2679  0.0849 -0.0194
 1241loPI   C1A19847   8.090  14.091   5.200 -0.2170  0.1206 -0.2071
 1241loPI   C2A19848   8.078  13.813   5.493 -0.1512  0.1478 -0.0207
 1241loPI   C3A19849   7.824  13.671   5.879  0.0067  0.3165 -0.0350
 1241loPI   C4A19850   7.733  13.883   6.316  0.1052 -0.0546  0.1725
 1241loPI   C5A19851   7.277  13.989   6.589  0.1434  0.0904  0.1255
 1241loPI   C6A19852   6.876  14.017   6.645  0.2273 -0.0601  0.0272
 1241loPI   C1B19853   8.698  14.651   5.654 -0.0388  0.1508 -0.1063
 1241loPI   C2B19854   8.776  14.854   6.041  0.1853 -0.1456 -0.3311
 1241loPI   C3B19855   8.924  15.107   6.484 -0.0390 -0.0200 -0.2468
 1241loPI   C4B19856   8.936  15.099   6.909 -0.0515  0.0676 -0.1566
 1242loPI    C119857  16.724   2.499   4.840 -0.1209  0.0862 -0.0719
 1242loPI    C219858  16.788   2.153   4.651  0.1621  0.0582  0.0697
 1242loPI    C319859  16.531   2.419   4.499  0.0741 -0.1388 -0.1321
 1242loPI   PO419860  16.725   2.433   5.071 -0.1770  0.1321 -0.0436
 1242loPI   GL119861  16.927   2.640   5.413  0.4259 -0.0751  0.0772
 1242loPI   GL219862  16.717   2.717   5.578  0.0690 -0.0910 -0.0129
 1242loPI   C1A19863  17.103   2.910   5.793  0.1107 -0.1932  0.1491
 1242loPI   C2A19864  17.181   2.858   6.234  0.3670  0.0663 -0.2326
 1242loPI   C3A19865  17.337   2.876   6.619 -0.3371  0.1522  0.2490
 1242loPI   C4A19866  17.575   2.835   7.012 -0.0357  0.0686  0.2007
 1242loPI   C5A19867  17.666   2.839   7.444  0.0815  0.1530 -0.0791
 1242loPI   C6A19868  17.690   2.804   7.871 -0.1536 -0.1297  0.2827
 1242loPI   C1B19869  16.681   2.797   6.006  0.1598  0.0597  0.1028
 1242loPI   C2B19870  16.762   2.589   6.391 -0.3083 -0.0573 -0.0368
 1242loPI   C3B19871  16.751   2.217   6.645  0.0232  0.1042 -0.0949
 1242loPI   C4B19872  16.513   2.127   6.937  0.0805  0.2823  0.1499
 1243loPI    C119873   7.560   1.010   4.562  0.1145  0.1433  0.0632
 1243loPI    C219874   7.916   0.937   4.396  0.0889  0.0893  0.0315
 1243loPI    C319875   7.585   0.783   4.233  0.0395  0.2313 -0.0038
 1243loPI   PO419876   7.574   0.958   4.796 -0.1478  0.0372 -0.1239
 1243loPI   GL119877   7.506   1.062   5.248  0.3132 -0.2096  0.0720
 1243loPI   GL219878   7.758   1.271   5.229  0.0069 -0.2211 -0.1083
 1243loPI   C1A19879   7.382   0.893   5.677  0.1982 -0.1738 -0.0874
 1243loPI   C2A19880   7.584   0.942   6.149 -0.0187 -0.2258 -0.0185
 1243loPI   C3A19881   7.508   1.279   6.368 -0.1461  0.3021  0.3634
 1243loPI   C4A19882   7.226   1.265   6.801  0.2036  0.1377  0.0391
 1243loPI   C5A19883   6.907   1.075   6.990  0.0692  0.0016 -0.0922
 1243loPI   C6A19884   6.492   0.973   7.096 -0.0601  0.1022 -0.2474
 1243loPI   C1B19885   7.844   1.126   5.603 -0.4319 -0.0380 -0.0113
 1243loPI   C2B19886   7.989   1.207   5.934  0.0439  0.2167 -0.1617
 1243loPI   C3B19887   8.389   1.096   6.173 -0.0844 -0.0763  0.0294
 1243loPI   C4B19888   8.436   1.047   6.592 -0.1029 -0.1997  0.3596
 1244loPI    C119889   9.228  13.217   4.790  0.1288  0.0925  0.0198
 1244loPI    C219890   9.244  13.292   4.397  0.2782  0.0802  0.0229
 1244loPI    C319891   9.244  13.594   4.659 -0.4414  0.1176 -0.0008
 1244loPI   PO419892   9.374  13.105   4.875 -0.2011 -0.0177  0.1511
 1244loPI   GL119893   9.644  12.820   5.134 -0.0972 -0.0486  0.0808
 1244loPI   GL219894   9.600  13.001   5.307  0.1761  0.0677  0.2016
 1244loPI   C1A19895   9.400  12.662   5.540  0.0572 -0.1226 -0.1276
 1244loPI   C2A19896   9.408  12.553   5.924 -0.0904  0.0008  0.0152
 1244loPI   C3A19897   9.797  12.749   6.056 -0.4357 -0.0445  0.0010
 1244loPI   C4A19898  10.054  13.036   6.373  0.3399 -0.0313 -0.2594
 1244loPI   C5A19899  10.413  13.060   6.683 -0.3666  0.1139  0.3313
 1244loPI   C6A19900  10.712  13.382   6.739  0.4051 -0.1624  0.1420
 1244loPI   C1B19901   9.883  12.835   5.557  0.0936  0.2762  0.1456
 1244loPI   C2B19902  10.322  12.984   5.705  0.0430  0.1961 -0.3221
 1244loPI   C3B19903  10.427  13.354   6.026 -0.2130  0.2569 -0.0287
 1244loPI   C4B19904  10.420  13.408   6.362 -0.0862  0.0151  0.2939
 1245loPI    C119905  16.858   8.378   4.049  0.1606  0.0996 -0.1021
 1245loPI    C219906  16.812   8.002   3.923 -0.1867  0.0782  0.0764
 1245loPI    C319907  16.521   8.269   3.863  0.0470  0.3146 -0.0254
 1245loPI   PO419908  17.017   8.290   4.272 -0.1036  0.2111  0.0580
 1245loPI   GL119909  17.206   8.003   4.755  0.1955 -0.3164 -0.0233
 1245loPI   GL219910  16.942   8.062   4.694  0.0776 -0.3210  0.1829
 1245loPI   C1A19911  17.268   8.056   5.169  0.4046  0.2651  0.0199
 1245loPI   C2A19912  17.269   8.047   5.697 -0.1641 -0.0334 -0.1222
 1245loPI   C3A19913  17.274   7.976   6.192  0.0396 -0.0478 -0.0090
 1245loPI   C4A19914  17.222   7.974   6.635  0.0927 -0.2313 -0.2071
 1245loPI   C5A19915  16.757   7.950   6.797 -0.0278 -0.2259  0.4985
 1245loPI   C6A19916  16.356   7.920   6.537 -0.0900  0.1563 -0.2203
 1245loPI   C1B19917  16.770   8.206   5.101 -0.1447 -0.0506 -0.0661
 1245loPI   C2B19918  16.817   8.164   5.471  0.2381  0.1189 -0.0966
 1245loPI   C3B19919  16.856   8.265   5.930 -0.0735 -0.1289  0.2790
 1245loPI   C4B19920  16.802   8.084   6.284  0.0954 -0.1531 -0.1235
 1246loPI    C119921   9.091   5.335   4.712  0.2678  0.0215 -0.0526
 1246loPI    C219922   9.339   5.102   4.502  0.0758 -0.3885  0.1630
 1246loPI    C319923   8.982   5.199   4.351  0.2329 -0.0637 -0.0103
 1246loPI   PO419924   9.131   5.251   4.918  0.2572  0.1319 -0.2194
 1246loPI   GL119925   8.921   5.275   5.335 -0.0722 -0.1134 -0.1438
 1246loPI   GL219926   9.013   4.998   5.599  0.1966 -0.0498 -0.3370
 1246loPI   C1A19927   8.633   5.250   5.682 -0.0878 -0.0905 -0.2619
 1246loPI   C2A19928   8.586   5.344   6.126  0.0822  0.1807 -0.0874
 1246loPI   C3A19929   8.553   5.588   6.469  0.2759  0.0343  0.0910
 1246loPI   C4A19930   8.089   5.683   6.590 -0.1699 -0.0006  0.0849
 1246loPI   C5A19931   7.709   5.781   6.813  0.0045 -0.0469  0.2935
 1246loPI   C6A19932   7.200   5.669   6.738  0.0043  0.1724  0.0272
 1246loPI   C1B19933   9.089   5.168   6.057  0.0568  0.0271  0.0070
 1246loPI   C2B19934   9.066   5.322   6.460  0.1509 -0.1357  0.0137
 1246loPI   C3B19935   9.094   5.462   6.800 -0.3066  0.2132  0.1013
 1246loPI   C4B19936   9.158   5.803   7.091  0.0957 -0.1344  0.0805
 1247loPI    C119937  15.398   7.924   4.124  0.0707  0.0017 -0.1148
 1247loPI    C219938  15.163   7.636   3.978 -0.0203 -0.0269  0.0843
 1247loPI    C319939  15.034   8.014   3.987  0.1671  0.0525 -0.3406
 1247loPI   PO419940  15.521   7.775   4.374 -0.2853 -0.1598  0.2317
 1247loPI   GL119941  15.529   7.883   4.716 -0.0295 -0.1533  0.3114
 1247loPI   GL219942  15.225   7.937   4.852 -0.1628  0.2331  0.0167
 1247loPI   C1A19943  15.532   7.749   5.205  0.3486  0.1520 -0.2378
 1247loPI   C2A19944  15.585   7.753   5.733  0.0921  0.4069 -0.1758
 1247loPI   C3A19945  15.566   7.687   6.212 -0.0927  0.0041  0.1051
 1247loPI   C4A19946  15.616   7.641   6.637  0.2707  0.0960 -0.2508
 1247loPI   C5A19947  15.692   7.730   7.051 -0.0629 -0.0767  0.1395
 1247loPI   C6A19948  15.322   7.752   7.290  0.1264  0.2855  0.2390
 1247loPI   C1B19949  15.098   7.954   5.318 -0.0258 -0.0923  0.2836
 1247loPI   C2B19950  15.084   7.889   5.712  0.2525  0.0797  0.2505
 1247loPI   C3B19951  15.073   7.841   6.127  0.0466 -0.1740  0.0570
 1247loPI   C4B19952  15.121   7.802   6.496  0.0064  0.1526 -0.0665
 1248loPI    C119953   2.657  11.602   4.145  0.0442  0.0012 -0.2291
 1248loPI    C219954   2.450  11.697   3.816 -0.2070  0.0760 -0.0521
 1248loPI    C319955   2.355  11.863   4.167  0.1495  0.1038  0.0349
 1248loPI   PO419956   2.717  11.418   4.161 -0.0729  0.1309 -0.0533
 1248loPI   GL119957   2.647  11.289   4.590 -0.1755  0.0101 -0.1556
 1248loPI   GL219958   2.920  11.270   4.629 -0.2075 -0.2334 -0.0127
 1248loPI   C1A19959   2.562  11.401   5.000  0.1701 -0.0710 -0.3203
 1248loPI   C2A19960   2.452  11.598   5.453  0.1746 -0.0359 -0.0352
 1248loPI   C3A19961   2.319  11.500   5.914 -0.1985 -0.1107 -0.0368
 1248loPI   C4A19962   2.333  11.143   6.178 -0.1897  0.0769 -0.0104
 1248loPI   C5A19963   2.111  11.107   6.483  0.0812  0.1805 -0.1712
 1248loPI   C6A19964   1.740  11.051   6.649 -0.2990  0.1960 -0.0627
 1248loPI   C1B19965   3.028  11.196   5.040 -0.0323 -0.0532  0.2541
 1248loPI   C2B19966   2.949  11.274   5.352  0.2391 -0.0468 -0.2293
 1248loPI   C3B19967   2.949  11.672   5.579 -0.1488  0.1526  0.0798
 1248loPI   C4B19968   2.913  11.663   6.045  0.0369 -0.4295 -0.0105
 1249loPI    C119969  10.038   2.241   4.879  0.0090  0.0124 -0.0182
 1249loPI    C219970   9.852   1.890   4.836  0.3248 -0.1684  0.0568
 1249loPI    C319971  10.237   1.900   4.946  0.2876  0.2059  0.1662
 1249loPI   PO419972   9.899   2.334   5.066  0.0409 -0.0174 -0.0371
 1249loPI   GL119973   9.884   2.356   5.505 -0.3285  0.1748  0.1514
 1249loPI   GL219974   9.940   2.649   5.523  0.1334 -0.1225  0.1936
 1249loPI   C1A19975  10.326   2.457   5.726  0.1194  0.5356  0.1952
 1249loPI   C2A19976  10.411   2.482   6.136  0.1957  0.0461  0.1181
 1249loPI   C3A19977  10.583   2.566   6.426 -0.1743  0.1076  0.3401
 1249loPI   C4A19978  10.679   2.585   6.911 -0.1240  0.3170  0.0858
 1249loPI   C5A19979  10.923   2.619   7.298  0.1783 -0.1693 -0.2115
 1249loPI   C6A19980  11.150   2.747   7.675 -0.0372  0.2272 -0.0241
 1249loPI   C1B19981   9.980   2.676   5.995  0.2269 -0.0819  0.0660
 1249loPI   C2B19982  10.073   2.777   6.384 -0.1619 -0.0900 -0.2005
 1249loPI   C3B19983  10.240   2.764   6.714 -0.1643 -0.0305  0.0726
 1249loPI   C4B19984  10.279   2.896   7.111  0.2129  0.0964  0.0250
 1250loPI    C119985  15.781  17.629   4.974  0.0335  0.5438 -0.0720
 1250loPI    C219986  15.601  17.952   4.822 -0.1842  0.3181 -0.3035
 1250loPI    C319987  15.549  17.595   4.650  0.2744  0.2015 -0.2142
 1250loPI   PO419988  15.812  17.768   5.248 -0.2156 -0.2714  0.3130
 1250loPI   GL119989  16.056  17.727   5.510 -0.2046  0.0610 -0.0930
 1250loPI   GL219990  16.293  17.878   5.346  0.0790  0.0170  0.1515
 1250loPI   C1A19991  16.359  17.903   5.836  0.3087  0.1478 -0.0455
 1250loPI   C2A19992  16.454  17.953   6.260  0.1887 -0.2668  0.0755
 1250loPI   C3A19993  16.405  17.672   6.515 -0.3507  0.3058 -0.1328
 1250loPI   C4A19994  16.232  17.512   6.940  0.2085 -0.7050 -0.0277
 1250loPI   C5A19995  15.960  17.667   7.369  0.0793 -0.1218  0.0464
 1250loPI   C6A19996  15.578  17.867   7.505 -0.4188 -0.0154  0.1100
 1250loPI   C1B19997  16.618  18.208   5.493 -0.0505 -0.0831  0.3647
 1250loPI   C2B19998  16.852  18.387   5.773 -0.0809  0.0610  0.0053
 1250loPI   C3B19999  16.871  18.257   6.200  0.0107 -0.2005  0.1334
 1250loPI   C4B20000  16.892  18.052   6.529  0.0420 -0.1423 -0.0240
 1251loPI    C120001  17.874  17.513   4.743 -0.1477  0.0288 -0.0072
 1251loPI    C220002  18.048  17.247   4.500 -0.0885  0.1808 -0.1332
 1251loPI    C320003  17.718  17.440   4.382 -0.0825  0.2260 -0.0770
 1251loPI   PO420004  18.073  17.555   4.906  0.0052  0.1140  0.0946
 1251loPI   GL120005  17.975  17.685   5.272 -0.0492 -0.0573 -0.0102
 1251loPI   GL220006  17.668  17.653   5.302 -0.1523 -0.0894 -0.2279
 1251loPI   C1A20007  18.062  17.487   5.623 -0.0920  0.0691  0.2758
 1251loPI   C2A20008  18.222  17.269   6.053 -0.2749  0.3194 -0.1028
 1251loPI   C3A20009  18.236  16.963   6.430  0.1216 -0.0682 -0.0407
 1251loPI   C4A20010  18.157  16.748   6.798  0.1610  0.0918 -0.1543
 1251loPI   C5A20011  17.831  16.500   6.978  0.1299 -0.0229 -0.0208
 1251loPI   C6A20012  17.430  16.599   7.127  0.1908 -0.2222 -0.1006
 1251loPI   C1B20013  17.746  17.810   5.774  0.0272  0.0749  0.0675
 1251loPI   C2B20014  17.722  17.699   6.203  0.2506  0.4206  0.1938
 1251loPI   C3B20015  17.761  17.887   6.640 -0.3360  0.0674 -0.1334
 1251loPI   C4B20016  17.625  17.788   7.023 -0.1159  0.1228 -0.1590
 1252loPI    C120017   4.755   7.371   4.501  0.0038  0.1342  0.2185
 1252loPI    C220018   5.040   7.604   4.344  0.0996 -0.0355  0.1377
 1252loPI    C320019   4.803   7.390   4.104  0.0920 -0.1150  0.2154
 1252loPI   PO420020   4.858   7.323   4.709  0.2734 -0.3596 -0.2123
 1252loPI   GL120021   4.828   7.473   5.155  0.0434 -0.1491  0.2421
 1252loPI   GL220022   4.488   7.559   5.099  0.1323 -0.2287  0.1302
 1252loPI   C1A20023   4.755   7.745   5.605 -0.1707 -0.0468  0.2081
 1252loPI   C2A20024   4.849   7.659   6.072 -0.0156  0.0452 -0.1754
 1252loPI   C3A20025   4.956   7.783   6.548 -0.0248 -0.1297 -0.0202
 1252loPI   C4A20026   4.781   7.771   6.907  0.3281 -0.1814 -0.0074
 1252loPI   C5A20027   4.422   7.577   7.172 -0.2793 -0.0591 -0.0900
 1252loPI   C6A20028   4.392   7.084   7.373  0.0944  0.3454  0.0761
 1252loPI   C1B20029   4.371   7.321   5.417 -0.0395 -0.0677 -0.4151
 1252loPI   C2B20030   4.405   7.368   5.792 -0.0145  0.2666 -0.0408
 1252loPI   C3B20031   4.387   7.386   6.325 -0.0180  0.3115 -0.0151
 1252loPI   C4B20032   4.297   7.316   6.723  0.1993 -0.1384  0.0789
 1253loPI    C120033  10.618  10.484   4.393  0.1013  0.0344 -0.0146
 1253loPI    C220034  10.628  10.154   4.618 -0.0758  0.0759  0.0556
 1253loPI    C320035  10.635  10.124   4.219  0.0166 -0.0073  0.0630
 1253loPI   PO420036  10.470  10.609   4.527 -0.2581 -0.3816  0.3326
 1253loPI   GL120037  10.245  10.505   4.880  0.1928 -0.3173  0.1415
 1253loPI   GL220038  10.155  10.885   4.934  0.0701  0.0135  0.0205
 1253loPI   C1A20039  10.001  10.491   5.307  0.1812 -0.0974  0.0440
 1253loPI   C2A20040   9.878  10.743   5.723  0.0960 -0.2741 -0.1952
 1253loPI   C3A20041   9.889  10.816   6.131 -0.0873  0.2135 -0.2301
 1253loPI   C4A20042   9.729  11.032   6.478  0.0426 -0.1549  0.2005
 1253loPI   C5A20043   9.604  11.255   6.797 -0.3428  0.1570 -0.0768
 1253loPI   C6A20044   9.508  11.548   6.975 -0.0525 -0.2605  0.0212
 1253loPI   C1B20045  10.076  11.074   5.304  0.3399 -0.0031 -0.0431
 1253loPI   C2B20046  10.294  11.021   5.722  0.1556  0.4445  0.2722
 1253loPI   C3B20047  10.625  11.235   5.839 -0.0779 -0.0469  0.0534
 1253loPI   C4B20048  10.983  11.137   6.088 -0.0319  0.1134  0.0883
 1254loPI    C120049  11.506   3.804   4.878  0.1160 -0.1886 -0.2192
 1254loPI    C220050  11.291   3.660   5.183  0.0821 -0.0523 -0.1782
 1254loPI    C320051  11.385   3.423   4.876 -0.1693 -0.1005 -0.2206
 1254loPI   PO420052  11.524   4.026   4.890 -0.2669 -0.0989 -0.0558
 1254loPI   GL120053  11.537   4.212   5.190  0.2367  0.1827 -0.0868
 1254loPI   GL220054  11.377   4.085   5.436 -0.3976 -0.1997  0.1106
 1254loPI   C1A20055  11.556   4.547   5.516 -0.0481 -0.3576 -0.2611
 1254loPI   C2A20056  11.473   4.828   5.889  0.2379  0.0595  0.1873
 1254loPI   C3A20057  11.377   4.916   6.268  0.1016  0.1063  0.0194
 1254loPI   C4A20058  11.492   4.743   6.761 -0.0120  0.1022 -0.0289
 1254loPI   C5A20059  11.358   4.950   7.126  0.1477 -0.2564 -0.0600
 1254loPI   C6A20060  10.935   4.887   7.313  0.2099  0.4467 -0.1768
 1254loPI   C1B20061  11.282   4.212   5.866  0.2419  0.0842  0.5027
 1254loPI   C2B20062  11.329   4.250   6.277  0.0244 -0.0317  0.3744
 1254loPI   C3B20063  11.549   4.220   6.534  0.1442 -0.2516  0.0201
 1254loPI   C4B20064  11.507   4.118   6.934  0.3152 -0.0804  0.2466
 1255loPI    C120065   6.569  14.486   4.573 -0.2711  0.1150 -0.0500
 1255loPI    C220066   6.590  14.132   4.389 -0.1089  0.0136  0.1604
 1255loPI    C320067   6.313  14.398   4.278 -0.2440 -0.1852  0.0134
 1255loPI   PO420068   6.576  14.350   4.870 -0.1091  0.1775 -0.1417
 1255loPI   GL120069   6.772  14.241   5.104 -0.0079  0.1148  0.0843
 1255loPI   GL220070   7.199  14.308   5.046  0.1650 -0.1169 -0.5607
 1255loPI   C1A20071   6.669  14.228   5.550 -0.1214  0.1997 -0.5183
 1255loPI   C2A20072   6.393  14.324   5.966  0.0266  0.0784 -0.0412
 1255loPI   C3A20073   6.195  14.402   6.406 -0.1046  0.0893  0.0111
 1255loPI   C4A20074   5.909  14.385   6.872  0.2904  0.1219 -0.0112
 1255loPI   C5A20075   5.934  14.689   7.234  0.1280  0.2633  0.0216
 1255loPI   C6A20076   6.008  15.105   7.274 -0.0878  0.0307 -0.0809
 1255loPI   C1B20077   7.261  14.273   5.436 -0.2733  0.0344 -0.0776
 1255loPI   C2B20078   7.482  14.578   5.727  0.0989  0.2027 -0.1178
 1255loPI   C3B20079   7.813  14.692   5.878  0.1215 -0.1767  0.0450
 1255loPI   C4B20080   7.958  15.002   6.143 -0.3469 -0.1677 -0.3166
 1256loPI    C120081  14.470   3.716   5.101  0.1071 -0.0558  0.0714
 1256loPI    C220082  14.576   3.357   4.963  0.2497 -0.0007  0.0364
 1256loPI    C320083  14.645   3.684   4.743 -0.1701  0.0193 -0.0743
 1256loPI   PO420084  14.203   3.618   5.185 -0.0166  0.0556  0.1673
 1256loPI   GL120085  14.167   3.694   5.532 -0.1066  0.0980  0.1772
 1256loPI   GL220086  14.060   3.887   5.802  0.0488 -0.3763  0.3734
 1256loPI   C1A20087  14.253   3.594   6.043 -0.4071 -0.0184  0.0102
 1256loPI   C2A20088  14.382   3.280   6.321 -0.1638 -0.1909  0.2687
 1256loPI   C3A20089  14.387   3.160   6.787  0.1670 -0.3483 -0.2027
 1256loPI   C4A20090  14.524   3.069   7.251 -0.0056  0.3761  0.0872
 1256loPI   C5A20091  14.743   2.814   7.587  0.1837  0.3555 -0.4338
 1256loPI   C6A20092  14.488   2.643   7.899 -0.1468 -0.0143 -0.1403
 1256loPI   C1B20093  13.934   4.130   6.177  0.3717  0.1828  0.0507
 1256loPI   C2B20094  13.889   4.117   6.616  0.0706 -0.2072  0.0858
 1256loPI   C3B20095  13.994   4.328   6.967 -0.1170 -0.0534  0.0155
 1256loPI   C4B20096  14.055   4.350   7.461 -0.1026 -0.0002  0.0526
 1257loPI    C120097  16.940  19.263   4.514  0.0569  0.1416  0.1406
 1257loPI    C220098  16.901  19.142   4.893  0.1075 -0.1405  0.0577
 1257loPI    C320099  16.829  18.887   4.593 -0.0894  0.1265 -0.1262
 1257loPI   PO420100  16.814  19.502   4.560 -0.3810 -0.2588  0.1933
 1257loPI   GL120101  16.869  19.739   4.914 -0.0598  0.1268 -0.0931
 1257loPI   GL220102  16.898  20.027   5.040 -0.3179  0.3738 -0.0130
 1257loPI   C1A20103  16.815  19.540   5.249  0.0729  0.0562  0.1121
 1257loPI   C2A20104  16.919  19.460   5.715  0.0940 -0.0198  0.1709
 1257loPI   C3A20105  16.920  19.577   6.122 -0.0371  0.0028  0.1997
 1257loPI   C4A20106  16.828  19.525   6.492  0.3965 -0.0248  0.0055
 1257loPI   C5A20107  16.759  19.651   6.941 -0.2402  0.1871  0.1700
 1257loPI   C6A20108  16.954  19.370   7.331  0.1285 -0.0144  0.2460
 1257loPI   C1B20109  17.074  20.059   5.515 -0.2355  0.3525  0.0053
 1257loPI   C2B20110  17.129  20.368   5.913 -0.3008 -0.0678  0.1031
 1257loPI   C3B20111  17.304  20.531   6.317  0.2524 -0.1794  0.1596
 1257loPI   C4B20112  17.245  20.280   6.735 -0.1405 -0.0580 -0.1392
 1258loPI    C120113   6.198   2.197   4.826 -0.0848  0.0805  0.0257
 1258loPI    C220114   6.005   1.932   4.596  0.0546  0.0147 -0.0162
 1258loPI    C320115   5.980   2.323   4.516 -0.1165  0.0115  0.0196
 1258loPI   PO420116   6.205   2.191   5.062 -0.1056 -0.1468  0.0836
 1258loPI   GL120117   6.407   2.346   5.323  0.2499  0.0434 -0.1879
 1258loPI   GL220118   6.178   2.613   5.351 -0.1288  0.1263  0.0181
 1258loPI   C1A20119   6.206   2.279   5.740 -0.0228  0.2175 -0.2880
 1258loPI   C2A20120   6.133   2.280   6.155 -0.1611  0.0323  0.0403
 1258loPI   C3A20121   6.205   2.191   6.602 -0.0961 -0.1739  0.0563
 1258loPI   C4A20122   6.175   2.342   6.945  0.3395 -0.1485 -0.0038
 1258loPI   C5A20123   6.055   2.507   7.344  0.1368  0.1954  0.0112
 1258loPI   C6A20124   6.352   2.452   7.708  0.0270  0.0423 -0.0184
 1258loPI   C1B20125   5.977   2.722   5.709 -0.0900  0.0848  0.0283
 1258loPI   C2B20126   5.771   2.677   6.147  0.0263 -0.0503  0.2502
 1258loPI   C3B20127   5.691   2.563   6.559  0.0437  0.0068  0.1594
 1258loPI   C4B20128   5.281   2.272   6.675 -0.1423  0.0986  0.0179
 1259loPI    C120129   5.557  13.010   4.411  0.1649 -0.1081  0.1741
 1259loPI    C220130   5.857  13.230   4.264  0.1094  0.0239  0.2560
 1259loPI    C320131   5.498  13.240   4.089  0.1984 -0.2749  0.0478
 1259loPI   PO420132   5.530  13.023   4.618  0.0582 -0.0439 -0.3959
 1259loPI   GL120133   5.494  12.835   4.935 -0.1691 -0.0365  0.2346
 1259loPI   GL220134   5.638  12.558   5.009 -0.0173  0.2929  0.2936
 1259loPI   C1A20135   5.653  12.954   5.331 -0.1685  0.2963  0.0013
 1259loPI   C2A20136   5.630  13.069   5.798 -0.1820  0.0377 -0.0765
 1259loPI   C3A20137   5.932  12.842   6.093  0.0432  0.0103  0.2252
 1259loPI   C4A20138   6.140  12.961   6.405 -0.2334  0.2797  0.2074
 1259loPI   C5A20139   6.475  13.258   6.439  0.0357  0.0054  0.3119
 1259loPI   C6A20140   6.760  13.526   6.604  0.2807 -0.2562  0.1635
 1259loPI   C1B20141   5.541  12.393   5.344 -0.1254  0.3380  0.0008
 1259loPI   C2B20142   5.591  11.971   5.539 -0.3950  0.0494  0.0696
 1259loPI   C3B20143   5.506  11.691   5.870  0.1246 -0.1527  0.0501
 1259loPI   C4B20144   5.422  11.558   6.388  0.4834 -0.1848  0.2173
 1260loPI    C120145   9.518  12.025   4.119  0.0660 -0.1587 -0.2270
 1260loPI    C220146   9.258  11.722   4.109  0.0914 -0.1875 -0.0547
 1260loPI    C320147   9.636  11.665   3.993  0.1144 -0.2408  0.0449
 1260loPI   PO420148   9.481  12.199   4.374 -0.0334 -0.2333  0.0694
 1260loPI   GL120149   9.557  12.357   4.825  0.1835 -0.0519 -0.2123
 1260loPI   GL220150   9.227  12.432   5.039  0.0703  0.0640 -0.0719
 1260loPI   C1A20151   9.786  12.369   5.235  0.0243  0.0169  0.5249
 1260loPI   C2A20152   9.817  12.317   5.738 -0.0176 -0.4255  0.0281
 1260loPI   C3A20153   9.743  12.287   6.195 -0.1160  0.1385 -0.2872
 1260loPI   C4A20154   9.780  12.618   6.567  0.3105  0.1574  0.0173
 1260loPI   C5A20155   9.688  13.016   6.742  0.1378  0.0155  0.1209
 1260loPI   C6A20156   9.756  13.398   6.477  0.2325 -0.0342 -0.0469
 1260loPI   C1B20157   8.963  12.422   5.425  0.0872 -0.2224 -0.3029
 1260loPI   C2B20158   8.507  12.357   5.638  0.2025 -0.4358  0.1397
 1260loPI   C3B20159   8.272  12.279   5.958  0.4401  0.1193 -0.0458
 1260loPI   C4B20160   7.984  12.286   6.317  0.0850 -0.0426  0.0606
 1261loPI    C120161  10.657  14.949   4.803  0.0089  0.3322  0.1314
 1261loPI    C220162  10.438  14.827   4.492 -0.0514 -0.0440  0.3157
 1261loPI    C320163  10.837  14.840   4.462 -0.0618  0.0115  0.1929
 1261loPI   PO420164  10.605  14.741   5.018  0.0638  0.0262  0.0916
 1261loPI   GL120165  10.338  14.852   5.313  0.0847 -0.2768 -0.0637
 1261loPI   GL220166  10.173  14.522   5.419  0.0306  0.2978 -0.1983
 1261loPI   C1A20167  10.163  14.986   5.754 -0.0327 -0.0294  0.0294
 1261loPI   C2A20168   9.956  15.358   6.060  0.0438  0.0766 -0.2910
 1261loPI   C3A20169   9.659  15.415   6.387 -0.2135  0.1011  0.0375
 1261loPI   C4A20170   9.346  15.421   6.616  0.2887 -0.3237  0.2008
 1261loPI   C5A20171   9.394  15.255   7.093  0.0234 -0.1032  0.0337
 1261loPI   C6A20172   9.170  14.917   7.346 -0.0856 -0.0540  0.1713
 1261loPI   C1B20173   9.913  14.598   5.563  0.0238  0.3018  0.0780
 1261loPI   C2B20174   9.807  14.722   5.880  0.3084  0.1545 -0.2211
 1261loPI   C3B20175   9.924  14.950   6.302 -0.1341  0.0501 -0.1225
 1261loPI   C4B20176   9.883  15.118   6.717  0.0889 -0.0767 -0.0070
 1262loPI    C120177  11.445  13.308   4.776 -0.0818  0.0265 -0.1295
 1262loPI    C220178  11.606  13.436   5.120 -0.1169 -0.1465 -0.0477
 1262loPI    C320179  11.795  13.503   4.773  0.0145 -0.1410  0.0243
 1262loPI   PO420180  11.399  13.069   4.923  0.2338  0.0251  0.2607
 1262loPI   GL120181  11.524  12.965   5.350  0.1905  0.2872 -0.0235
 1262loPI   GL220182  11.917  13.121   5.453  0.0119 -0.2542 -0.0790
 1262loPI   C1A20183  11.381  12.925   5.812 -0.0662  0.0938  0.0091
 1262loPI   C2A20184  11.255  12.792   6.201  0.3598  0.0100 -0.4293
 1262loPI   C3A20185  10.884  12.931   6.469  0.0005  0.1874 -0.0996
 1262loPI   C4A20186  10.932  12.935   6.877 -0.0934  0.1317 -0.2320
 1262loPI   C5A20187  10.721  13.176   7.186 -0.4956 -0.1433  0.3128
 1262loPI   C6A20188  10.944  13.468   7.396 -0.2535  0.1754  0.2157
 1262loPI   C1B20189  11.839  12.801   5.777 -0.2991  0.0658 -0.0670
 1262loPI   C2B20190  11.875  12.801   6.409 -0.0097 -0.2948  0.2127
 1262loPI   C3B20191  12.187  12.819   6.676 -0.0279 -0.0118  0.1837
 1262loPI   C4B20192  12.153  12.669   7.085 -0.1918 -0.3502  0.3038
 1263loPI    C120193  10.879  11.719   4.499  0.0765  0.1843 -0.0105
 1263loPI    C220194  10.725  11.577   4.158  0.2073  0.3348 -0.1338
 1263loPI    C320195  10.990  11.877   4.149  0.2957  0.2660  0.0937
 1263loPI   PO420196  10.727  11.615   4.689  0.1465 -0.2056 -0.0102
 1263loPI   GL120197  10.710  11.592   5.110 -0.2196  0.2234 -0.0446
 1263loPI   GL220198  10.518  11.294   5.014 -0.1301  0.3973 -0.1021
 1263loPI   C1A20199  10.833  11.682   5.440 -0.1034 -0.0342  0.0162
 1263loPI   C2A20200  10.956  11.685   5.879 -0.0723  0.0526  0.2901
 1263loPI   C3A20201  11.091  11.730   6.270 -0.1205  0.1654 -0.0498
 1263loPI   C4A20202  11.239  11.884   6.598 -0.2490  0.0282 -0.0016
 1263loPI   C5A20203  11.420  12.098   6.964 -0.1818 -0.0098  0.1123
 1263loPI   C6A20204  11.757  12.436   6.933  0.0307 -0.0891  0.1646
 1263loPI   C1B20205  10.819  11.178   5.348 -0.0399 -0.0783 -0.1476
 1263loPI   C2B20206  11.190  11.311   5.568  0.0337  0.1397 -0.0661
 1263loPI   C3B20207  11.585  11.192   5.696 -0.0412 -0.2717  0.3807
 1263loPI   C4B20208  11.790  10.811   5.871  0.2661  0.3115 -0.0545
 1264loPI    C120209  17.758   6.167   4.387 -0.2277  0.0888 -0.0290
 1264loPI    C220210  17.686   6.450   4.113  0.1529  0.2225  0.0025
 1264loPI    C320211  18.023   6.236   4.095 -0.0020 -0.0387  0.1424
 1264loPI   PO420212  17.774   6.314   4.597 -0.1562  0.0734  0.0759
 1264loPI   GL120213  17.661   6.707   4.827  0.0795 -0.1095 -0.0281
 1264loPI   GL220214  17.972   6.728   4.889  0.0536 -0.0818 -0.0169
 1264loPI   C1A20215  17.342   6.745   5.108  0.0405  0.3192  0.1844
 1264loPI   C2A20216  17.448   6.866   5.543 -0.0762 -0.0365 -0.1333
 1264loPI   C3A20217  17.478   6.969   5.927 -0.1648  0.1444 -0.2812
 1264loPI   C4A20218  17.500   6.994   6.366 -0.0673  0.0393 -0.1811
 1264loPI   C5A20219  17.439   7.091   6.806  0.2131 -0.3178 -0.1060
 1264loPI   C6A20220  17.337   7.008   7.184  0.3496  0.0371 -0.0331
 1264loPI   C1B20221  17.937   6.813   5.335 -0.1551 -0.0865  0.0461
 1264loPI   C2B20222  18.054   6.810   5.838 -0.2149 -0.0970  0.0599
 1264loPI   C3B20223  17.980   6.830   6.327  0.0981 -0.0905  0.0153
 1264loPI   C4B20224  18.025   6.947   6.734 -0.2075  0.2006 -0.3619
 1265loPI    C120225   0.756  12.014   4.242 -0.0396 -0.1787 -0.1483
 1265loPI    C220226   0.560  12.154   3.923 -0.0645 -0.0069 -0.0585
 1265loPI    C320227   0.960  12.137   3.921 -0.0519  0.2347 -0.0039
 1265loPI   PO420228   0.661  12.201   4.451  0.0967  0.0113  0.1540
 1265loPI   GL120229   0.409  12.240   4.852 -0.2416  0.4207  0.0061
 1265loPI   GL220230   0.478  12.586   4.665  0.1055  0.1085  0.2211
 1265loPI   C1A20231   0.377  12.181   5.279 -0.0509 -0.1102  0.0994
 1265loPI   C2A20232   0.151  12.095   5.661 -0.2585 -0.0134  0.0178
 1265loPI   C3A20233   0.217  11.933   5.960  0.1008 -0.3536  0.1639
 1265loPI   C4A20234   0.552  11.869   6.215  0.3300  0.0924 -0.1146
 1265loPI   C5A20235   0.729  11.570   6.430  0.0707  0.1375 -0.1196
 1265loPI   C6A20236   0.911  11.345   6.712  0.0288  0.1366 -0.0368
 1265loPI   C1B20237   0.651  12.634   5.018 -0.0447  0.1093  0.0132
 1265loPI   C2B20238   0.743  12.700   5.453 -0.1752 -0.3985  0.0895
 1265loPI   C3B20239   0.563  12.894   5.757 -0.2045 -0.0357 -0.2557
 1265loPI   C4B20240   0.543  12.744   6.066  0.1671  0.2655 -0.0774
 1266loPI    C120241   3.330  12.270   4.048  0.2073  0.0970  0.1658
 1266loPI    C220242   3.337  12.269   3.648  0.2416 -0.4123  0.1612
 1266loPI    C320243   3.597  12.494   3.852  0.0679  0.0360 -0.0984
 1266loPI   PO420244   3.377  12.046   4.168  0.1874 -0.4593  0.3476
 1266loPI   GL120245   3.567  11.998   4.564 -0.2830 -0.1669  0.1318
 1266loPI   GL220246   3.448  12.294   4.729  0.1321 -0.2778  0.1344
 1266loPI   C1A20247   3.922  12.136   4.837 -0.0281 -0.3277 -0.1425
 1266loPI   C2A20248   4.094  12.133   5.233 -0.0671 -0.0259 -0.1292
 1266loPI   C3A20249   4.124  12.197   5.626  0.0585 -0.2405 -0.2650
 1266loPI   C4A20250   4.195  12.334   6.075 -0.0843  0.1355  0.0721
 1266loPI   C5A20251   4.170  12.507   6.475 -0.0351 -0.2030  0.2539
 1266loPI   C6A20252   4.204  12.712   6.763  0.4241  0.1280 -0.0842
 1266loPI   C1B20253   3.273  12.236   5.170 -0.2677 -0.1304 -0.0086
 1266loPI   C2B20254   3.248  12.112   5.589  0.0471  0.5012 -0.0986
 1266loPI   C3B20255   3.258  11.988   6.103 -0.1495 -0.1872  0.0874
 1266loPI   C4B20256   3.472  11.941   6.472 -0.1305 -0.0409  0.0888
 1267loPI    C120257   5.046  18.540   4.393  0.1502  0.0413  0.0667
 1267loPI    C220258   4.738  18.795   4.373  0.1039 -0.0156  0.0564
 1267loPI    C320259   4.986  18.756   4.062  0.1427  0.0567  0.0781
 1267loPI   PO420260   5.124  18.555   4.674  0.2277 -0.1474 -0.1428
 1267loPI   GL120261   5.112  18.590   5.233 -0.0145  0.3160 -0.1971
 1267loPI   GL220262   4.989  18.364   5.144  0.4476  0.0340  0.2718
 1267loPI   C1A20263   5.421  18.472   5.538  0.0009 -0.1553  0.1631
 1267loPI   C2A20264   5.471  18.531   5.919 -0.0355 -0.1653 -0.0616
 1267loPI   C3A20265   5.281  18.566   6.254 -0.0293  0.2842 -0.3747
 1267loPI   C4A20266   5.311  18.481   6.685 -0.2425  0.3141 -0.0446
 1267loPI   C5A20267   5.259  18.847   7.024 -0.2842  0.0544  0.1453
 1267loPI   C6A20268   5.528  19.142   7.313  0.1249 -0.2184 -0.1229
 1267loPI   C1B20269   4.979  18.242   5.538  0.1617 -0.1136  0.3380
 1267loPI   C2B20270   5.036  18.146   5.968 -0.4429  0.1411 -0.2888
 1267loPI   C3B20271   5.081  17.985   6.231  0.2457  0.1334  0.2554
 1267loPI   C4B20272   5.397  17.759   6.492 -0.0962  0.0406 -0.0771
 1268loPI    C120273   3.298  15.078   4.463 -0.1424 -0.0543  0.2246
 1268loPI    C220274   3.127  14.720   4.510 -0.1568 -0.0966 -0.1224
 1268loPI    C320275   3.119  14.900   4.153 -0.0923  0.2220  0.0330
 1268loPI   PO420276   3.383  15.130   4.663  0.1648  0.2115  0.0752
 1268loPI   GL120277   3.372  15.048   5.146  0.3440 -0.2806  0.1475
 1268loPI   GL220278   3.465  15.249   5.328 -0.0813 -0.1719  0.1650
 1268loPI   C1A20279   3.007  15.087   5.429 -0.0383 -0.1117 -0.0173
 1268loPI   C2A20280   2.898  15.298   5.802 -0.0900  0.0551  0.2972
 1268loPI   C3A20281   2.669  15.433   6.146 -0.2894 -0.0238  0.3124
 1268loPI   C4A20282   2.377  15.533   6.559  0.1097  0.0841  0.1474
 1268loPI   C5A20283   2.050  15.756   6.839 -0.1775  0.0655 -0.1304
 1268loPI   C6A20284   1.886  16.122   6.977  0.0833 -0.1221 -0.2538
 1268loPI   C1B20285   3.573  15.142   5.729 -0.1372 -0.2480 -0.0020
 1268loPI   C2B20286   3.711  15.000   6.065  0.0517  0.0845 -0.1655
 1268loPI   C3B20287   3.894  15.007   6.495 -0.0662  0.2448  0.0055
 1268loPI   C4B20288   4.041  15.276   6.848 -0.2868 -0.1142 -0.0704
 1269loPI    C120289  10.304   8.887   4.394 -0.3094  0.0088  0.1663
 1269loPI    C220290  10.027   9.018   4.137 -0.3026 -0.0183  0.1453
 1269loPI    C320291  10.222   8.676   4.064 -0.1671  0.0696  0.0913
 1269loPI   PO420292  10.173   8.873   4.598 -0.0687 -0.0796 -0.1351
 1269loPI   GL120293  10.075   8.941   5.019 -0.0838 -0.4099 -0.0657
 1269loPI   GL220294  10.186   8.690   5.293 -0.1841  0.1291 -0.2387
 1269loPI   C1A20295   9.822   9.025   5.393 -0.1059 -0.1385 -0.0591
 1269loPI   C2A20296   9.694   8.998   5.719 -0.0218 -0.1466 -0.1276
 1269loPI   C3A20297   9.766   8.981   6.092 -0.1182 -0.0830 -0.0857
 1269loPI   C4A20298   9.583   9.087   6.551  0.0498  0.0854  0.0576
 1269loPI   C5A20299   9.347   8.921   6.893 -0.1772 -0.1226 -0.0395
 1269loPI   C6A20300   9.308   8.512   6.814  0.0463 -0.3522  0.1041
 1269loPI   C1B20301  10.080   8.594   5.764 -0.1546  0.2233 -0.2216
 1269loPI   C2B20302  10.007   8.579   6.176  0.3778  0.0810 -0.0885
 1269loPI   C3B20303   9.789   8.636   6.514 -0.0565  0.2783  0.0690
 1269loPI   C4B20304   9.869   8.835   6.973  0.0146  0.1874 -0.3249
 1270loPI    C120305  10.629   9.219   4.581 -0.0563  0.0799  0.0763
 1270loPI    C220306  10.790   8.861   4.504 -0.0987  0.0672  0.0458
 1270loPI    C320307  11.018   9.190   4.494 -0.1074  0.0684 -0.1556
 1270loPI   PO420308  10.532   9.222   4.800  0.0374  0.0882 -0.4468
 1270loPI   GL120309  10.590   9.263   5.187  0.1265 -0.0072  0.3377
 1270loPI   GL220310  10.764   8.992   5.353 -0.2545 -0.2295 -0.0790
 1270loPI   C1A20311  10.263   9.268   5.430 -0.0837  0.2429  0.0330
 1270loPI   C2A20312  10.195   9.081   5.802  0.2621  0.1104  0.0304
 1270loPI   C3A20313  10.181   9.112   6.265  0.2864  0.2641 -0.2398
 1270loPI   C4A20314  10.131   8.983   6.603 -0.0370  0.1643 -0.0513
 1270loPI   C5A20315  10.034   9.311   6.907  0.3499 -0.2526 -0.0311
 1270loPI   C6A20316   9.601   9.329   7.014 -0.0308 -0.0356 -0.2318
 1270loPI   C1B20317  10.821   9.166   5.729 -0.1576 -0.1417 -0.2072
 1270loPI   C2B20318  10.948   9.377   6.135  0.1687  0.1482 -0.2908
 1270loPI   C3B20319  11.008   9.731   6.428 -0.1016 -0.1099 -0.0322
 1270loPI   C4B20320  11.055   9.975   6.797 -0.0213  0.1354  0.1458
 1271loPI    C120321   6.659  17.303   4.571  0.0372  0.0916 -0.3913
 1271loPI    C220322   6.342  17.110   4.423 -0.1176 -0.0840  0.1472
 1271loPI    C320323   6.301  17.481   4.567 -0.0279 -0.0199  0.0090
 1271loPI   PO420324   6.850  16.998   4.581 -0.2165  0.2772 -0.1071
 1271loPI   GL120325   6.774  16.830   5.015  0.1734 -0.0275  0.0094
 1271loPI   GL220326   7.007  16.725   5.078 -0.2098  0.3788 -0.0657
 1271loPI   C1A20327   6.725  16.460   5.335  0.0691  0.2268  0.0547
 1271loPI   C2A20328   6.547  16.349   5.694 -0.1553  0.0682  0.3283
 1271loPI   C3A20329   6.545  16.392   6.173 -0.0317 -0.2176 -0.1626
 1271loPI   C4A20330   6.885  16.399   6.458  0.2199  0.1506  0.1978
 1271loPI   C5A20331   7.092  16.542   6.813 -0.2967 -0.1276 -0.2975
 1271loPI   C6A20332   7.220  16.696   7.144 -0.2134 -0.0577  0.1022
 1271loPI   C1B20333   7.177  16.841   5.453 -0.1045  0.2298  0.0604
 1271loPI   C2B20334   7.403  16.756   5.899  0.3115 -0.0148 -0.3413
 1271loPI   C3B20335   7.212  16.736   6.254 -0.0380  0.1946 -0.2965
 1271loPI   C4B20336   7.242  17.041   6.649  0.3343 -0.2180  0.0019
 1272loPI    C120337   0.936  15.553   4.464 -0.0652  0.1351  0.2306
 1272loPI    C220338   0.769  15.517   4.102 -0.1945 -0.1581  0.3163
 1272loPI    C320339   1.067  15.778   4.160 -0.1856 -0.0953  0.0046
 1272loPI   PO420340   0.721  15.471   4.702 -0.0277 -0.1322 -0.1732
 1272loPI   GL120341   0.793  15.283   5.074 -0.1654  0.0317 -0.1235
 1272loPI   GL220342   1.107  15.157   5.187  0.0173  0.0615 -0.0863
 1272loPI   C1A20343   0.454  15.391   5.388  0.1751 -0.0103 -0.1954
 1272loPI   C2A20344   0.489  15.364   5.743  0.3476  0.0349  0.1283
 1272loPI   C3A20345   0.577  15.252   6.179  0.2492 -0.0044  0.0084
 1272loPI   C4A20346   0.737  15.193   6.572 -0.1242 -0.0841 -0.3084
 1272loPI   C5A20347   0.967  15.018   6.949 -0.0354  0.0452 -0.0653
 1272loPI   C6A20348   1.277  14.879   7.228 -0.0937  0.0889 -0.0246
 1272loPI   C1B20349   0.961  15.223   5.615  0.0286 -0.0367  0.2625
 1272loPI   C2B20350   0.932  15.605   5.897  0.2155 -0.2864 -0.3648
 1272loPI   C3B20351   0.854  15.648   6.273  0.0893 -0.0102 -0.1933
 1272loPI   C4B20352   1.057  15.822   6.515 -0.3172  0.0018 -0.2257
 1273loPI    C120353  15.636   6.257   4.955  0.2106 -0.0435  0.1251
 1273loPI    C220354  15.975   6.459   4.888  0.1154  0.0974  0.0625
 1273loPI    C320355  15.908   6.112   4.700  0.0381  0.2794 -0.2530
 1273loPI   PO420356  15.454   6.476   4.910 -0.1777 -0.1497 -0.2162
 1273loPI   GL120357  15.585   6.737   5.212  0.0639 -0.0397  0.5056
 1273loPI   GL220358  15.289   6.930   5.196  0.0157 -0.1030  0.5956
 1273loPI   C1A20359  15.684   6.759   5.713  0.1400  0.2730  0.2748
 1273loPI   C2A20360  15.719   6.682   6.173 -0.1945  0.1111  0.1592
 1273loPI   C3A20361  15.763   6.738   6.586 -0.1628 -0.0757  0.2514
 1273loPI   C4A20362  15.703   6.788   7.113 -0.0902 -0.0329  0.1484
 1273loPI   C5A20363  15.404   6.723   7.342  0.0138 -0.5156 -0.0664
 1273loPI   C6A20364  15.157   6.988   7.617 -0.2693  0.1296 -0.3604
 1273loPI   C1B20365  15.173   6.901   5.568 -0.1700 -0.2813  0.0715
 1273loPI   C2B20366  15.302   6.874   5.984  0.2760 -0.1677 -0.1549
 1273loPI   C3B20367  15.301   6.894   6.406 -0.2092  0.2794  0.1502
 1273loPI   C4B20368  15.280   6.821   6.856  0.1999 -0.1135 -0.0021
 1274loPI    C120369  12.530   2.888   4.533  0.0290 -0.3157  0.0695
 1274loPI    C220370  12.292   2.705   4.268  0.0644 -0.1725 -0.0627
 1274loPI    C320371  12.629   2.882   4.145  0.1488 -0.2195  0.0981
 1274loPI   PO420372  12.511   2.787   4.705 -0.1248 -0.0156 -0.1985
 1274loPI   GL120373  12.577   2.792   5.150 -0.1492 -0.0675  0.0067
 1274loPI   GL220374  12.451   2.858   5.399  0.1014 -0.1805  0.0677
 1274loPI   C1A20375  12.866   2.618   5.307 -0.1284  0.1979 -0.2780
 1274loPI   C2A20376  12.855   2.577   5.790 -0.0449 -0.0161  0.0738
 1274loPI   C3A20377  12.959   2.559   6.212  0.3467 -0.0028 -0.0886
 1274loPI   C4A20378  13.073   2.462   6.640  0.2430  0.1426 -0.1276
 1274loPI   C5A20379  13.067   2.294   7.076 -0.0254 -0.0196  0.2486
 1274loPI   C6A20380  12.857   2.161   7.343  0.0829 -0.0250  0.0319
 1274loPI   C1B20381  12.565   3.032   5.744  0.2824 -0.2256  0.0804
 1274loPI   C2B20382  12.586   2.864   6.172  0.0743  0.1116  0.0593
 1274loPI   C3B20383  12.636   2.582   6.643  0.0972  0.0577 -0.0830
 1274loPI   C4B20384  12.611   2.585   7.172 -0.4020  0.2843  0.1106
 1275loPI    C120385  15.084   4.824   4.646  0.1693  0.0748  0.4091
 1275loPI    C220386  15.243   4.487   4.499 -0.1760  0.0140  0.1631
 1275loPI    C320387  15.372   4.843   4.370 -0.0684 -0.0302  0.1484
 1275loPI   PO420388  14.903   4.737   4.860 -0.0479  0.0236 -0.1655
 1275loPI   GL120389  14.861   4.721   5.310 -0.1649 -0.3395 -0.1134
 1275loPI   GL220390  14.590   4.625   5.309  0.3083  0.0744  0.0180
 1275loPI   C1A20391  15.087   4.872   5.702 -0.1908 -0.2151  0.2751
 1275loPI   C2A20392  15.158   4.808   6.100 -0.0224  0.1924  0.2027
 1275loPI   C3A20393  15.307   4.905   6.486  0.0015  0.2133 -0.1072
 1275loPI   C4A20394  15.563   4.642   6.788  0.0932 -0.1371  0.0276
 1275loPI   C5A20395  15.825   4.441   7.096 -0.5509  0.2184  0.1617
 1275loPI   C6A20396  16.245   4.432   7.393 -0.1113 -0.2641  0.0216
 1275loPI   C1B20397  14.529   4.736   5.683  0.0819 -0.1546  0.0143
 1275loPI   C2B20398  14.287   4.558   5.981 -0.1076 -0.1841 -0.0772
 1275loPI   C3B20399  14.282   4.487   6.442  0.1827  0.0892  0.2285
 1275loPI   C4B20400  14.423   4.615   6.869 -0.0925  0.2946 -0.1330
 1276loPI    C120401  16.282   2.209   4.894 -0.0482 -0.1014  0.1708
 1276loPI    C220402  16.230   2.606   4.909 -0.0507 -0.0911 -0.0634
 1276loPI    C320403  16.085   2.397   4.600  0.0577 -0.2583 -0.0029
 1276loPI   PO420404  16.188   2.147   5.092  0.0734  0.3934 -0.2304
 1276loPI   GL120405  16.308   2.395   5.468  0.0092 -0.0833  0.0795
 1276loPI   GL220406  16.187   2.775   5.459 -0.0843  0.1809  0.2396
 1276loPI   C1A20407  16.444   2.410   5.803 -0.0258 -0.0829 -0.0167
 1276loPI   C2A20408  16.576   2.195   6.094 -0.3568 -0.0709  0.1750
 1276loPI   C3A20409  16.349   1.865   6.373 -0.0271 -0.2254 -0.0937
 1276loPI   C4A20410  16.168   1.725   6.727  0.2190 -0.1204 -0.3571
 1276loPI   C5A20411  16.188   1.898   7.203 -0.0149 -0.1719 -0.2849
 1276loPI   C6A20412  16.190   2.206   7.491 -0.2601 -0.1458 -0.3453
 1276loPI   C1B20413  16.074   2.780   5.817  0.1461  0.1223 -0.0674
 1276loPI   C2B20414  16.246   2.618   6.214  0.3100  0.0363 -0.1727
 1276loPI   C3B20415  16.288   2.555   6.626  0.1378 -0.0604 -0.0400
 1276loPI   C4B20416  16.045   2.371   6.985  0.0817  0.0459 -0.0404
 1277loPI    C120417   8.689   5.789   4.726  0.0863 -0.0886  0.2463
 1277loPI    C220418   8.698   5.586   4.381  0.1746 -0.0479  0.2241
 1277loPI    C320419   8.825   5.965   4.393  0.0353 -0.0018  0.2708
 1277loPI   PO420420   8.713   5.620   4.931  0.2293 -0.1418 -0.1592
 1277loPI   GL120421   8.888   5.773   5.292  0.2407  0.0389  0.0600
 1277loPI   GL220422   9.185   5.725   5.345  0.0418  0.1824 -0.3466
 1277loPI   C1A20423   8.822   5.747   5.734 -0.0391 -0.2823  0.1477
 1277loPI   C2A20424   8.891   5.788   6.211 -0.0828  0.4345 -0.1358
 1277loPI   C3A20425   8.927   6.012   6.580 -0.3416  0.0902  0.0958
 1277loPI   C4A20426   8.694   5.807   6.897  0.3744 -0.1684 -0.0665
 1277loPI   C5A20427   8.348   5.747   7.109  0.1352  0.0924  0.0480
 1277loPI   C6A20428   8.068   5.445   7.055  0.2101  0.0246 -0.1746
 1277loPI   C1B20429   9.256   5.511   5.668  0.1096 -0.1622  0.2731
 1277loPI   C2B20430   9.408   5.522   6.104  0.0431 -0.1260  0.1240
 1277loPI   C3B20431   9.470   5.599   6.518 -0.1123  0.1059 -0.1087
 1277loPI   C4B20432   9.590   5.651   6.897  0.1934 -0.1603  0.1260
 1278loPI    C120433  18.988   6.279   4.166 -0.3578  0.2383  0.0922
 1278loPI    C220434  18.914   6.293   3.774  0.0894 -0.1974 -0.0174
 1278loPI    C320435  19.025   6.624   3.968 -0.1348  0.0210 -0.2541
 1278loPI   PO420436  18.729   6.178   4.288 -0.1571 -0.1820 -0.1718
 1278loPI   GL120437  18.641   6.016   4.732  0.2217 -0.0936 -0.2144
 1278loPI   GL220438  18.684   6.329   4.936 -0.1171  0.2942 -0.2226
 1278loPI   C1A20439  18.576   5.993   5.235 -0.1984  0.0588 -0.2184
 1278loPI   C2A20440  18.759   6.175   5.568  0.3938 -0.0160  0.1300
 1278loPI   C3A20441  18.681   6.149   5.918  0.2643  0.3336 -0.1134
 1278loPI   C4A20442  18.562   6.201   6.263 -0.0490  0.2592 -0.1840
 1278loPI   C5A20443  18.658   6.137   6.823 -0.0018 -0.2398  0.0270
 1278loPI   C6A20444  18.347   5.812   7.032  0.0551  0.0615 -0.0180
 1278loPI   C1B20445  18.945   6.531   5.302  0.0244  0.1347 -0.1763
 1278loPI   C2B20446  18.983   6.556   5.723  0.1023  0.0830 -0.0849
 1278loPI   C3B20447  19.008   6.509   6.166 -0.3041 -0.1744 -0.0341
 1278loPI   C4B20448  19.045   6.433   6.652  0.1582 -0.0447  0.2766
 1279loPI    C120449   1.859  10.042   4.107 -0.2291  0.2333  0.1382
 1279loPI    C220450   1.951   9.973   3.724 -0.0255 -0.0569  0.2362
 1279loPI    C320451   1.847  10.341   3.841  0.0473  0.0641 -0.0696
 1279loPI   PO420452   1.695   9.828   4.161 -0.3706  0.2363 -0.1714
 1279loPI   GL120453   1.779   9.627   4.521 -0.2002 -0.0232  0.1504
 1279loPI   GL220454   2.126   9.659   4.507  0.0722  0.1679 -0.0179
 1279loPI   C1A20455   1.618   9.680   4.986  0.0377 -0.0389  0.1667
 1279loPI   C2A20456   1.265   9.784   5.266 -0.2138  0.1936  0.0149
 1279loPI   C3A20457   1.184   9.956   5.741  0.0855 -0.1435  0.2334
 1279loPI   C4A20458   1.027  10.067   6.201 -0.0460  0.1762  0.0877
 1279loPI   C5A20459   0.945   9.865   6.614 -0.2441 -0.0444  0.0325
 1279loPI   C6A20460   0.995   9.691   7.097 -0.0355  0.0622 -0.2081
 1279loPI   C1B20461   2.001   9.215   4.755  0.1397  0.3188 -0.0734
 1279loPI   C2B20462   1.908   9.224   5.315 -0.0583 -0.0306  0.2027
 1279loPI   C3B20463   1.737   9.140   5.698  0.1739 -0.1910 -0.3055
 1279loPI   C4B20464   1.817   9.368   6.109 -0.1073 -0.0784  0.1317
 1280loPI    C120465  16.347   0.950   4.706 -0.0082  0.0557  0.1487
 1280loPI    C220466  16.195   1.312   4.782 -0.0159  0.0517  0.1523
 1280loPI    C320467  16.459   1.265   4.486 -0.1281  0.0330  0.0546
 1280loPI   PO420468  16.406   0.850   4.979 -0.0208 -0.0436 -0.3488
 1280loPI   GL120469  16.221   0.945   5.384 -0.0691 -0.2077 -0.3287
 1280loPI   GL220470  16.065   0.576   5.293 -0.1893  0.0238  0.1338
 1280loPI   C1A20471  16.364   1.001   5.725 -0.0317  0.0115  0.3486
 1280loPI   C2A20472  16.348   0.965   6.097 -0.2050 -0.1173 -0.0242
 1280loPI   C3A20473  16.239   0.801   6.509 -0.1301  0.0438  0.3462
 1280loPI   C4A20474  16.252   0.562   6.890 -0.0621  0.0604 -0.0380
 1280loPI   C5A20475  16.105   0.320   7.220 -0.4551 -0.2185 -0.0257
 1280loPI   C6A20476  15.914   0.022   7.470  0.1018  0.0728 -0.0598
 1280loPI   C1B20477  16.127   0.526   5.692 -0.1711  0.1019 -0.3555
 1280loPI   C2B20478  15.989   0.518   6.175 -0.2679  0.2745  0.0344
 1280loPI   C3B20479  15.766   0.453   6.535 -0.2147 -0.0006  0.2724
 1280loPI   C4B20480  15.683   0.191   6.887 -0.1728  0.2384 -0.1354
 1281loPI    C120481   0.747   9.116   4.019  0.0655 -0.2068  0.1919
 1281loPI    C220482   0.445   9.297   3.828  0.1050 -0.0476  0.2783
 1281loPI    C320483   0.492   8.901   3.797  0.0375 -0.0400  0.0598
 1281loPI   PO420484   1.003   9.280   4.072  0.2178 -0.0031  0.0352
 1281loPI   GL120485   1.136   9.376   4.500 -0.0511 -0.1828 -0.0941
 1281loPI   GL220486   1.172   9.783   4.651 -0.0703  0.1824  0.1248
 1281loPI   C1A20487   0.931   9.215   4.877 -0.2437  0.0015  0.0755
 1281loPI   C2A20488   0.871   8.896   5.221  0.1684  0.2917  0.1403
 1281loPI   C3A20489   0.826   8.921   5.666 -0.1915 -0.2948  0.1108
 1281loPI   C4A20490   0.811   8.869   6.102  0.0875  0.0246 -0.2674
 1281loPI   C5A20491   0.808   8.844   6.547 -0.3614 -0.1976 -0.3037
 1281loPI   C6A20492   0.548   8.964   6.869 -0.4231  0.1294  0.0620
 1281loPI   C1B20493   0.938   9.734   4.903 -0.0863 -0.1366  0.0238
 1281loPI   C2B20494   0.714   9.504   5.244 -0.1494 -0.0237 -0.3018
 1281loPI   C3B20495   0.791   9.430   5.651  0.1332  0.1566  0.1035
 1281loPI   C4B20496   0.936   9.613   5.990  0.1356  0.2534  0.1511
 1282loPI    C120497   3.098   3.872   4.829  0.3532 -0.0312  0.2454
 1282loPI    C220498   3.419   4.020   4.641  0.1106  0.0567 -0.1102
 1282loPI    C320499   3.118   3.862   4.430 -0.1858  0.1874  0.2038
 1282loPI   PO420500   3.053   3.979   5.033 -0.0788  0.0521  0.0261
 1282loPI   GL120501   3.016   4.095   5.368 -0.2733  0.2727 -0.0442
 1282loPI   GL220502   3.201   4.358   5.443  0.2259  0.1989 -0.0242
 1282loPI   C1A20503   3.079   3.712   5.656  0.1025  0.0065 -0.0914
 1282loPI   C2A20504   2.941   3.364   5.745 -0.2559  0.0113  0.1438
 1282loPI   C3A20505   2.716   2.934   5.753 -0.3869 -0.0987  0.3292
 1282loPI   C4A20506   2.566   2.678   6.062  0.0068 -0.0395  0.0894
 1282loPI   C5A20507   2.472   2.342   6.453 -0.0440 -0.1965  0.0952
 1282loPI   C6A20508   2.630   2.200   6.764 -0.3428  0.0954  0.0786
 1282loPI   C1B20509   3.246   4.190   5.782  0.0346  0.1276  0.0898
 1282loPI   C2B20510   3.438   4.318   6.183 -0.0904  0.0816 -0.0175
 1282loPI   C3B20511   3.622   4.052   6.412 -0.0232 -0.2762 -0.0710
 1282loPI   C4B20512   3.602   3.669   6.508 -0.3950  0.0372  0.2059
 1283loPI    C120513   7.862  15.357   4.308  0.0880  0.1886  0.0096
 1283loPI    C220514   8.042  15.609   4.560  0.0774  0.1825  0.0233
 1283loPI    C320515   8.260  15.348   4.350  0.0774  0.1227  0.0974
 1283loPI   PO420516   7.634  15.298   4.465  0.3208  0.1489  0.1461
 1283loPI   GL120517   7.688  15.376   4.926 -0.0494 -0.1622  0.0158
 1283loPI   GL220518   7.713  15.029   4.924  0.0016  0.0567 -0.0076
 1283loPI   C1A20519   7.475  15.346   5.253  0.0573  0.0371 -0.3201
 1283loPI   C2A20520   7.198  15.621   5.610 -0.0007 -0.2634  0.3581
 1283loPI   C3A20521   7.311  15.604   6.001 -0.4173  0.1308  0.2326
 1283loPI   C4A20522   7.581  15.653   6.535 -0.1409 -0.1571  0.1063
 1283loPI   C5A20523   7.466  15.581   6.919  0.0453  0.2252  0.2156
 1283loPI   C6A20524   7.693  15.482   7.307  0.0344 -0.2886 -0.0767
 1283loPI   C1B20525   8.101  14.848   5.142  0.0090  0.2629  0.3076
 1283loPI   C2B20526   8.143  14.581   5.457  0.0397  0.2433 -0.2148
 1283loPI   C3B20527   8.373  14.211   5.708 -0.2309 -0.1929  0.2044
 1283loPI   C4B20528   8.758  14.212   6.056  0.2171  0.3619 -0.1267
 1284loPI    C120529  17.022   6.982   4.256 -0.0461 -0.0808 -0.2072
 1284loPI    C220530  17.010   7.092   3.871 -0.2110 -0.0397 -0.1912
 1284loPI    C320531  16.745   7.242   4.130  0.0755  0.1514 -0.0034
 1284loPI   PO420532  17.202   7.125   4.334  0.0781  0.1100  0.0322
 1284loPI   GL120533  17.544   7.343   4.583 -0.2622  0.1800  0.1277
 1284loPI   GL220534  17.388   7.591   4.504  0.4211  0.0211 -0.2203
 1284loPI   C1A20535  17.666   7.189   5.016 -0.0972 -0.2294 -0.0920
 1284loPI   C2A20536  17.651   7.249   5.376  0.0453  0.0646  0.1623
 1284loPI   C3A20537  17.818   7.335   5.771  0.2543 -0.0510 -0.1181
 1284loPI   C4A20538  17.918   7.333   6.259 -0.0332  0.2560  0.0732
 1284loPI   C5A20539  17.876   7.415   6.693 -0.0719  0.2423  0.0013
 1284loPI   C6A20540  17.653   7.577   7.009  0.0936 -0.0249 -0.0136
 1284loPI   C1B20541  17.055   7.560   4.872  0.0320 -0.0381 -0.0550
 1284loPI   C2B20542  17.009   7.697   5.331 -0.0647  0.0365 -0.2223
 1284loPI   C3B20543  16.886   7.699   5.856 -0.1506  0.2376 -0.1513
 1284loPI   C4B20544  16.956   7.624   6.358  0.3167  0.1163  0.1336
 1285loPI    C120545   4.951  15.823   4.332  0.2811  0.1222  0.0591
 1285loPI    C220546   4.757  15.640   4.034  0.1595  0.1808  0.1018
 1285loPI    C320547   5.034  15.917   3.952  0.2268  0.0955  0.0406
 1285loPI   PO420548   4.871  15.649   4.554 -0.0263 -0.0046 -0.1385
 1285loPI   GL120549   4.946  15.516   5.053 -0.1669  0.0535  0.1215
 1285loPI   GL220550   4.775  15.211   5.028 -0.0586 -0.0576 -0.6278
 1285loPI   C1A20551   5.044  15.416   5.422  0.0106  0.2192 -0.0242
 1285loPI   C2A20552   4.780  15.590   5.672 -0.0987 -0.0240 -0.0090
 1285loPI   C3A20553   4.906  15.733   6.120 -0.0776  0.0448  0.0465
 1285loPI   C4A20554   5.046  15.720   6.563 -0.1925  0.0413  0.3165
 1285loPI   C5A20555   4.817  15.903   6.854 -0.1479 -0.1756 -0.1456
 1285loPI   C6A20556   4.466  16.209   6.780  0.0377 -0.0319 -0.2581
 1285loPI   C1B20557   4.473  15.467   5.312 -0.0572 -0.3287  0.1407
 1285loPI   C2B20558   4.342  15.362   5.688  0.1087 -0.1566 -0.1082
 1285loPI   C3B20559   4.422  15.298   6.162  0.1551 -0.1999  0.3052
 1285loPI   C4B20560   4.092  15.461   6.395 -0.1882 -0.1688 -0.0840
 1286loPI    C120561   0.227  12.452   4.072  0.0402 -0.1145  0.0499
 1286loPI    C220562   0.055  12.754   3.874 -0.0153 -0.0784  0.1524
 1286loPI    C320563   0.401  12.600   3.743  0.1010  0.1427  0.1957
 1286loPI   PO420564   0.146  12.503   4.324  0.0049 -0.0377 -0.1880
 1286loPI   GL120565  -0.044  12.459   4.682  0.4438 -0.2923 -0.1262
 1286loPI   GL220566  -0.057  12.154   4.832 -0.0260 -0.4173 -0.0280
 1286loPI   C1A20567   0.088  12.549   5.058 -0.0154 -0.1328 -0.1656
 1286loPI   C2A20568   0.249  12.615   5.527  0.1013  0.0531  0.0593
 1286loPI   C3A20569   0.092  12.497   5.893 -0.4864  0.0998 -0.2550
 1286loPI   C4A20570   0.305  12.340   6.282 -0.2130 -0.0599  0.0091
 1286loPI   C5A20571   0.797  12.373   6.432 -0.0092  0.0679 -0.1332
 1286loPI   C6A20572   1.060  12.039   6.533 -0.0704 -0.1737  0.3150
 1286loPI   C1B20573  -0.155  12.165   5.159 -0.2119  0.1506  0.0580
 1286loPI   C2B20574  -0.325  12.255   5.627  0.1605 -0.1311  0.2955
 1286loPI   C3B20575  -0.321  12.187   6.078 -0.2155  0.0363 -0.1948
 1286loPI   C4B20576  -0.169  12.017   6.466 -0.0222 -0.1468 -0.1690
 1287loPI    C120577   9.578  15.270   4.357 -0.0728 -0.2950 -0.1586
 1287loPI    C220578   9.263  15.470   4.501  0.0099 -0.3183  0.0593
 1287loPI    C320579   9.271  15.359   4.116 -0.1131 -0.0551 -0.0213
 1287loPI   PO420580   9.581  15.116   4.652 -0.2332 -0.0616 -0.0887
 1287loPI   GL120581   9.505  15.135   5.088  0.0057 -0.3230  0.0236
 1287loPI   GL220582   9.913  15.146   5.325 -0.0990  0.1708 -0.0257
 1287loPI   C1A20583   9.415  14.758   5.382 -0.0588  0.1906  0.0223
 1287loPI   C2A20584   9.197  14.536   5.896  0.0672 -0.2806 -0.3432
 1287loPI   C3A20585   9.111  14.527   6.311  0.2377 -0.3982 -0.1166
 1287loPI   C4A20586   8.904  14.183   6.623 -0.0666 -0.0176  0.1446
 1287loPI   C5A20587   8.740  14.254   7.047  0.1765  0.2343  0.1103
 1287loPI   C6A20588   8.778  14.647   7.181  0.2990  0.0309 -0.1422
 1287loPI   C1B20589   9.664  15.127   5.693  0.1629 -0.3139  0.0604
 1287loPI   C2B20590   9.404  14.995   6.096  0.2410  0.0146 -0.1620
 1287loPI   C3B20591   9.406  14.924   6.573  0.1011 -0.2349  0.0177
 1287loPI   C4B20592   9.205  14.668   6.797 -0.0670 -0.0881  0.3273
 1288loPI    C120593   0.413   5.378   4.372  0.0243 -0.1350 -0.0159
 1288loPI    C220594   0.140   5.225   4.123  0.0942 -0.0588 -0.1399
 1288loPI    C320595   0.500   5.332   3.984  0.0814  0.1228 -0.0349
 1288loPI   PO420596   0.287   5.367   4.611  0.0217 -0.0780 -0.1577
 1288loPI   GL120597   0.470   5.308   4.889  0.0368  0.0624 -0.3704
 1288loPI   GL220598   0.585   5.571   4.937  0.3801 -0.1725 -0.3275
 1288loPI   C1A20599   0.351   5.267   5.327 -0.1535  0.1290 -0.1247
 1288loPI   C2A20600   0.338   5.352   5.814 -0.0476  0.1352  0.2391
 1288loPI   C3A20601   0.222   5.350   6.200 -0.0188 -0.1743  0.3739
 1288loPI   C4A20602   0.213   5.172   6.496 -0.0607  0.2746  0.0675
 1288loPI   C5A20603   0.330   5.092   6.995  0.1519  0.0823  0.0241
 1288loPI   C6A20604   0.196   4.721   7.260 -0.0911  0.2379  0.2998
 1288loPI   C1B20605   0.649   5.698   5.365 -0.0086 -0.1716  0.2897
 1288loPI   C2B20606   0.739   5.771   5.891 -0.0194  0.0930  0.1614
 1288loPI   C3B20607   0.685   5.632   6.338 -0.2195 -0.2307  0.0821
 1288loPI   C4B20608   0.581   5.520   6.703 -0.0078  0.1625  0.2009
 1289loPI    C120609   2.062   6.764   4.582 -0.1456 -0.2598  0.0076
 1289loPI    C220610   2.433   6.615   4.596 -0.0366  0.0194  0.1922
 1289loPI    C320611   2.243   6.646   4.245  0.1242 -0.1001  0.0929
 1289loPI   PO420612   2.059   7.057   4.750  0.0417 -0.2616 -0.1853
 1289loPI   GL120613   1.956   7.354   5.115  0.1687  0.0685  0.0065
 1289loPI   GL220614   1.679   7.234   5.045 -0.2156  0.1964  0.0897
 1289loPI   C1A20615   1.731   7.248   5.504  0.1446  0.0551 -0.0169
 1289loPI   C2A20616   1.655   7.162   5.863  0.1183  0.1675 -0.0416
 1289loPI   C3A20617   1.596   7.228   6.321  0.0221 -0.0498  0.1317
 1289loPI   C4A20618   1.456   7.342   6.741 -0.0207 -0.3140 -0.1735
 1289loPI   C5A20619   1.388   7.257   7.174 -0.2233  0.0038  0.0446
 1289loPI   C6A20620   1.187   7.356   7.581  0.1372 -0.0999  0.0785
 1289loPI   C1B20621   1.302   7.254   5.183 -0.1443 -0.0454 -0.2443
 1289loPI   C2B20622   1.146   7.386   5.466  0.2132 -0.1734  0.3533
 1289loPI   C3B20623   1.178   7.462   5.938  0.0495  0.1542 -0.1262
 1289loPI   C4B20624   1.129   7.494   6.277 -0.1948 -0.1717  0.0643
 1290loPI    C120625  10.851   7.004   4.365  0.2862 -0.1693 -0.0816
 1290loPI    C220626  10.689   7.369   4.345 -0.1795 -0.3695 -0.0948
 1290loPI    C320627  11.059   7.307   4.207 -0.0406  0.1229  0.0340
 1290loPI   PO420628  10.713   6.918   4.661 -0.0460  0.0858 -0.3327
 1290loPI   GL120629  10.586   6.929   5.109  0.0367  0.1810  0.3252
 1290loPI   GL220630  10.556   7.215   5.283  0.0309 -0.3103 -0.2696
 1290loPI   C1A20631  10.552   6.686   5.472  0.1439  0.0278 -0.2351
 1290loPI   C2A20632  10.492   6.738   5.993  0.0963  0.1334  0.0830
 1290loPI   C3A20633  10.415   6.803   6.449 -0.1111 -0.0716 -0.0604
 1290loPI   C4A20634  10.491   6.851   6.839  0.2169  0.1069  0.0365
 1290loPI   C5A20635  10.480   7.170   7.194  0.0369 -0.2861  0.0266
 1290loPI   C6A20636  10.607   7.390   7.428  0.1796 -0.0025  0.2944
 1290loPI   C1B20637  10.777   7.076   5.700 -0.1888  0.0512  0.3278
 1290loPI   C2B20638  10.837   7.229   6.189  0.0983 -0.0944  0.0779
 1290loPI   C3B20639  10.893   7.158   6.590 -0.2131 -0.3535 -0.0670
 1290loPI   C4B20640  10.956   7.187   6.983 -0.0208 -0.0301  0.1366
 1291loPI    C120641   8.795   6.544   4.418  0.2522  0.1155 -0.1353
 1291loPI    C220642   8.580   6.366   4.132  0.1112 -0.1361  0.1219
 1291loPI    C320643   8.563   6.763   4.176  0.1109 -0.0983 -0.1959
 1291loPI   PO420644   8.748   6.331   4.684 -0.2802 -0.0937 -0.3279
 1291loPI   GL120645   8.839   6.262   5.076  0.0038  0.1066  0.0824
 1291loPI   GL220646   9.073   6.225   5.216 -0.5990 -0.0576  0.3281
 1291loPI   C1A20647   8.578   6.130   5.366 -0.0435 -0.1069 -0.0788
 1291loPI   C2A20648   8.808   6.233   5.722  0.0066  0.0130  0.1991
 1291loPI   C3A20649   8.774   6.301   6.139 -0.2779 -0.2073  0.2749
 1291loPI   C4A20650   9.145   6.475   6.470  0.0983  0.0445  0.2559
 1291loPI   C5A20651   9.460   6.670   6.592 -0.0064 -0.0737 -0.1466
 1291loPI   C6A20652   9.630   6.588   6.864 -0.0979  0.1367  0.0796
 1291loPI   C1B20653   9.290   6.201   5.606  0.0921  0.1219  0.2737
 1291loPI   C2B20654   9.262   6.010   5.874  0.0332  0.1469  0.0473
 1291loPI   C3B20655   9.331   6.041   6.280 -0.2025 -0.0981 -0.2600
 1291loPI   C4B20656   9.412   6.124   6.767 -0.1319 -0.1994  0.0055
 1292loPI    C120657  17.609   2.978   4.867  0.2462 -0.0920  0.2754
 1292loPI    C220658  17.532   2.593   4.945 -0.4955  0.0471  0.2990
 1292loPI    C320659  17.518   2.728   4.569  0.1333 -0.0143  0.2440
 1292loPI   PO420660  17.541   3.068   5.146 -0.3019  0.1880 -0.1385
 1292loPI   GL120661  17.635   2.924   5.474 -0.0957  0.2539 -0.6320
 1292loPI   GL220662  17.503   2.570   5.512  0.0282  0.1219 -0.2945
 1292loPI   C1A20663  17.803   2.972   5.860 -0.2365  0.2422  0.2076
 1292loPI   C2A20664  17.669   2.789   6.273 -0.4568 -0.0868 -0.1817
 1292loPI   C3A20665  17.905   2.835   6.625 -0.0271 -0.2942  0.1775
 1292loPI   C4A20666  18.075   2.888   7.021  0.1474 -0.2446 -0.0041
 1292loPI   C5A20667  18.247   3.007   7.352 -0.3116  0.2164 -0.0219
 1292loPI   C6A20668  18.569   2.982   7.604 -0.3565  0.3293 -0.3634
 1292loPI   C1B20669  17.361   2.491   6.018  0.0721  0.0018 -0.1217
 1292loPI   C2B20670  17.379   2.392   6.424 -0.1198 -0.0492  0.0059
 1292loPI   C3B20671  17.617   2.430   6.701 -0.2620  0.0713  0.2662
 1292loPI   C4B20672  17.835   2.379   7.095  0.1368  0.0482 -0.2893
 1293loPI    C120673  12.337  17.351   5.039  0.1378 -0.1144 -0.0126
 1293loPI    C220674  12.521  17.702   4.983  0.1515 -0.1048  0.0899
 1293loPI    C320675  12.349  17.515   4.674  0.2390 -0.0611  0.0143
 1293loPI   PO420676  12.332  17.377   5.313 -0.0722 -0.0929 -0.2319
 1293loPI   GL120677  12.175  17.140   5.744  0.0935 -0.0309  0.0545
 1293loPI   GL220678  12.500  17.022   5.574 -0.2036 -0.0530 -0.3215
 1293loPI   C1A20679  11.898  16.877   6.015  0.1777  0.2312 -0.1403
 1293loPI   C2A20680  11.868  16.676   6.418  0.1398  0.2137  0.0509
 1293loPI   C3A20681  11.697  16.706   6.801  0.1252  0.2823  0.1442
 1293loPI   C4A20682  11.724  16.453   7.185 -0.1746 -0.1326  0.0336
 1293loPI   C5A20683  11.796  16.380   7.561 -0.2113  0.1694  0.0873
 1293loPI   C6A20684  11.863  16.457   8.093 -0.3572  0.0332 -0.0330
 1293loPI   C1B20685  12.694  16.857   5.865 -0.0873 -0.2516 -0.1296
 1293loPI   C2B20686  12.786  16.849   6.279  0.0511 -0.2920  0.1468
 1293loPI   C3B20687  12.661  16.929   6.646 -0.2672 -0.0673  0.0494
 1293loPI   C4B20688  12.553  17.248   7.018 -0.2128  0.0953 -0.0449
 1294loPI    C120689   6.702  19.310   4.679  0.0628 -0.0875  0.0795
 1294loPI    C220690   6.385  19.391   4.447 -0.0310 -0.1650  0.1796
 1294loPI    C320691   6.555  19.029   4.435  0.3077 -0.0017 -0.1723
 1294loPI   PO420692   6.651  19.320   4.970  0.0348 -0.2008 -0.1554
 1294loPI   GL120693   6.585  19.200   5.309 -0.0664  0.3479 -0.2550
 1294loPI   GL220694   6.461  19.400   5.574 -0.0998  0.0748  0.1282
 1294loPI   C1A20695   6.809  19.060   5.652  0.0753  0.1418  0.2692
 1294loPI   C2A20696   6.875  18.941   6.012 -0.2242  0.3807 -0.0107
 1294loPI   C3A20697   7.081  18.912   6.388  0.2600 -0.1538  0.3171
 1294loPI   C4A20698   7.220  18.949   6.886 -0.0396 -0.1332  0.2284
 1294loPI   C5A20699   7.388  18.887   7.265  0.1780 -0.3858 -0.0133
 1294loPI   C6A20700   7.649  18.734   7.650  0.4467 -0.3911 -0.1921
 1294loPI   C1B20701   6.315  19.732   5.855 -0.2142 -0.1576  0.4537
 1294loPI   C2B20702   6.085  19.714   6.244  0.0966  0.1141  0.1089
 1294loPI   C3B20703   6.029  19.611   6.617 -0.3259  0.1040 -0.2050
 1294loPI   C4B20704   6.095  19.692   7.053  0.1407 -0.2740  0.1702
 1295loPI    C120705  10.291   7.014   4.479 -0.3861  0.1080  0.1786
 1295loPI    C220706  10.063   6.690   4.422 -0.2847  0.0739 -0.0464
 1295loPI    C320707  10.111   6.955   4.126 -0.0522  0.0935  0.0067
 1295loPI   PO420708  10.122   7.079   4.782  0.1821  0.4032 -0.1032
 1295loPI   GL120709  10.080   7.093   5.188  0.5072 -0.1675 -0.2299
 1295loPI   GL220710   9.901   7.246   5.437  0.3560  0.1111  0.0347
 1295loPI   C1A20711  10.022   6.768   5.465  0.0168  0.0619  0.2381
 1295loPI   C2A20712  10.018   6.790   5.904  0.2518  0.1438  0.1809
 1295loPI   C3A20713   9.843   6.909   6.199  0.1396  0.0708  0.3677
 1295loPI   C4A20714   9.981   7.019   6.688  0.1560  0.2021  0.0543
 1295loPI   C5A20715   9.964   6.914   7.064 -0.2444 -0.1242  0.0687
 1295loPI   C6A20716   9.972   6.942   7.428  0.0473  0.0325  0.0563
 1295loPI   C1B20717  10.270   7.194   5.686  0.0030  0.0427 -0.0388
 1295loPI   C2B20718  10.313   7.199   6.122 -0.3159  0.0506  0.1327
 1295loPI   C3B20719  10.397   7.406   6.485  0.2693  0.1022  0.0823
 1295loPI   C4B20720  10.581   7.564   6.863  0.1430 -0.0079  0.0312
 1296loPI    C120721   4.638   6.849   4.531  0.0624  0.2338 -0.0957
 1296loPI    C220722   4.241   6.867   4.489  0.0363  0.0659  0.0676
 1296loPI    C320723   4.479   7.028   4.211 -0.1428 -0.0869 -0.1770
 1296loPI   PO420724   4.653   6.834   4.742 -0.0936  0.0413 -0.0091
 1296loPI   GL120725   4.644   7.024   5.123 -0.2757  0.4946  0.1385
 1296loPI   GL220726   4.748   6.752   5.330 -0.1591 -0.0917  0.1543
 1296loPI   C1A20727   4.808   7.170   5.553 -0.0680  0.0649  0.1905
 1296loPI   C2A20728   4.832   7.106   5.979  0.0314 -0.0697 -0.0852
 1296loPI   C3A20729   4.777   7.056   6.437 -0.2080 -0.0512 -0.2711
 1296loPI   C4A20730   4.973   7.267   6.825  0.1414 -0.1014  0.0164
 1296loPI   C5A20731   4.895   7.383   7.197 -0.0090  0.0490  0.0206
 1296loPI   C6A20732   5.135   7.544   7.625  0.2223 -0.3424  0.0429
 1296loPI   C1B20733   4.470   6.834   5.739 -0.0578 -0.0494  0.1746
 1296loPI   C2B20734   4.319   6.899   6.171 -0.2517 -0.1683  0.1932
 1296loPI   C3B20735   4.309   6.754   6.537  0.1294 -0.1085 -0.0107
 1296loPI   C4B20736   4.206   6.817   6.964  0.0178 -0.4744  0.0570
 1297loPI    C120737   7.114  11.653   4.516  0.0706 -0.0266  0.0178
 1297loPI    C220738   6.864  11.713   4.209 -0.0148 -0.0651  0.0796
 1297loPI    C320739   7.165  11.453   4.173  0.0194 -0.0151  0.0034
 1297loPI   PO420740   6.978  11.749   4.721  0.3574  0.2634 -0.1023
 1297loPI   GL120741   7.040  11.661   5.100 -0.0267  0.0454 -0.2052
 1297loPI   GL220742   6.706  11.477   5.211 -0.1051 -0.0110  0.4133
 1297loPI   C1A20743   6.730  11.905   5.412  0.1104 -0.1117 -0.0201
 1297loPI   C2A20744   6.738  12.182   5.793  0.2749 -0.0716  0.1171
 1297loPI   C3A20745   6.741  12.299   6.212  0.3313 -0.0269  0.2265
 1297loPI   C4A20746   6.525  12.678   6.422 -0.0152  0.0701 -0.0219
 1297loPI   C5A20747   6.608  12.870   6.760 -0.1943 -0.2748  0.1105
 1297loPI   C6A20748   6.409  13.072   6.927 -0.1043  0.1224  0.1133
 1297loPI   C1B20749   6.524  11.538   5.671 -0.1318 -0.3004 -0.0652
 1297loPI   C2B20750   6.731  11.726   6.008 -0.0457 -0.0678 -0.0075
 1297loPI   C3B20751   7.098  11.930   6.238  0.1927  0.0027 -0.2694
 1297loPI   C4B20752   7.374  12.010   6.625  0.2065 -0.2699 -0.1202
 1298loPI    C120753  19.209   5.456   4.525  0.3658  0.0195  0.0204
 1298loPI    C220754  18.907   5.196   4.487  0.1534  0.2731 -0.0605
 1298loPI    C320755  19.284   5.064   4.503  0.0318 -0.0585  0.1947
 1298loPI   PO420756  18.997   5.647   4.729  0.1273 -0.0364 -0.5493
 1298loPI   GL120757  19.074   5.722   5.103 -0.1983  0.0590  0.2347
 1298loPI   GL220758  19.157   6.065   5.094  0.0132 -0.0795  0.1056
 1298loPI   C1A20759  18.861   5.613   5.458 -0.2297 -0.2202 -0.2114
 1298loPI   C2A20760  18.808   5.650   5.884  0.0130  0.1516  0.3053
 1298loPI   C3A20761  18.740   5.691   6.331  0.1211 -0.2770 -0.3848
 1298loPI   C4A20762  18.767   5.667   6.718 -0.1698 -0.0146 -0.2631
 1298loPI   C5A20763  18.930   5.817   7.046  0.0956 -0.2732  0.2471
 1298loPI   C6A20764  19.045   6.283   7.118  0.0965  0.2364  0.1918
 1298loPI   C1B20765  19.264   5.998   5.521  0.3052  0.0978  0.0156
 1298loPI   C2B20766  19.158   6.008   5.961  0.2331 -0.0553  0.0605
 1298loPI   C3B20767  19.136   6.009   6.369 -0.0048 -0.1018  0.3586
 1298loPI   C4B20768  19.280   6.015   6.724 -0.0046  0.1505  0.1449
 1299loPI    C120769  15.042   7.270   4.336 -0.1276  0.0152  0.0660
 1299loPI    C220770  15.169   7.121   3.988  0.0569 -0.0087  0.1423
 1299loPI    C320771  14.843   6.970   4.163  0.0222 -0.0645  0.0307
 1299loPI   PO420772  15.268   7.343   4.455  0.4047 -0.0641 -0.5536
 1299loPI   GL120773  15.343   7.442   4.846  0.1977  0.0823 -0.2712
 1299loPI   GL220774  15.028   7.375   4.906  0.1249  0.0641  0.1409
 1299loPI   C1A20775  15.166   7.429   5.353 -0.1502 -0.4798  0.1373
 1299loPI   C2A20776  15.082   7.386   5.708 -0.0199  0.3085 -0.0151
 1299loPI   C3A20777  15.067   7.332   6.139  0.3075  0.3451  0.0461
 1299loPI   C4A20778  15.086   7.330   6.545 -0.3453  0.2717 -0.1966
 1299loPI   C5A20779  15.160   7.306   6.953 -0.1227  0.0336 -0.3584
 1299loPI   C6A20780  14.990   7.370   7.353  0.1575 -0.1349 -0.1299
 1299loPI   C1B20781  14.798   7.115   5.288 -0.3137  0.0366 -0.2445
 1299loPI   C2B20782  14.712   7.004   5.763  0.1816  0.0372 -0.0930
 1299loPI   C3B20783  14.723   6.936   6.168 -0.1437 -0.0500  0.0371
 1299loPI   C4B20784  14.815   6.933   6.597 -0.0705  0.1342  0.0693
 1300loPI    C120785  14.947   8.323   4.432  0.0550  0.0209 -0.0388
 1300loPI    C220786  14.936   8.527   4.088  0.0201  0.0479 -0.0217
 1300loPI    C320787  14.699   8.634   4.392  0.2506  0.1989  0.1080
 1300loPI   PO420788  15.164   8.307   4.482 -0.0705 -0.0254 -0.3037
 1300loPI   GL120789  15.375   8.466   4.770  0.0714 -0.3240  0.0870
 1300loPI   GL220790  15.566   8.680   4.736 -0.1200 -0.0822 -0.2901
 1300loPI   C1A20791  15.555   8.223   5.107 -0.3119 -0.2140  0.2968
 1300loPI   C2A20792  15.472   8.211   5.592  0.0797  0.0023 -0.1661
 1300loPI   C3A20793  15.445   8.158   5.975 -0.0504  0.1302 -0.2657
 1300loPI   C4A20794  15.489   8.224   6.420  0.2492  0.0219  0.3421
 1300loPI   C5A20795  15.357   8.055   6.910  0.3742 -0.1421  0.2537
 1300loPI   C6A20796  14.979   7.943   7.030  0.3516 -0.1179  0.1642
 1300loPI   C1B20797  15.403   8.703   5.245 -0.3400  0.2646 -0.1395
 1300loPI   C2B20798  15.405   8.671   5.805  0.1570  0.0854  0.4662
 1300loPI   C3B20799  15.465   8.676   6.216 -0.0135  0.0151 -0.0278
 1300loPI   C4B20800  15.384   8.695   6.596  0.0330  0.0433  0.1101
 1301loPI    C120801   1.124   6.421   4.488 -0.0433  0.5239 -0.1780
 1301loPI    C220802   1.241   6.486   4.111 -0.2314 -0.0709 -0.3509
 1301loPI    C320803   1.377   6.167   4.311 -0.0757  0.2782  0.1191
 1301loPI   PO420804   1.211   6.671   4.651 -0.1109 -0.0503  0.0182
 1301loPI   GL120805   1.332   6.807   5.055 -0.2873 -0.1299  0.0877
 1301loPI   GL220806   1.683   6.700   4.885  0.1050 -0.0570 -0.3106
 1301loPI   C1A20807   1.285   6.892   5.507 -0.1473 -0.0477 -0.0460
 1301loPI   C2A20808   1.184   6.958   5.954 -0.1343 -0.1520  0.0109
 1301loPI   C3A20809   1.277   6.808   6.283  0.0879 -0.1356 -0.1526
 1301loPI   C4A20810   1.327   6.869   6.835  0.0262  0.1822 -0.1915
 1301loPI   C5A20811   1.009   6.631   7.007 -0.1353  0.0454 -0.1608
 1301loPI   C6A20812   0.584   6.473   7.100  0.1395  0.0046 -0.0083
 1301loPI   C1B20813   1.806   6.766   5.286 -0.1160  0.2077 -0.1019
 1301loPI   C2B20814   1.809   6.697   5.690 -0.1507 -0.1299  0.2007
 1301loPI   C3B20815   1.809   6.763   6.132  0.2633 -0.0339  0.1288
 1301loPI   C4B20816   1.739   6.808   6.573 -0.0279 -0.0103  0.0065
 1302loPI    C120817  18.750  11.878   4.208 -0.1453 -0.1116  0.1464
 1302loPI    C220818  18.546  11.853   3.865 -0.0311  0.2814  0.0435
 1302loPI    C320819  18.946  11.872   3.859 -0.0042 -0.1146  0.2246
 1302loPI   PO420820  18.649  12.077   4.308  0.0353 -0.0411 -0.1045
 1302loPI   GL120821  18.340  12.027   4.612 -0.0603 -0.2716  0.2622
 1302loPI   GL220822  18.462  11.715   4.765 -0.1865 -0.1370 -0.0302
 1302loPI   C1A20823  18.373  12.359   4.861  0.2765  0.1392 -0.1704
 1302loPI   C2A20824  18.192  12.486   5.321 -0.2136 -0.1401  0.3834
 1302loPI   C3A20825  18.133  12.519   5.762 -0.0650  0.1928  0.2918
 1302loPI   C4A20826  18.142  12.509   6.138  0.2230  0.1277  0.3722
 1302loPI   C5A20827  18.268  12.326   6.539  0.2641 -0.2691 -0.0610
 1302loPI   C6A20828  18.519  12.218   6.918  0.1792 -0.0803  0.1429
 1302loPI   C1B20829  18.304  11.466   5.046 -0.1666 -0.0294  0.0473
 1302loPI   C2B20830  18.391  11.479   5.480 -0.1088  0.0714 -0.2080
 1302loPI   C3B20831  18.372  11.368   5.901  0.0729  0.1008  0.0570
 1302loPI   C4B20832  18.432  11.348   6.365  0.0325  0.1398  0.1816
 1303loPI    C120833   2.786  12.373   4.176 -0.0133  0.0050  0.0080
 1303loPI    C220834   2.594  12.662   3.979  0.0958  0.0911  0.0267
 1303loPI    C320835   2.909  12.482   3.811  0.0399 -0.0039  0.0231
 1303loPI   PO420836   2.644  12.280   4.296 -0.1889 -0.0203 -0.0833
 1303loPI   GL120837   2.461  12.075   4.714 -0.0330 -0.2181 -0.0357
 1303loPI   GL220838   2.629  11.849   4.559  0.3173  0.3377 -0.2191
 1303loPI   C1A20839   2.233  11.954   5.034  0.0158 -0.2025 -0.0406
 1303loPI   C2A20840   2.007  11.975   5.443 -0.0923  0.1359  0.1115
 1303loPI   C3A20841   1.867  11.797   5.852 -0.2380  0.1679 -0.0291
 1303loPI   C4A20842   2.036  11.826   6.244 -0.1929 -0.0973 -0.1086
 1303loPI   C5A20843   2.362  11.645   6.509 -0.2022 -0.1260  0.0462
 1303loPI   C6A20844   2.876  11.943   6.460 -0.2942  0.0768 -0.0552
 1303loPI   C1B20845   2.759  11.886   5.067  0.2693  0.0360 -0.2577
 1303loPI   C2B20846   2.682  12.133   5.394 -0.1925  0.2234  0.2126
 1303loPI   C3B20847   2.807  12.117   5.876  0.0629 -0.1263  0.1180
 1303loPI   C4B20848   2.420  11.990   6.057 -0.2144  0.0975  0.2137
 1304loPI    C120849  17.954  10.458   4.093 -0.0255 -0.1853 -0.0794
 1304loPI    C220850  18.193  10.293   3.817 -0.0001  0.1284 -0.2491
 1304loPI    C320851  18.071  10.672   3.776  0.0675  0.2056  0.2117
 1304loPI   PO420852  18.117  10.515   4.370 -0.2435 -0.1289  0.0028
 1304loPI   GL120853  18.205  10.706   4.635 -0.0369 -0.1081 -0.0834
 1304loPI   GL220854  18.435  10.410   4.726 -0.0874  0.1889 -0.0871
 1304loPI   C1A20855  18.141  10.658   5.104  0.1048  0.0023  0.3090
 1304loPI   C2A20856  18.097  10.612   5.531 -0.1006  0.0287 -0.0409
 1304loPI   C3A20857  18.118  10.482   5.962  0.3919 -0.0306 -0.0535
 1304loPI   C4A20858  18.169  10.438   6.363 -0.1693  0.0845  0.3710
 1304loPI   C5A20859  18.390  10.173   6.697 -0.0447  0.2447 -0.2070
 1304loPI   C6A20860  18.608  10.222   7.031  0.2262 -0.2452 -0.1568
 1304loPI   C1B20861  18.664  10.545   5.124 -0.4524  0.0151  0.0912
 1304loPI   C2B20862  18.694  10.428   5.469 -0.1220 -0.0540  0.0605
 1304loPI   C3B20863  18.677  10.378   5.893 -0.3262  0.5249 -0.0057
 1304loPI   C4B20864  18.651  10.427   6.386  0.0712 -0.0641  0.2993
 1305loPI    C120865  13.738  15.177   4.385  0.1354 -0.0070  0.0066
 1305loPI    C220866  13.793  15.546   4.240  0.2357  0.0169  0.1038
 1305loPI    C320867  13.977  15.235   4.069  0.0811 -0.0004 -0.0335
 1305loPI   PO420868  13.798  15.234   4.744  0.3004  0.3694 -0.2886
 1305loPI   GL120869  13.733  15.142   5.146 -0.2320 -0.1908  0.1067
 1305loPI   GL220870  13.398  15.037   5.262  0.0010  0.0306 -0.0848
 1305loPI   C1A20871  13.842  15.221   5.541 -0.2503 -0.1393  0.1494
 1305loPI   C2A20872  13.742  14.956   5.953  0.1070 -0.5637  0.0809
 1305loPI   C3A20873  13.417  15.020   6.268  0.0194  0.4122 -0.0906
 1305loPI   C4A20874  13.444  15.048   6.761 -0.1836  0.0180  0.0813
 1305loPI   C5A20875  13.234  15.260   7.125  0.0261  0.0223 -0.1362
 1305loPI   C6A20876  12.863  15.247   7.193  0.0207  0.0919 -0.3643
 1305loPI   C1B20877  13.244  15.003   5.684  0.0227  0.1341  0.2623
 1305loPI   C2B20878  12.930  14.937   6.028 -0.2668 -0.0469  0.3788
 1305loPI   C3B20879  12.618  14.813   6.334  0.0427 -0.2225  0.1865
 1305loPI   C4B20880  12.283  14.952   6.644 -0.1411  0.3122 -0.1391
 1306loPI    C120881  18.028   1.302   4.529 -0.1619 -0.2269  0.0105
 1306loPI    C220882  18.159   1.074   4.228 -0.2187  0.3421 -0.4643
 1306loPI    C320883  17.766   1.122   4.286 -0.2175 -0.0789 -0.0404
 1306loPI   PO420884  18.115   1.224   4.783 -0.3048  0.2612 -0.0953
 1306loPI   GL120885  18.200   1.296   5.180 -0.5862 -0.0971 -0.0308
 1306loPI   GL220886  18.539   1.220   5.333  0.0505 -0.0675  0.0025
 1306loPI   C1A20887  18.177   1.114   5.680 -0.6374 -0.0108 -0.0172
 1306loPI   C2A20888  18.271   1.298   6.081  0.4351 -0.3203  0.0238
 1306loPI   C3A20889  18.430   1.221   6.388 -0.2594  0.0592 -0.0457
 1306loPI   C4A20890  18.731   1.272   6.721 -0.2647 -0.0531 -0.0185
 1306loPI   C5A20891  18.798   1.115   7.085  0.0675  0.1682  0.2877
 1306loPI   C6A20892  18.879   0.883   7.438 -0.3959 -0.1039  0.1259
 1306loPI   C1B20893  18.694   1.133   5.820  0.5553  0.1248  0.1131
 1306loPI   C2B20894  18.696   0.840   6.187 -0.0780  0.0856  0.1784
 1306loPI   C3B20895  18.581   0.823   6.667 -0.1780  0.0413 -0.0005
 1306loPI   C4B20896  18.296   1.142   6.874 -0.3047 -0.2153 -0.1831
 1307loPI    C120897  -0.022  15.477   4.540  0.1000  0.0239  0.0768
 1307loPI    C220898  -0.035  15.241   4.217 -0.0007  0.2005 -0.0502
 1307loPI    C320899   0.310  15.413   4.326 -0.0117  0.3138 -0.1915
 1307loPI   PO420900  -0.220  15.288   4.832  0.1504  0.3180 -0.0368
 1307loPI   GL120901  -0.143  15.027   5.223  0.1887  0.2518  0.0069
 1307loPI   GL220902   0.082  14.995   5.197  0.2219 -0.2591  0.0485
 1307loPI   C1A20903  -0.546  15.207   5.389  0.0682 -0.2074 -0.3039
 1307loPI   C2A20904  -0.750  15.239   5.767  0.0079 -0.4246 -0.3358
 1307loPI   C3A20905  -0.926  15.141   6.060  0.3441  0.2013 -0.0954
 1307loPI   C4A20906  -0.742  15.027   6.535  0.1538  0.2088  0.2637
 1307loPI   C5A20907  -0.479  15.144   6.875  0.1029 -0.0762 -0.4736
 1307loPI   C6A20908  -0.123  15.092   7.332 -0.0523  0.0921 -0.0120
 1307loPI   C1B20909   0.289  14.938   5.572 -0.0841  0.0994  0.0806
 1307loPI   C2B20910   0.590  14.890   5.844  0.0550  0.2585  0.1074
 1307loPI   C3B20911   0.850  14.649   6.194  0.0246 -0.2466  0.3140
 1307loPI   C4B20912   1.140  14.659   6.515  0.0077  0.1911  0.2659
 1308loPI    C120913  14.309  19.459   4.756  0.1112 -0.0479  0.0570
 1308loPI    C220914  14.158  19.122   4.602  0.3683 -0.0755 -0.1422
 1308loPI    C320915  14.073  19.474   4.433  0.4464 -0.0817 -0.1958
 1308loPI   PO420916  14.512  19.433   4.831 -0.1304 -0.1938  0.0723
 1308loPI   GL120917  14.589  19.423   5.325  0.1626  0.1336 -0.2608
 1308loPI   GL220918  14.813  19.775   5.350  0.1166 -0.1766 -0.2976
 1308loPI   C1A20919  14.929  19.371   5.617 -0.1801  0.0052  0.1270
 1308loPI   C2A20920  15.191  19.192   5.965  0.1413 -0.4027  0.0525
 1308loPI   C3A20921  15.388  18.964   6.297  0.0545  0.0967 -0.0952
 1308loPI   C4A20922  15.508  19.075   6.716  0.0408 -0.1524 -0.2103
 1308loPI   C5A20923  15.384  19.135   7.075 -0.2042 -0.1084  0.0763
 1308loPI   C6A20924  15.409  19.502   7.309 -0.1040  0.0391 -0.1414
 1308loPI   C1B20925  14.535  19.776   5.724  0.4023  0.0384  0.1561
 1308loPI   C2B20926  14.771  19.803   6.108 -0.0238  0.3462 -0.3547
 1308loPI   C3B20927  14.839  19.770   6.553  0.0672  0.1642  0.0178
 1308loPI   C4B20928  15.111  19.520   6.888 -0.0813  0.0481 -0.0243
 1309loPI    C120929   2.151   4.915   4.528 -0.2148 -0.1896 -0.0168
 1309loPI    C220930   2.272   4.537   4.582  0.0126 -0.1477 -0.2169
 1309loPI    C320931   2.003   4.623   4.298 -0.0744 -0.1650 -0.1401
 1309loPI   PO420932   2.071   5.079   4.741 -0.0474  0.0033  0.3289
 1309loPI   GL120933   1.985   5.091   5.154  0.0025 -0.2947  0.0440
 1309loPI   GL220934   2.072   4.919   5.442  0.3350 -0.0822 -0.0859
 1309loPI   C1A20935   1.789   5.410   5.473  0.5605  0.0691  0.1766
 1309loPI   C2A20936   1.744   5.511   5.940 -0.3259 -0.1614 -0.1398
 1309loPI   C3A20937   1.693   5.478   6.261 -0.0648  0.0862  0.3418
 1309loPI   C4A20938   1.686   5.397   6.634 -0.2221 -0.0354 -0.0330
 1309loPI   C5A20939   1.717   5.355   7.081 -0.0572  0.2076  0.0561
 1309loPI   C6A20940   1.966   5.366   7.440  0.1269  0.1069 -0.4576
 1309loPI   C1B20941   1.832   4.984   5.809  0.2470  0.1878  0.2893
 1309loPI   C2B20942   1.838   4.968   6.245  0.0824  0.2988  0.0218
 1309loPI   C3B20943   1.892   4.829   6.720 -0.1611  0.1231  0.0558
 1309loPI   C4B20944   1.681   4.835   7.035  0.3197  0.0315 -0.1005
 1310loPI    C120945   7.710   0.488   4.634 -0.3231 -0.1822  0.2711
 1310loPI    C220946   7.755   0.092   4.609  0.1129 -0.1250  0.0598
 1310loPI    C320947   7.649   0.302   4.286  0.1551 -0.0375  0.1023
 1310loPI   PO420948   8.080   0.641   4.765 -0.1236 -0.3298 -0.0045
 1310loPI   GL120949   8.221   0.533   5.184 -0.1950 -0.2439 -0.1990
 1310loPI   GL220950   8.072   0.820   5.233  0.0291 -0.1991 -0.0181
 1310loPI   C1A20951   8.175   0.274   5.562  0.0637 -0.0981  0.2161
 1310loPI   C2A20952   8.162   0.235   6.054  0.0799 -0.4718 -0.1206
 1310loPI   C3A20953   8.221   0.507   6.360  0.3128 -0.3222  0.1001
 1310loPI   C4A20954   7.993   0.787   6.501 -0.0409 -0.2263 -0.1535
 1310loPI   C5A20955   7.950   1.227   6.486  0.0791  0.1302 -0.0323
 1310loPI   C6A20956   8.173   1.417   6.776 -0.2228  0.3889 -0.0388
 1310loPI   C1B20957   8.284   0.900   5.592 -0.1515 -0.0027 -0.3341
 1310loPI   C2B20958   8.501   1.217   5.745 -0.1020 -0.1936  0.0295
 1310loPI   C3B20959   8.710   1.494   6.066 -0.0279  0.0489 -0.0872
 1310loPI   C4B20960   9.126   1.726   6.142  0.0253  0.4016  0.2104
 1311loPI    C120961  11.918   1.006   4.617  0.0126 -0.0556  0.0163
 1311loPI    C220962  12.269   0.860   4.494 -0.0946 -0.2192 -0.0990
 1311loPI    C320963  12.018   1.025   4.230 -0.1635 -0.2284 -0.0392
 1311loPI   PO420964  12.075   1.212   4.877 -0.1676 -0.2306  0.1528
 1311loPI   GL120965  11.948   1.267   5.332 -0.1585 -0.3623 -0.1850
 1311loPI   GL220966  11.801   1.465   5.508 -0.1801 -0.0398 -0.1435
 1311loPI   C1A20967  11.715   1.017   5.610  0.1035 -0.1069  0.2296
 1311loPI   C2A20968  11.732   1.063   6.120 -0.1644  0.2009  0.3431
 1311loPI   C3A20969  11.929   0.916   6.600  0.1504 -0.0990  0.0710
 1311loPI   C4A20970  12.023   0.646   6.996  0.0891  0.1497 -0.0171
 1311loPI   C5A20971  12.148   0.429   7.345 -0.3518 -0.0992  0.0605
 1311loPI   C6A20972  12.387   0.668   7.547  0.0178 -0.1437  0.0705
 1311loPI   C1B20973  11.938   1.618   5.989 -0.0147  0.0835 -0.1261
 1311loPI   C2B20974  11.936   1.883   6.362 -0.1809  0.0045 -0.2781
 1311loPI   C3B20975  12.001   1.920   6.804 -0.3802  0.5147 -0.1535
 1311loPI   C4B20976  12.013   1.720   7.221 -0.2270  0.1055 -0.1140
 1312loPI    C120977  16.339  18.718   4.695  0.2683 -0.2161  0.0060
 1312loPI    C220978  16.413  18.357   4.539  0.0251 -0.1029 -0.3856
 1312loPI    C320979  16.460  18.685   4.315  0.1092  0.1011 -0.0755
 1312loPI   PO420980  16.433  18.813   4.869  0.0839  0.1257 -0.0626
 1312loPI   GL120981  16.746  18.696   5.101  0.1046 -0.1181 -0.1583
 1312loPI   GL220982  17.122  18.715   5.224  0.1065 -0.0431 -0.3148
 1312loPI   C1A20983  16.839  19.036   5.498  0.1623  0.2786  0.0366
 1312loPI   C2A20984  16.543  19.200   5.741  0.1649 -0.0383  0.2085
 1312loPI   C3A20985  16.637  19.104   6.296  0.2301 -0.1004  0.1485
 1312loPI   C4A20986  16.504  19.163   6.720  0.0622  0.4687 -0.1744
 1312loPI   C5A20987  16.444  19.288   7.110  0.0217  0.1211 -0.3264
 1312loPI   C6A20988  16.520  19.562   7.458 -0.3084  0.0908 -0.1073
 1312loPI   C1B20989  17.253  18.639   5.561  0.0783  0.0409  0.1453
 1312loPI   C2B20990  17.257  18.583   6.049  0.0128  0.0316 -0.0162
 1312loPI   C3B20991  17.377  18.365   6.374  0.0829  0.2147  0.2013
 1312loPI   C4B20992  17.391  18.186   6.805 -0.0207 -0.1297 -0.0537
 1313loPI    C120993   0.692   4.471   4.505 -0.1569 -0.1387  0.1383
 1313loPI    C220994   1.004   4.222   4.528 -0.2103 -0.1964  0.2488
 1313loPI    C320995   1.055   4.595   4.392 -0.1310 -0.2683  0.0779
 1313loPI   PO420996   0.528   4.510   4.700  0.1912 -0.0241 -0.2367
 1313loPI   GL120997   0.552   4.556   5.144  0.0536 -0.1441 -0.0731
 1313loPI   GL220998   0.462   4.311   5.320 -0.1996  0.1957 -0.4079
 1313loPI   C1A20999   0.468   4.829   5.429  0.1237  0.1161 -0.2196
 1313loPI   C2A21000   0.436   4.860   5.901  0.0709  0.0553 -0.1368
 1313loPI   C3A21001   0.471   4.813   6.259  0.1677  0.0336 -0.1993
 1313loPI   C4A21002   0.409   4.615   6.809  0.1291 -0.0649  0.0197
 1313loPI   C5A21003   0.205   4.212   6.915 -0.0390  0.1533  0.1391
 1313loPI   C6A21004  -0.160   3.944   6.927  0.3225  0.0609 -0.1301
 1313loPI   C1B21005   0.627   4.363   5.669 -0.2479  0.1343  0.0233
 1313loPI   C2B21006   0.576   4.349   6.009  0.0769 -0.0466  0.2723
 1313loPI   C3B21007   0.364   4.262   6.449 -0.0162 -0.1108 -0.2230
 1313loPI   C4B21008  -0.002   4.081   6.460  0.2798 -0.2865 -0.0943
 1314loPI    C121009  15.241  18.948   4.680 -0.1250  0.1403  0.0024
 1314loPI    C221010  15.054  19.000   4.330 -0.0827  0.0416 -0.0352
 1314loPI    C321011  15.437  18.884   4.337 -0.0468  0.1623  0.0428
 1314loPI   PO421012  15.232  19.132   4.847 -0.3013  0.0751 -0.0536
 1314loPI   GL121013  15.542  19.323   5.073 -0.0105  0.1793  0.2464
 1314loPI   GL221014  15.774  19.560   5.096 -0.2156  0.0017 -0.2982
 1314loPI   C1A21015  15.310  19.594   5.379 -0.2182 -0.2313  0.2530
 1314loPI   C2A21016  15.179  19.770   5.747 -0.1519 -0.0056 -0.0464
 1314loPI   C3A21017  15.227  20.023   6.160 -0.0548 -0.3248 -0.0137
 1314loPI   C4A21018  15.270  19.962   6.561  0.2420 -0.0236  0.0464
 1314loPI   C5A21019  15.267  20.054   7.011  0.1281  0.1695 -0.1970
 1314loPI   C6A21020  15.262  20.182   7.334  0.0355 -0.4312 -0.3087
 1314loPI   C1B21021  15.829  19.488   5.502 -0.3181 -0.0811  0.2245
 1314loPI   C2B21022  16.105  19.494   5.864  0.1146  0.3701  0.2067
 1314loPI   C3B21023  16.401  19.532   6.175 -0.0598 -0.1146  0.2423
 1314loPI   C4B21024  16.322  19.637   6.530 -0.2511  0.1984  0.2621
 1315loPI    C121025  11.176   1.632   4.995 -0.2880 -0.0668 -0.0954
 1315loPI    C221026  11.075   1.403   4.683 -0.1288  0.0643 -0.2454
 1315loPI    C321027  11.342   1.697   4.637  0.2050 -0.1741  0.1062
 1315loPI   PO421028  11.149   1.502   5.171  0.3034  0.2763  0.0136
 1315loPI   GL121029  10.984   1.231   5.501  0.2193 -0.2366 -0.0343
 1315loPI   GL221030  11.345   1.339   5.584  0.1279  0.0441 -0.1863
 1315loPI   C1A21031  10.726   0.992   5.765  0.0674 -0.1014 -0.3269
 1315loPI   C2A21032  10.747   0.919   6.228 -0.0074  0.1064 -0.1305
 1315loPI   C3A21033  10.660   0.976   6.632 -0.0535  0.0952 -0.2904
 1315loPI   C4A21034  10.599   0.643   6.987  0.0238 -0.3417 -0.2254
 1315loPI   C5A21035  10.419   0.674   7.444 -0.1552 -0.0718  0.0894
 1315loPI   C6A21036  10.177   0.425   7.861  0.0319  0.0575 -0.1514
 1315loPI   C1B21037  11.479   1.471   5.929 -0.1909 -0.1088 -0.1456
 1315loPI   C2B21038  11.550   1.501   6.384 -0.3698  0.1423  0.2317
 1315loPI   C3B21039  11.637   1.567   6.767  0.0743  0.1474  0.0597
 1315loPI   C4B21040  11.340   1.448   6.991  0.0678 -0.0088  0.3403
 1316loPI    C121041  15.064  14.248   4.731 -0.0870  0.0836 -0.3050
 1316loPI    C221042  15.290  13.976   4.544  0.0254 -0.0924  0.0769
 1316loPI    C321043  15.394  14.362   4.535 -0.0046 -0.0889 -0.2679
 1316loPI   PO421044  14.843  14.155   4.959  0.2830  0.2971  0.0181
 1316loPI   GL121045  14.798  13.991   5.296 -0.0347 -0.0753  0.2595
 1316loPI   GL221046  15.099  13.922   5.421 -0.2043  0.4557  0.0048
 1316loPI   C1A21047  14.540  13.861   5.579 -0.2524  0.0751 -0.2928
 1316loPI   C2A21048  14.332  13.947   5.937  0.1450  0.2127 -0.1063
 1316loPI   C3A21049  14.609  13.971   6.292 -0.1888 -0.0417 -0.2210
 1316loPI   C4A21050  14.928  13.880   6.551 -0.0612 -0.1534 -0.1628
 1316loPI   C5A21051  15.175  13.891   7.035  0.2820  0.0370  0.0482
 1316loPI   C6A21052  15.261  13.550   7.374 -0.1804 -0.2869  0.0992
 1316loPI   C1B21053  15.004  13.720   5.754  0.3361  0.0336  0.2089
 1316loPI   C2B21054  15.247  13.739   6.065  0.2058  0.0904 -0.1050
 1316loPI   C3B21055  15.424  13.601   6.470  0.1710  0.0546 -0.0941
 1316loPI   C4B21056  15.565  13.552   6.965 -0.1661  0.1897 -0.1548
 1317loPI    C121057   5.983   0.553   4.849  0.1699  0.1286  0.0290
 1317loPI    C221058   6.306   0.356   4.717 -0.0965 -0.3371  0.0493
 1317loPI    C321059   6.010   0.447   4.464 -0.0132 -0.0304  0.0582
 1317loPI   PO421060   6.141   0.695   5.108  0.0665  0.2130 -0.1109
 1317loPI   GL121061   6.082   0.663   5.551  0.1326 -0.0624  0.0628
 1317loPI   GL221062   6.247   1.044   5.603 -0.1653 -0.1719  0.0889
 1317loPI   C1A21063   5.864   0.880   5.783  0.2240 -0.0013 -0.0245
 1317loPI   C2A21064   5.737   0.877   6.309  0.2548  0.0665  0.1566
 1317loPI   C3A21065   5.774   1.117   6.636  0.1824 -0.0610 -0.2759
 1317loPI   C4A21066   6.016   1.361   6.923 -0.0689  0.0962  0.2219
 1317loPI   C5A21067   6.469   1.578   7.049 -0.0670  0.0433 -0.0818
 1317loPI   C6A21068   6.661   1.631   7.488 -0.0683 -0.4278 -0.1485
 1317loPI   C1B21069   6.084   1.320   6.013  0.2632  0.2442 -0.0808
 1317loPI   C2B21070   6.141   1.203   6.419  0.1255 -0.0289  0.1367
 1317loPI   C3B21071   6.502   1.094   6.601  0.0917  0.0169 -0.2784
 1317loPI   C4B21072   6.606   0.713   6.538  0.2849 -0.0081  0.3273
 1318loPI    C121073  16.200   7.171   4.100  0.1669 -0.0584 -0.2304
 1318loPI    C221074  16.280   7.410   3.789  0.1226 -0.0234 -0.2152
 1318loPI    C321075  15.954   7.178   3.785  0.0002  0.1439 -0.0989
 1318loPI   PO421076  16.181   7.321   4.299  0.0432 -0.0225  0.0576
 1318loPI   GL121077  16.321   7.324   4.728 -0.2678  0.1510  0.0113
 1318loPI   GL221078  16.655   7.457   4.530 -0.0242  0.1156  0.0057
 1318loPI   C1A21079  16.546   7.346   5.124  0.1366  0.1568 -0.3691
 1318loPI   C2A21080  16.554   7.397   5.557 -0.1182  0.2740 -0.0235
 1318loPI   C3A21081  16.522   7.283   5.942 -0.1169 -0.0866 -0.3097
 1318loPI   C4A21082  16.542   7.296   6.427 -0.3813  0.2134 -0.2851
 1318loPI   C5A21083  16.546   7.504   6.722  0.1458  0.1697 -0.0756
 1318loPI   C6A21084  16.620   7.566   7.113 -0.0888 -0.2091  0.0555
 1318loPI   C1B21085  16.554   7.784   4.854 -0.3053 -0.3516 -0.0024
 1318loPI   C2B21086  16.550   7.804   5.313  0.1748 -0.0041  0.3988
 1318loPI   C3B21087  16.429   7.851   5.702 -0.1470 -0.2175 -0.1350
 1318loPI   C4B21088  16.523   7.775   6.095  0.2573  0.0684  0.1241
 1319loPI    C121089  15.775   2.360   4.967 -0.1406  0.1074 -0.1404
 1319loPI    C221090  15.671   2.641   4.703  0.0685  0.0538 -0.2827
 1319loPI    C321091  15.600   2.256   4.623 -0.0441  0.0510 -0.1730
 1319loPI   PO421092  15.685   2.431   5.156 -0.0600  0.0505  0.2291
 1319loPI   GL121093  15.774   2.386   5.578 -0.0620  0.1534 -0.0420
 1319loPI   GL221094  15.661   2.742   5.549 -0.0161 -0.3469 -0.1524
 1319loPI   C1A21095  15.669   2.509   5.960 -0.2140  0.2167 -0.0409
 1319loPI   C2A21096  15.809   2.651   6.355 -0.1182  0.0641  0.1975
 1319loPI   C3A21097  15.966   2.931   6.633 -0.0501 -0.1405 -0.1985
 1319loPI   C4A21098  16.000   3.114   7.015  0.2244 -0.1339 -0.3407
 1319loPI   C5A21099  16.002   3.174   7.526 -0.1538 -0.0953  0.0027
 1319loPI   C6A21100  16.306   2.985   7.759  0.0231 -0.1864 -0.1015
 1319loPI   C1B21101  15.438   2.927   5.883 -0.1821  0.0336 -0.1592
 1319loPI   C2B21102  15.305   2.763   6.265 -0.2984  0.2676  0.0259
 1319loPI   C3B21103  15.151   2.776   6.658 -0.0382 -0.2647 -0.1171
 1319loPI   C4B21104  15.159   2.562   7.065 -0.0360  0.0140  0.3626
 1320loPI    C121105   2.309   2.101   4.650 -0.0926 -0.0476  0.0760
 1320loPI    C221106   2.675   2.036   4.504 -0.1568  0.0579 -0.1355
 1320loPI    C321107   2.418   2.268   4.303 -0.2647  0.1636  0.1211
 1320loPI   PO421108   2.338   2.058   4.925 -0.1411 -0.0891 -0.0972
 1320loPI   GL121109   2.197   2.281   5.279  0.2322 -0.0639 -0.0007
 1320loPI   GL221110   1.796   2.193   5.411  0.0685  0.1334  0.1111
 1320loPI   C1A21111   2.356   2.391   5.692  0.0016  0.1854  0.1504
 1320loPI   C2A21112   2.501   2.107   6.044  0.2664 -0.2156  0.3056
 1320loPI   C3A21113   2.613   1.831   6.450  0.3214  0.0783  0.2831
 1320loPI   C4A21114   2.566   1.696   6.831  0.0741 -0.2506  0.2912
 1320loPI   C5A21115   2.398   1.472   7.190  0.0256  0.1088  0.2080
 1320loPI   C6A21116   2.212   1.125   7.356 -0.1967 -0.0376  0.2024
 1320loPI   C1B21117   1.840   2.199   5.845 -0.2468  0.1023 -0.2147
 1320loPI   C2B21118   2.036   2.269   6.217 -0.1100 -0.2097 -0.4208
 1320loPI   C3B21119   2.005   2.489   6.533 -0.1796 -0.2045 -0.0236
 1320loPI   C4B21120   1.996   2.457   6.928 -0.0516  0.2376  0.0241
 1321loPI    C121121   9.342   9.445   4.523  0.1738  0.0676 -0.2553
 1321loPI    C221122   9.191   9.139   4.732 -0.0866  0.2121 -0.2269
 1321loPI    C321123   9.219   9.115   4.334  0.2562  0.0017 -0.1951
 1321loPI   PO421124   9.642   9.490   4.600  0.0915 -0.4574 -0.0554
 1321loPI   GL121125   9.617   9.656   5.003  0.0441  0.0502  0.1068
 1321loPI   GL221126   9.637   9.259   5.010 -0.0091 -0.0853  0.1363
 1321loPI   C1A21127   9.832   9.494   5.379 -0.0287 -0.1040  0.0894
 1321loPI   C2A21128   9.926   9.494   5.731  0.3490 -0.0393  0.0368
 1321loPI   C3A21129   9.881   9.480   6.150 -0.2845  0.2975  0.0948
 1321loPI   C4A21130   9.802   9.601   6.494 -0.1162 -0.0960  0.1925
 1321loPI   C5A21131   9.476   9.803   6.832 -0.1099 -0.3866  0.2014
 1321loPI   C6A21132   9.212   9.909   7.090  0.2573  0.0154  0.3260
 1321loPI   C1B21133   9.225   9.088   5.232 -0.1644 -0.1552 -0.2132
 1321loPI   C2B21134   9.181   8.937   5.707  0.1115 -0.3457 -0.1771
 1321loPI   C3B21135   8.992   8.998   6.005 -0.0054  0.1276 -0.1679
 1321loPI   C4B21136   8.574   8.830   6.160 -0.4458  0.0502  0.1889
 1322loPI    C121137  12.617   9.756   4.505 -0.0269  0.2173  0.1721
 1322loPI    C221138  12.466   9.815   4.139  0.0146  0.2743  0.1642
 1322loPI    C321139  12.603  10.125   4.351 -0.1448  0.2615  0.2873
 1322loPI   PO421140  12.474   9.593   4.613 -0.1054 -0.2011  0.0859
 1322loPI   GL121141  12.281   9.711   5.041  0.2284  0.2642 -0.1643
 1322loPI   GL221142  12.439   9.565   5.208  0.0408  0.2613 -0.3190
 1322loPI   C1A21143  12.332  10.051   5.425  0.0528  0.0109 -0.0830
 1322loPI   C2A21144  12.421   9.876   5.908 -0.0534  0.2552 -0.0220
 1322loPI   C3A21145  12.431   9.889   6.435  0.0451 -0.0222 -0.4849
 1322loPI   C4A21146  12.226   9.986   6.737 -0.2660  0.0257 -0.1358
 1322loPI   C5A21147  11.982  10.281   6.962 -0.2470  0.3854  0.1297
 1322loPI   C6A21148  11.843  10.440   7.408 -0.0140 -0.0426 -0.2005
 1322loPI   C1B21149  12.506   9.508   5.628  0.0007  0.0724  0.0750
 1322loPI   C2B21150  12.513   9.365   6.066 -0.2389 -0.3349 -0.2158
 1322loPI   C3B21151  12.897   9.313   6.366  0.0170  0.0505  0.0460
 1322loPI   C4B21152  12.905   9.199   6.768 -0.1921  0.0597 -0.3672
 1323loPI    C121153  10.042   3.159   4.894  0.1433 -0.0308 -0.1452
 1323loPI    C221154  10.139   3.531   5.003 -0.4092  0.0740  0.0228
 1323loPI    C321155  10.030   3.455   4.626 -0.1224  0.0416 -0.0564
 1323loPI   PO421156   9.928   3.059   5.107  0.1323 -0.0147 -0.2872
 1323loPI   GL121157   9.602   3.104   5.467 -0.2163  0.1022  0.2208
 1323loPI   GL221158   9.361   3.137   5.636  0.0641  0.1379  0.2734
 1323loPI   C1A21159   9.859   3.116   5.768 -0.0565 -0.0590 -0.1326
 1323loPI   C2A21160   9.920   3.174   6.220 -0.1532 -0.2402  0.0816
 1323loPI   C3A21161   9.871   3.085   6.677  0.1049 -0.2713 -0.1949
 1323loPI   C4A21162   9.826   3.119   7.159  0.0402  0.1487 -0.0993
 1323loPI   C5A21163   9.725   2.727   7.503  0.1565  0.0053  0.4363
 1323loPI   C6A21164   9.888   2.309   7.475  0.2698 -0.0769  0.1654
 1323loPI   C1B21165   9.407   3.123   6.048  0.0948 -0.0561 -0.2015
 1323loPI   C2B21166   9.419   3.199   6.438 -0.0342 -0.1684 -0.5454
 1323loPI   C3B21167   9.419   3.268   6.873  0.1081 -0.1009 -0.0011
 1323loPI   C4B21168   9.368   3.003   7.310 -0.0489 -0.0310  0.0577
 1324loPI    C121169   9.195  11.256   4.302 -0.0279 -0.1761 -0.0082
 1324loPI    C221170   9.471  11.097   4.060 -0.1175 -0.2877 -0.0380
 1324loPI    C321171   9.160  10.877   4.181 -0.0702 -0.2349  0.1847
 1324loPI   PO421172   9.391  11.417   4.503 -0.1186  0.0513  0.1306
 1324loPI   GL121173   9.418  11.387   4.855 -0.1487  0.0594 -0.1108
 1324loPI   GL221174   9.082  11.342   4.957 -0.0997 -0.0342 -0.1771
 1324loPI   C1A21175   9.704  11.484   5.251  0.0106  0.2863  0.0074
 1324loPI   C2A21176   9.827  11.275   5.670 -0.0703  0.0646  0.0306
 1324loPI   C3A21177  10.060  11.409   6.047  0.1388  0.1104 -0.0168
 1324loPI   C4A21178  10.119  11.787   6.421 -0.0930  0.0450 -0.0153
 1324loPI   C5A21179  10.167  12.154   6.718  0.0481  0.1174  0.1273
 1324loPI   C6A21180  10.480  12.160   7.087  0.1517  0.0637 -0.3078
 1324loPI   C1B21181   9.156  11.598   5.385 -0.2251  0.4617  0.3752
 1324loPI   C2B21182   9.456  11.656   5.644 -0.0319  0.0453 -0.2828
 1324loPI   C3B21183   9.566  11.439   6.037  0.2870 -0.0221 -0.1387
 1324loPI   C4B21184   9.297  11.400   6.381 -0.5206  0.0782 -0.0561
 1325loPI    C121185  12.590  12.439   4.616  0.0012 -0.0957  0.1816
 1325loPI    C221186  12.301  12.290   4.385  0.0558 -0.0273  0.0684
 1325loPI    C321187  12.608  12.486   4.220  0.0017  0.1816  0.2123
 1325loPI   PO421188  12.724  12.312   4.708  0.4067  0.0470 -0.2501
 1325loPI   GL121189  12.927  12.356   5.066  0.0136 -0.0355  0.0405
 1325loPI   GL221190  12.991  12.036   5.116  0.0245  0.0496 -0.2575
 1325loPI   C1A21191  12.923  12.396   5.500  0.2648  0.0550  0.2011
 1325loPI   C2A21192  13.011  12.455   5.907  0.1101 -0.0856  0.3072
 1325loPI   C3A21193  13.106  12.209   6.297 -0.0168  0.0148  0.1083
 1325loPI   C4A21194  13.293  12.155   6.622 -0.1416 -0.1138  0.0036
 1325loPI   C5A21195  13.224  12.302   6.965  0.2176 -0.2469 -0.2577
 1325loPI   C6A21196  13.274  12.435   7.384  0.1137  0.1856  0.0643
 1325loPI   C1B21197  12.870  11.901   5.627  0.2994 -0.1158 -0.0483
 1325loPI   C2B21198  12.961  11.767   6.030  0.0028 -0.1645 -0.2493
 1325loPI   C3B21199  13.045  11.751   6.460 -0.1123  0.5342 -0.0806
 1325loPI   C4B21200  12.750  11.692   6.779 -0.1413  0.2827  0.2136
 1326loPI    C121201   0.402   6.948   4.596  0.0261 -0.0517 -0.2169
 1326loPI    C221202   0.779   6.845   4.508  0.0633 -0.1936  0.0957
 1326loPI    C321203   0.499   6.845   4.222  0.3058 -0.0556 -0.1456
 1326loPI   PO421204   0.308   6.759   4.778  0.0243 -0.1477 -0.1646
 1326loPI   GL121205   0.470   6.551   5.091  0.1756  0.2457  0.0406
 1326loPI   GL221206   0.785   6.765   5.041 -0.0309  0.4860  0.0728
 1326loPI   C1A21207   0.390   6.728   5.475  0.2221 -0.2438  0.1446
 1326loPI   C2A21208   0.412   6.773   5.863  0.0898  0.1994 -0.2993
 1326loPI   C3A21209   0.424   6.769   6.366 -0.2014 -0.0387  0.2288
 1326loPI   C4A21210   0.490   6.795   6.719  0.2816 -0.0689  0.0769
 1326loPI   C5A21211   0.507   7.003   7.085 -0.5179  0.1334  0.0126
 1326loPI   C6A21212   0.377   7.186   7.471  0.2705 -0.0410  0.0757
 1326loPI   C1B21213   0.814   7.054   5.308 -0.0375 -0.4770  0.0436
 1326loPI   C2B21214   0.804   7.092   5.727  0.3207 -0.1326  0.1791
 1326loPI   C3B21215   0.778   7.129   6.169 -0.1243  0.0356  0.2234
 1326loPI   C4B21216   0.933   6.987   6.608  0.0529  0.2889  0.2286
 1327loPI    C121217   6.051  12.040   4.448  0.1991  0.0797 -0.0245
 1327loPI    C221218   6.407  11.981   4.276  0.1706  0.0862 -0.0857
 1327loPI    C321219   6.096  11.750   4.177  0.1590  0.0777 -0.0290
 1327loPI   PO421220   6.054  12.123   4.677  0.1187 -0.1650 -0.3143
 1327loPI   GL121221   6.129  12.637   4.955  0.0387 -0.2107  0.2597
 1327loPI   GL221222   6.387  12.487   4.948  0.1657 -0.2804 -0.6145
 1327loPI   C1A21223   6.021  12.668   5.344 -0.1947 -0.2689  0.0171
 1327loPI   C2A21224   5.843  12.660   5.663 -0.2869  0.1118  0.0678
 1327loPI   C3A21225   5.763  12.295   5.882 -0.3939 -0.2225  0.0803
 1327loPI   C4A21226   5.807  11.965   6.186  0.1468  0.0558 -0.3265
 1327loPI   C5A21227   5.582  12.043   6.674 -0.2643 -0.0513  0.1322
 1327loPI   C6A21228   5.671  12.068   7.153  0.0419 -0.0113  0.3155
 1327loPI   C1B21229   6.601  12.791   5.094  0.1567  0.0369 -0.2559
 1327loPI   C2B21230   6.825  12.951   5.395 -0.2366  0.0411 -0.0150
 1327loPI   C3B21231   6.875  13.310   5.711 -0.0454  0.0535 -0.2194
 1327loPI   C4B21232   6.864  13.433   6.111  0.1023  0.2269  0.0758
 1328loPI    C121233  18.415   4.021   4.479  0.0864  0.0180  0.1056
 1328loPI    C221234  18.095   3.807   4.368 -0.0388  0.2366  0.0385
 1328loPI    C321235  18.458   3.712   4.229 -0.0834  0.0296  0.0609
 1328loPI   PO421236  18.550   3.982   4.784 -0.3260  0.1199  0.1465
 1328loPI   GL121237  18.555   4.174   5.130  0.0548 -0.0662 -0.2551
 1328loPI   GL221238  18.880   4.132   5.410  0.3034  0.5401 -0.1474
 1328loPI   C1A21239  18.475   4.321   5.624  0.0792  0.0938  0.2622
 1328loPI   C2A21240  18.426   4.341   6.024 -0.0754  0.0196  0.1392
 1328loPI   C3A21241  18.431   4.377   6.461  0.1694  0.2459 -0.0377
 1328loPI   C4A21242  18.319   4.280   6.900 -0.2062  0.0414 -0.1251
 1328loPI   C5A21243  18.368   4.492   7.265  0.0956 -0.0704 -0.1049
 1328loPI   C6A21244  18.183   4.406   7.648  0.3092 -0.2170  0.2545
 1328loPI   C1B21245  18.807   3.956   5.803  0.0853 -0.1769 -0.1393
 1328loPI   C2B21246  18.780   4.077   6.262 -0.0515  0.0337  0.2271
 1328loPI   C3B21247  18.810   4.223   6.740 -0.0558 -0.2074 -0.0386
 1328loPI   C4B21248  18.843   4.294   7.114 -0.0653 -0.1126  0.0431
 1329loPI    C121249  19.024  13.823   4.477 -0.3066  0.1614 -0.0698
 1329loPI    C221250  19.058  13.928   4.092 -0.0222 -0.1374 -0.1311
 1329loPI    C321251  19.379  13.934   4.331 -0.1778 -0.0451  0.0797
 1329loPI   PO421252  18.794  13.826   4.551  0.0823  0.0430 -0.1101
 1329loPI   GL121253  18.733  13.718   4.918  0.0452 -0.0073  0.2536
 1329loPI   GL221254  18.447  13.511   5.000  0.0849  0.0077  0.1209
 1329loPI   C1A21255  18.786  13.749   5.352  0.1702  0.0668  0.6334
 1329loPI   C2A21256  18.825  13.767   5.852  0.0585  0.0205  0.1915
 1329loPI   C3A21257  19.065  13.707   6.253  0.1264  0.3032  0.0277
 1329loPI   C4A21258  19.435  13.807   6.548  0.0603 -0.0168 -0.0154
 1329loPI   C5A21259  19.761  13.975   6.840  0.0541 -0.0966  0.0387
 1329loPI   C6A21260  20.155  14.045   6.781  0.2263 -0.0571 -0.2118
 1329loPI   C1B21261  18.432  13.368   5.392 -0.0150  0.0871  0.0858
 1329loPI   C2B21262  18.569  13.341   5.832 -0.3359 -0.4036  0.1705
 1329loPI   C3B21263  18.645  13.288   6.330 -0.0642 -0.0006  0.3133
 1329loPI   C4B21264  18.505  13.220   6.797  0.0869  0.2915 -0.1082
 1330loPI    C121265   6.249  15.333   4.611 -0.0092  0.2722 -0.1299
 1330loPI    C221266   5.947  15.527   4.436 -0.1528  0.0770 -0.1018
 1330loPI    C321267   5.993  15.134   4.377  0.2221  0.1433 -0.2773
 1330loPI   PO421268   6.268  15.345   4.898 -0.1685  0.0259  0.0709
 1330loPI   GL121269   6.459  15.516   5.167  0.3063 -0.2794 -0.0342
 1330loPI   GL221270   6.054  15.554   5.382 -0.2155 -0.1055  0.1974
 1330loPI   C1A21271   6.629  15.557   5.535 -0.1313 -0.0225 -0.0381
 1330loPI   C2A21272   6.807  15.422   5.919  0.0421  0.1129 -0.0141
 1330loPI   C3A21273   7.125  15.286   6.318  0.0680  0.1213  0.4762
 1330loPI   C4A21274   7.017  15.431   6.791  0.1328  0.1610  0.1042
 1330loPI   C5A21275   6.671  15.290   7.143 -0.1688 -0.0810  0.3116
 1330loPI   C6A21276   6.447  15.342   7.475 -0.0913  0.0384 -0.0415
 1330loPI   C1B21277   6.016  15.321   5.697 -0.2399  0.0184 -0.0293
 1330loPI   C2B21278   6.311  15.326   5.941 -0.0293  0.2341  0.0869
 1330loPI   C3B21279   6.549  15.290   6.307  0.0027  0.1891 -0.0587
 1330loPI   C4B21280   6.551  15.101   6.722  0.2781 -0.0061  0.0810
 1331loPI    C121281  12.689  10.858   4.626 -0.0421 -0.2684  0.0107
 1331loPI    C221282  12.927  10.565   4.758  0.1335 -0.1619 -0.0677
 1331loPI    C321283  12.801  10.564   4.378  0.3654  0.0127 -0.1474
 1331loPI   PO421284  12.506  10.969   4.830  0.3945  0.1450 -0.0184
 1331loPI   GL121285  12.425  11.155   5.238  0.1312  0.1780  0.4658
 1331loPI   GL221286  12.059  11.126   5.237  0.1340 -0.0915  0.0328
 1331loPI   C1A21287  12.736  10.968   5.409 -0.0550 -0.0910  0.0331
 1331loPI   C2A21288  12.922  10.719   5.807  0.2811 -0.2322 -0.1493
 1331loPI   C3A21289  12.604  10.448   6.205 -0.3059  0.0446  0.0931
 1331loPI   C4A21290  12.581  10.321   6.634  0.0952 -0.3640  0.0730
 1331loPI   C5A21291  12.652   9.979   6.987 -0.1755 -0.1270 -0.1157
 1331loPI   C6A21292  12.559   9.744   7.370 -0.0073 -0.1099  0.0584
 1331loPI   C1B21293  12.150  11.340   5.594  0.2292  0.0721 -0.3776
 1331loPI   C2B21294  12.195  11.282   6.042  0.0213 -0.0365  0.1541
 1331loPI   C3B21295  11.837  11.307   6.258 -0.0251 -0.1250 -0.2204
 1331loPI   C4B21296  11.444  11.451   6.104 -0.0244  0.3120  0.2083
 1332loPI    C121297   9.469   1.781   4.630 -0.0054 -0.0262 -0.0169
 1332loPI    C221298   9.531   1.539   4.317 -0.2055  0.3573 -0.3622
 1332loPI    C321299   9.742   1.877   4.355  0.0047  0.1860  0.0655
 1332loPI   PO421300   9.352   1.617   4.874  0.0072  0.4443  0.3605
 1332loPI   GL121301   9.266   1.587   5.317  0.0719  0.1407 -0.1690
 1332loPI   GL221302   9.186   1.927   5.533 -0.0372  0.1190  0.1561
 1332loPI   C1A21303   9.478   1.579   5.662  0.0608 -0.3432 -0.2472
 1332loPI   C2A21304   9.740   1.290   5.912  0.0562  0.1194 -0.2041
 1332loPI   C3A21305  10.002   1.290   6.260 -0.0646  0.0899 -0.0904
 1332loPI   C4A21306  10.198   1.226   6.631 -0.0546 -0.0203 -0.0477
 1332loPI   C5A21307  10.165   1.502   7.038 -0.0136 -0.2286 -0.2327
 1332loPI   C6A21308  10.162   1.778   7.396  0.0544  0.0359  0.0837
 1332loPI   C1B21309   9.575   2.083   5.755 -0.1306 -0.1376 -0.2498
 1332loPI   C2B21310   9.954   2.178   5.958  0.0229  0.2837 -0.0225
 1332loPI   C3B21311   9.941   2.237   6.308  0.0427 -0.2636  0.1920
 1332loPI   C4B21312  10.185   2.255   6.644 -0.1953 -0.0414  0.1447
 1333loPI    C121313   4.254  16.355   4.402  0.1052 -0.0539 -0.1842
 1333loPI    C221314   4.030  16.672   4.304  0.0628 -0.0468 -0.0667
 1333loPI    C321315   4.072  16.369   4.046  0.2207  0.1176 -0.2381
 1333loPI   PO421316   4.184  16.318   4.681 -0.1956 -0.1655  0.0763
 1333loPI   GL121317   4.076  16.498   5.180 -0.2171 -0.0527 -0.2324
 1333loPI   GL221318   3.705  16.445   5.288 -0.0396  0.0072 -0.2522
 1333loPI   C1A21319   4.077  16.572   5.630  0.2316 -0.2439 -0.0590
 1333loPI   C2A21320   4.137  16.774   6.079 -0.0584  0.2684 -0.0423
 1333loPI   C3A21321   4.277  16.772   6.518  0.0431 -0.0586  0.0579
 1333loPI   C4A21322   4.582  16.760   6.932 -0.0377  0.0584 -0.0771
 1333loPI   C5A21323   5.013  16.718   7.151  0.0359 -0.0943  0.1084
 1333loPI   C6A21324   5.519  16.866   7.324  0.1045  0.1134 -0.0177
 1333loPI   C1B21325   3.841  16.173   5.653 -0.1308  0.0893 -0.2108
 1333loPI   C2B21326   4.233  16.192   5.943 -0.1002 -0.0218  0.2125
 1333loPI   C3B21327   4.216  16.330   6.338 -0.1691  0.0861  0.0449
 1333loPI   C4B21328   4.003  16.413   6.804 -0.0658  0.1081 -0.1482
 1334loPI    C121329  19.219   1.761   4.626  0.1835  0.0715 -0.1950
 1334loPI    C221330  19.319   1.692   4.245 -0.0826  0.0712 -0.2666
 1334loPI    C321331  19.003   1.921   4.330  0.0220  0.1355 -0.0440
 1334loPI   PO421332  19.427   1.684   4.785 -0.0244  0.1484  0.2542
 1334loPI   GL121333  19.455   1.574   5.102  0.0256  0.0249 -0.2072
 1334loPI   GL221334  19.455   1.240   5.208 -0.1583  0.2120  0.2004
 1334loPI   C1A21335  19.668   1.753   5.463  0.1303 -0.2003  0.1008
 1334loPI   C2A21336  19.913   1.666   5.853  0.0455  0.0595  0.1124
 1334loPI   C3A21337  20.021   1.679   6.232 -0.0981 -0.4463  0.0821
 1334loPI   C4A21338  20.094   1.705   6.634  0.0053  0.2650 -0.4490
 1334loPI   C5A21339  20.227   1.669   7.015 -0.2070  0.0344 -0.1002
 1334loPI   C6A21340  20.131   1.354   7.375  0.1533 -0.2068  0.3192
 1334loPI   C1B21341  19.683   1.239   5.706 -0.2408  0.1760  0.3213
 1334loPI   C2B21342  19.749   1.234   6.134  0.0724  0.2225 -0.1793
 1334loPI   C3B21343  19.787   1.185   6.508  0.3328 -0.0203 -0.1608
 1334loPI   C4B21344  19.884   1.292   6.858  0.1426 -0.0040 -0.0325
 1335loPI    C121345  18.218  13.865   4.460 -0.1602  0.0366  0.0439
 1335loPI    C221346  18.391  14.069   4.758 -0.1117  0.0439  0.0109
 1335loPI    C321347  18.435  14.191   4.379 -0.1485  0.0174 -0.0022
 1335loPI   PO421348  18.016  13.800   4.574 -0.5379  0.3946 -0.1589
 1335loPI   GL121349  18.013  13.777   4.968  0.2329  0.2566  0.1557
 1335loPI   GL221350  17.847  13.714   5.105 -0.2058 -0.0086 -0.0668
 1335loPI   C1A21351  18.277  13.953   5.234  0.3355  0.2151  0.0876
 1335loPI   C2A21352  18.350  13.823   5.726 -0.3523  0.1704 -0.2268
 1335loPI   C3A21353  18.243  13.649   6.133 -0.0093 -0.0786 -0.0993
 1335loPI   C4A21354  18.087  13.459   6.546 -0.0283  0.1316  0.1669
 1335loPI   C5A21355  18.031  13.437   7.075  0.3403 -0.0728 -0.0433
 1335loPI   C6A21356  17.950  13.347   7.562 -0.0766 -0.0374 -0.0416
 1335loPI   C1B21357  17.949  13.561   5.596 -0.0971 -0.3059  0.1466
 1335loPI   C2B21358  17.748  13.536   6.102  0.2152 -0.2476  0.0936
 1335loPI   C3B21359  17.606  13.231   6.487  0.0861  0.0385  0.2158
 1335loPI   C4B21360  17.572  13.431   6.871 -0.1753  0.2549 -0.1798
 1336loPI    C121361  12.541  19.230   5.069  0.0484  0.2482 -0.0730
 1336loPI    C221362  12.868  19.430   4.957  0.0473  0.1930 -0.1756
 1336loPI    C321363  12.582  19.348   4.690  0.0582  0.0347 -0.1399
 1336loPI   PO421364  12.716  18.980   5.264  0.3063 -0.0423 -0.4303
 1336loPI   GL121365  12.962  18.860   5.619  0.1151 -0.0160  0.0312
 1336loPI   GL221366  12.626  19.067   5.770 -0.2894  0.1231 -0.2729
 1336loPI   C1A21367  13.212  18.808   5.960  0.3792 -0.0652 -0.1675
 1336loPI   C2A21368  13.517  18.819   6.301 -0.0650 -0.1632 -0.2224
 1336loPI   C3A21369  13.703  18.884   6.634  0.0716 -0.2441  0.0082
 1336loPI   C4A21370  13.640  18.542   6.903 -0.1363 -0.2131  0.0186
 1336loPI   C5A21371  13.491  18.437   7.298 -0.0034 -0.1045  0.2018
 1336loPI   C6A21372  13.244  18.127   7.514 -0.1912 -0.0060 -0.3336
 1336loPI   C1B21373  12.768  19.009   6.186  0.0877  0.0755  0.0827
 1336loPI   C2B21374  13.086  19.158   6.484 -0.1525  0.0944  0.0817
 1336loPI   C3B21375  13.392  19.213   6.844  0.0437  0.2113 -0.1167
 1336loPI   C4B21376  13.777  19.016   7.072  0.3523 -0.0201  0.1674
 1337loPI    C121377   0.088   8.516   3.976  0.3487 -0.0038 -0.0303
 1337loPI    C221378  -0.195   8.608   3.708  0.3724  0.2856  0.0408
 1337loPI    C321379   0.128   8.402   3.594  0.1315 -0.0581 -0.0382
 1337loPI   PO421380   0.030   8.431   4.207  0.1975 -0.0773  0.2005
 1337loPI   GL121381   0.072   8.493   4.594  0.1171  0.2485  0.0518
 1337loPI   GL221382   0.216   8.232   4.719 -0.1839 -0.1936 -0.3956
 1337loPI   C1A21383  -0.088   8.743   4.854  0.1297 -0.1040 -0.0817
 1337loPI   C2A21384  -0.036   8.844   5.284 -0.2241  0.0646  0.1905
 1337loPI   C3A21385   0.003   8.748   5.658 -0.0849  0.1407 -0.0657
 1337loPI   C4A21386  -0.002   8.808   6.181  0.3489  0.1000  0.1234
 1337loPI   C5A21387   0.006   8.816   6.647 -0.4053 -0.1183  0.6022
 1337loPI   C6A21388  -0.093   8.628   6.965  0.0055 -0.0283 -0.0117
 1337loPI   C1B21389   0.223   8.372   5.139 -0.0347  0.0279  0.2437
 1337loPI   C2B21390   0.126   8.228   5.531  0.2312  0.0707 -0.1023
 1337loPI   C3B21391   0.083   8.216   5.925  0.2733  0.0393 -0.2653
 1337loPI   C4B21392   0.117   8.199   6.390  0.0856 -0.2656  0.0354
 1338loPI    C121393  11.660   9.364   4.835  0.1254  0.0661 -0.2134
 1338loPI    C221394  11.934   9.317   5.122 -0.0326 -0.1081 -0.0891
 1338loPI    C321395  12.049   9.374   4.743  0.1756 -0.0458 -0.0176
 1338loPI   PO421396  11.464   9.199   4.937 -0.0491 -0.1871 -0.0021
 1338loPI   GL121397  11.569   9.068   5.387 -0.0127  0.2999  0.4206
 1338loPI   GL221398  11.202   9.167   5.419 -0.1397 -0.2779 -0.1346
 1338loPI   C1A21399  11.878   9.059   5.682 -0.2129  0.2471  0.0293
 1338loPI   C2A21400  12.102   9.024   6.077 -0.2699 -0.2715  0.2195
 1338loPI   C3A21401  12.529   8.882   6.203  0.4705  0.2924 -0.0108
 1338loPI   C4A21402  12.625   8.640   6.580  0.0409  0.0553 -0.1032
 1338loPI   C5A21403  12.901   8.586   6.970  0.2084  0.1152 -0.0536
 1338loPI   C6A21404  13.083   8.340   7.351 -0.2256  0.0417 -0.3288
 1338loPI   C1B21405  11.315   8.976   5.803  0.1890  0.4161  0.3373
 1338loPI   C2B21406  11.118   8.912   6.196 -0.1328  0.1336 -0.2466
 1338loPI   C3B21407  11.086   8.843   6.588 -0.3376 -0.1195  0.0539
 1338loPI   C4B21408  11.301   8.628   7.091 -0.1065 -0.1857 -0.3015
 1339loPI    C121409   5.456  11.165   4.600  0.0945  0.0187 -0.2793
 1339loPI    C221410   5.360  11.421   4.307 -0.1007 -0.2182 -0.4263
 1339loPI    C321411   5.176  11.066   4.331 -0.0261 -0.2361 -0.0646
 1339loPI   PO421412   5.510  11.351   4.789  0.1381  0.3107 -0.0263
 1339loPI   GL121413   5.719  11.471   5.106 -0.1386 -0.3301  0.1516
 1339loPI   GL221414   5.917  11.192   5.180  0.0281 -0.4070 -0.1850
 1339loPI   C1A21415   5.432  11.382   5.461 -0.1217  0.1843  0.0147
 1339loPI   C2A21416   5.404  11.205   5.993  0.1834  0.0719 -0.0022
 1339loPI   C3A21417   5.485  11.118   6.490  0.0922  0.1047  0.1139
 1339loPI   C4A21418   5.746  11.061   6.888 -0.0753 -0.2481  0.0287
 1339loPI   C5A21419   6.132  11.092   7.161  0.0662  0.2037  0.0498
 1339loPI   C6A21420   6.593  10.896   6.959  0.2085 -0.3172 -0.0296
 1339loPI   C1B21421   6.068  11.215   5.594 -0.0001 -0.1202 -0.1779
 1339loPI   C2B21422   6.437  11.060   5.728  0.0216 -0.0472 -0.1530
 1339loPI   C3B21423   6.781  10.746   5.734  0.0741 -0.1569  0.2511
 1339loPI   C4B21424   7.198  10.751   5.710  0.0343  0.1042 -0.1990
 1340loPI    C121425  14.241  10.944   4.548 -0.0620  0.0960  0.0051
 1340loPI    C221426  14.461  11.095   4.846 -0.0266 -0.1601  0.1115
 1340loPI    C321427  14.062  11.130   4.853 -0.0010  0.2042 -0.0247
 1340loPI   PO421428  14.411  10.749   4.515 -0.2812 -0.1101  0.1191
 1340loPI   GL121429  14.542  10.560   4.915 -0.1392 -0.1682 -0.0229
 1340loPI   GL221430  14.693  10.350   4.828 -0.2453  0.1236 -0.2802
 1340loPI   C1A21431  14.535  10.813   5.264 -0.0695  0.1210 -0.2178
 1340loPI   C2A21432  14.704  10.783   5.721 -0.3779 -0.0619  0.0178
 1340loPI   C3A21433  14.910  10.772   6.176  0.0194 -0.1123  0.0413
 1340loPI   C4A21434  14.657  10.664   6.548  0.1808  0.0469 -0.1225
 1340loPI   C5A21435  14.598  10.798   6.951 -0.0420  0.2695  0.2467
 1340loPI   C6A21436  14.445  10.971   7.314 -0.0931 -0.1272  0.0504
 1340loPI   C1B21437  14.948  10.326   5.149 -0.2584 -0.0642  0.1336
 1340loPI   C2B21438  15.356  10.393   5.389  0.3233  0.0149  0.0327
 1340loPI   C3B21439  15.445  10.217   5.720  0.2601 -0.4211 -0.2339
 1340loPI   C4B21440  15.541  10.047   6.121  0.1650 -0.0626 -0.0528
 1341loPI    C121441   1.302  19.146   4.743 -0.0069  0.2161 -0.1499
 1341loPI    C221442   1.425  18.835   4.523 -0.0139  0.1829 -0.1068
 1341loPI    C321443   1.693  19.084   4.684  0.0231 -0.1598  0.3800
 1341loPI   PO421444   1.165  19.085   4.961  0.0684 -0.4588  0.4768
 1341loPI   GL121445   1.304  19.024   5.401 -0.1008 -0.0981  0.0189
 1341loPI   GL221446   1.000  19.100   5.481  0.1354  0.0614  0.0430
 1341loPI   C1A21447   1.350  18.999   5.810  0.1285  0.0561 -0.0517
 1341loPI   C2A21448   1.349  18.940   6.248  0.3198 -0.2453  0.1898
 1341loPI   C3A21449   1.143  18.912   6.583  0.2229  0.1240 -0.1448
 1341loPI   C4A21450   1.074  19.131   6.951  0.0448  0.0878  0.1955
 1341loPI   C5A21451   0.786  19.285   7.236  0.1147 -0.0133 -0.1246
 1341loPI   C6A21452   0.533  19.560   7.492  0.1247 -0.0353 -0.2259
 1341loPI   C1B21453   0.903  19.176   5.888  0.0639  0.0771  0.4841
 1341loPI   C2B21454   0.780  19.064   6.254  0.2388 -0.1287 -0.0059
 1341loPI   C3B21455   0.781  19.403   6.690  0.0050  0.2538  0.1497
 1341loPI   C4B21456   0.421  19.731   6.581 -0.1882 -0.0332 -0.1726
 1342loPI    C121457   1.746  16.199   4.696  0.2084  0.0575  0.0520
 1342loPI    C221458   1.739  16.528   4.469  0.1503  0.0833  0.0913
 1342loPI    C321459   1.419  16.289   4.484  0.2319 -0.0339 -0.0238
 1342loPI   PO421460   1.817  16.235   4.984  0.0564  0.3075 -0.1707
 1342loPI   GL121461   2.128  16.219   5.231 -0.0378  0.2201 -0.0539
 1342loPI   GL221462   2.435  16.357   5.277  0.3870 -0.0663  0.2136
 1342loPI   C1A21463   2.032  16.042   5.590  0.2835 -0.1671  0.0088
 1342loPI   C2A21464   2.095  16.174   6.032 -0.1023 -0.2985 -0.0087
 1342loPI   C3A21465   2.079  16.451   6.372 -0.2033  0.1816 -0.0847
 1342loPI   C4A21466   2.301  16.487   6.764  0.0499 -0.1050  0.2065
 1342loPI   C5A21467   2.651  16.212   6.873  0.1893  0.1435  0.0195
 1342loPI   C6A21468   2.872  16.032   7.276  0.1981 -0.1705 -0.1253
 1342loPI   C1B21469   2.529  16.357   5.778  0.0170 -0.1749  0.1286
 1342loPI   C2B21470   2.546  16.468   6.212 -0.3762  0.0520 -0.1474
 1342loPI   C3B21471   2.786  16.718   6.382  0.1233  0.1187  0.1327
 1342loPI   C4B21472   2.886  16.679   6.878 -0.1621 -0.1877  0.0889
 1343loPI    C121473   4.901   6.338   4.907  0.0426  0.0378  0.1475
 1343loPI    C221474   4.757   6.150   5.230 -0.1922 -0.1535 -0.0636
 1343loPI    C321475   4.509   6.352   4.990  0.0290  0.2661  0.0508
 1343loPI   PO421476   5.022   6.494   4.999  0.0515 -0.0366 -0.3273
 1343loPI   GL121477   5.370   6.597   5.244 -0.0828  0.0742 -0.0670
 1343loPI   GL221478   5.396   6.276   5.342  0.4659 -0.0934 -0.0475
 1343loPI   C1A21479   5.212   6.861   5.594 -0.0757 -0.1017 -0.2399
 1343loPI   C2A21480   5.393   6.867   6.035 -0.0059 -0.0432 -0.1700
 1343loPI   C3A21481   5.657   6.719   6.348 -0.1653 -0.3678  0.1322
 1343loPI   C4A21482   5.862   6.821   6.825  0.0471 -0.2241  0.3764
 1343loPI   C5A21483   5.871   7.168   7.241  0.0519  0.0113  0.1724
 1343loPI   C6A21484   6.071   7.258   7.576  0.0208  0.0738 -0.2011
 1343loPI   C1B21485   5.375   6.373   5.904  0.0674 -0.1858 -0.1633
 1343loPI   C2B21486   5.470   6.304   6.248  0.1075  0.0944  0.0795
 1343loPI   C3B21487   5.453   6.344   6.661 -0.3027 -0.1971 -0.0253
 1343loPI   C4B21488   5.785   6.199   6.862  0.2637  0.0791 -0.4196
 1344loPI    C121489   0.396   2.551   4.672  0.0177 -0.1198  0.1134
 1344loPI    C221490   0.184   2.878   4.761 -0.0280 -0.1113 -0.0249
 1344loPI    C321491   0.168   2.724   4.393  0.0042 -0.2614  0.0359
 1344loPI   PO421492   0.431   2.466   4.924 -0.1866  0.3987 -0.0369
 1344loPI   GL121493   0.712   2.219   5.090  0.2091 -0.0790 -0.1122
 1344loPI   GL221494   0.960   2.404   5.243 -0.1393 -0.0554  0.0468
 1344loPI   C1A21495   0.673   2.017   5.501  0.2436  0.1220  0.1434
 1344loPI   C2A21496   0.754   2.068   5.897 -0.1118 -0.1973  0.3801
 1344loPI   C3A21497   0.907   2.136   6.311 -0.2829  0.2939  0.3029
 1344loPI   C4A21498   0.890   2.174   6.726 -0.2527 -0.2224  0.1654
 1344loPI   C5A21499   1.078   2.415   7.020  0.1294  0.1578 -0.0229
 1344loPI   C6A21500   1.160   2.764   7.352 -0.0517 -0.2528  0.1180
 1344loPI   C1B21501   1.083   2.792   5.529 -0.5189 -0.2513  0.0685
 1344loPI   C2B21502   0.966   2.964   5.903  0.1981 -0.0945  0.2435
 1344loPI   C3B21503   0.907   3.074   6.416  0.0478  0.2697  0.3019
 1344loPI   C4B21504   0.761   3.456   6.675  0.1393 -0.2237 -0.0967
 1345loPI    C121505   7.194   7.322   4.460  0.2458 -0.0218 -0.0062
 1345loPI    C221506   7.147   7.714   4.398  0.0849 -0.0233  0.1004
 1345loPI    C321507   7.330   7.489   4.123  0.0943  0.1097 -0.0033
 1345loPI   PO421508   7.051   7.312   4.745 -0.0080 -0.0149  0.2476
 1345loPI   GL121509   6.805   7.199   5.165  0.1040  0.0158  0.2260
 1345loPI   GL221510   7.108   7.167   5.188 -0.0123 -0.1810 -0.0519
 1345loPI   C1A21511   6.459   7.270   5.464  0.1807  0.1073 -0.2087
 1345loPI   C2A21512   6.051   7.262   5.552  0.2749 -0.1789 -0.0861
 1345loPI   C3A21513   5.822   7.170   5.889  0.3039  0.1801 -0.0569
 1345loPI   C4A21514   5.774   7.245   6.278  0.1877  0.2400  0.0848
 1345loPI   C5A21515   5.946   7.263   6.642  0.1375 -0.2550  0.1985
 1345loPI   C6A21516   6.106   7.462   6.922  0.4405  0.1414 -0.0173
 1345loPI   C1B21517   7.130   6.824   5.463 -0.0480 -0.0922 -0.0128
 1345loPI   C2B21518   7.277   6.806   5.889  0.1155 -0.2020 -0.0872
 1345loPI   C3B21519   7.222   6.994   6.293  0.2188 -0.0790  0.0755
 1345loPI   C4B21520   7.191   7.289   6.621 -0.1071  0.0741 -0.0633
 1346loPI    C121521   6.826   8.406   4.355 -0.0822 -0.0820 -0.2310
 1346loPI    C221522   6.735   8.036   4.479  0.2102 -0.1321 -0.1575
 1346loPI    C321523   6.607   8.165   4.122 -0.0005 -0.2571 -0.1290
 1346loPI   PO421524   6.734   8.510   4.581  0.2806  0.0892  0.0789
 1346loPI   GL121525   6.913   8.623   5.013  0.0656  0.2013  0.4270
 1346loPI   GL221526   7.200   8.922   5.076 -0.0308  0.1567 -0.1141
 1346loPI   C1A21527   6.776   8.693   5.506  0.0932 -0.1855 -0.1153
 1346loPI   C2A21528   6.904   8.872   5.954 -0.0154  0.0116  0.1207
 1346loPI   C3A21529   6.875   8.901   6.306 -0.0942  0.2387 -0.1971
 1346loPI   C4A21530   6.948   8.877   6.760 -0.0068 -0.3248 -0.2247
 1346loPI   C5A21531   7.249   8.677   7.066 -0.0486 -0.3690 -0.0958
 1346loPI   C6A21532   7.652   8.528   7.108 -0.1297 -0.2205 -0.2113
 1346loPI   C1B21533   7.334   8.647   5.322  0.0679  0.0009  0.2180
 1346loPI   C2B21534   7.165   8.504   5.723 -0.4797  0.1242  0.1430
 1346loPI   C3B21535   7.228   8.476   6.106  0.5192  0.1843 -0.0654
 1346loPI   C4B21536   7.230   8.526   6.542 -0.0150 -0.3851 -0.0545
 1347loPI    C121537  12.304   4.707   4.974 -0.0111  0.0445  0.0350
 1347loPI    C221538  12.695   4.628   4.992 -0.0232 -0.0072  0.0743
 1347loPI    C321539  12.521   4.698   4.639 -0.0215 -0.2032  0.0335
 1347loPI   PO421540  12.236   4.833   5.105  0.2127  0.0858 -0.0096
 1347loPI   GL121541  12.390   4.788   5.468 -0.0587 -0.4512 -0.1043
 1347loPI   GL221542  12.167   4.556   5.548  0.1889  0.1899  0.1206
 1347loPI   C1A21543  12.324   5.164   5.699 -0.2639  0.1404 -0.0274
 1347loPI   C2A21544  12.351   5.361   6.081  0.1075 -0.0379  0.2712
 1347loPI   C3A21545  12.267   5.308   6.589  0.3068  0.1830 -0.2371
 1347loPI   C4A21546  12.276   5.225   6.959 -0.2195 -0.1269  0.0406
 1347loPI   C5A21547  12.371   5.180   7.368 -0.1492  0.2086  0.1924
 1347loPI   C6A21548  12.115   5.274   7.707  0.1433 -0.0938 -0.0955
 1347loPI   C1B21549  11.980   4.709   5.958  0.2147  0.1675  0.1215
 1347loPI   C2B21550  11.843   4.666   6.399  0.1196  0.1381 -0.0957
 1347loPI   C3B21551  11.858   4.505   6.865  0.2052 -0.1045  0.2354
 1347loPI   C4B21552  11.719   4.445   7.284 -0.1430 -0.3377  0.0091
 1348loPI    C121553   6.123  19.182   4.836 -0.0124  0.1883 -0.1330
 1348loPI    C221554   5.731  19.126   4.784 -0.0126  0.1507 -0.0911
 1348loPI    C321555   5.893  19.483   4.707 -0.0661  0.1851 -0.0456
 1348loPI   PO421556   6.117  19.061   5.073  0.0664  0.1530  0.3203
 1348loPI   GL121557   6.026  18.865   5.379  0.1058  0.3109 -0.2189
 1348loPI   GL221558   5.874  18.635   5.397 -0.0804 -0.0303  0.0878
 1348loPI   C1A21559   6.066  19.134   5.698 -0.1633  0.0602  0.0832
 1348loPI   C2A21560   6.409  19.334   6.085  0.0014 -0.0535 -0.2367
 1348loPI   C3A21561   6.577  19.701   6.385 -0.1643  0.0063 -0.0805
 1348loPI   C4A21562   6.516  19.716   6.868 -0.1094 -0.2652 -0.1245
 1348loPI   C5A21563   6.456  19.921   7.345 -0.2715 -0.0796  0.0125
 1348loPI   C6A21564   6.176  20.175   7.491  0.2694 -0.1552 -0.0648
 1348loPI   C1B21565   5.928  18.688   5.828  0.0322 -0.1710 -0.2586
 1348loPI   C2B21566   5.953  18.639   6.348 -0.0308 -0.1974  0.1363
 1348loPI   C3B21567   6.111  18.816   6.704 -0.1535  0.0887 -0.0207
 1348loPI   C4B21568   5.936  19.215   6.934  0.2063  0.2252 -0.1117
 1349loPI    C121569  10.727   2.851   4.895  0.1529 -0.0436  0.1542
 1349loPI    C221570  10.426   2.876   4.632 -0.0003 -0.3428  0.2953
 1349loPI    C321571  10.776   2.715   4.522  0.0381 -0.1904  0.1914
 1349loPI   PO421572  10.488   3.104   5.102 -0.0421 -0.1322  0.0313
 1349loPI   GL121573  10.499   3.122   5.488  0.2210 -0.0318 -0.2334
 1349loPI   GL221574  10.273   3.022   5.562  0.0310 -0.1445  0.1275
 1349loPI   C1A21575  10.773   3.329   5.679  0.1217  0.0594  0.2030
 1349loPI   C2A21576  10.785   3.502   6.157  0.0948 -0.0143 -0.0984
 1349loPI   C3A21577  10.679   3.713   6.559  0.0700  0.2053  0.0495
 1349loPI   C4A21578  10.669   3.574   6.954  0.1340 -0.2314  0.1248
 1349loPI   C5A21579  10.522   3.543   7.378 -0.1202 -0.1391  0.0480
 1349loPI   C6A21580  10.300   3.201   7.612  0.2498  0.0710 -0.0824
 1349loPI   C1B21581  10.472   2.911   5.991 -0.1187 -0.1388  0.5152
 1349loPI   C2B21582  10.855   2.986   6.249  0.0162 -0.2162 -0.2431
 1349loPI   C3B21583  11.000   2.835   6.590 -0.1089 -0.2590  0.3711
 1349loPI   C4B21584  11.226   2.949   7.009 -0.1127  0.2134  0.1737
 1350loPI    C121585  19.341   2.339   4.910  0.1553  0.1877  0.0690
 1350loPI    C221586  19.317   2.257   4.520  0.1082 -0.0663  0.1235
 1350loPI    C321587  19.122   2.571   4.670  0.1022  0.0148 -0.0516
 1350loPI   PO421588  19.381   2.150   5.031  0.2919 -0.1306 -0.0238
 1350loPI   GL121589  19.288   2.230   5.404 -0.1603 -0.0236 -0.2708
 1350loPI   GL221590  19.658   2.350   5.341  0.3004  0.1382  0.0338
 1350loPI   C1A21591  19.189   2.104   5.830 -0.0732 -0.0728 -0.4136
 1350loPI   C2A21592  19.207   2.248   6.250  0.3915  0.2659 -0.1819
 1350loPI   C3A21593  19.255   2.207   6.735  0.1417  0.0262  0.1387
 1350loPI   C4A21594  19.285   2.056   7.105 -0.0256  0.0416 -0.0674
 1350loPI   C5A21595  19.492   2.105   7.367  0.0402  0.0420 -0.1570
 1350loPI   C6A21596  19.431   2.125   7.774  0.1446 -0.0297 -0.3877
 1350loPI   C1B21597  19.684   2.180   5.696  0.1868 -0.1459 -0.3459
 1350loPI   C2B21598  19.659   2.049   6.227 -0.1118 -0.3876  0.0499
 1350loPI   C3B21599  19.794   2.143   6.616  0.1774 -0.0198 -0.2213
 1350loPI   C4B21600  19.858   2.071   7.034 -0.0315 -0.1349  0.0389
 1351loPI    C121601  17.136   1.187   4.807  0.0039  0.0518  0.1067
 1351loPI    C221602  16.756   1.261   4.909 -0.0048 -0.0634  0.1605
 1351loPI    C321603  16.842   0.953   4.668  0.0533 -0.0288  0.1366
 1351loPI   PO421604  17.309   1.074   5.024 -0.0308  0.2031 -0.0568
 1351loPI   GL121605  17.420   1.116   5.351 -0.0497 -0.0164 -0.1668
 1351loPI   GL221606  17.695   1.120   5.389 -0.2380 -0.0932 -0.0475
 1351loPI   C1A21607  17.131   1.296   5.577 -0.1868 -0.3176  0.1991
 1351loPI   C2A21608  17.227   1.529   5.843  0.2613 -0.0464 -0.1351
 1351loPI   C3A21609  17.372   1.631   6.087  0.0767  0.2084 -0.1187
 1351loPI   C4A21610  17.312   1.505   6.587  0.1661 -0.2674 -0.3522
 1351loPI   C5A21611  17.263   1.498   7.057 -0.6247 -0.1040 -0.2086
 1351loPI   C6A21612  17.065   1.386   7.459  0.1821  0.0037  0.1663
 1351loPI   C1B21613  17.666   1.218   5.836 -0.1573  0.0394 -0.3918
 1351loPI   C2B21614  17.759   1.245   6.258 -0.0826 -0.1911  0.0899
 1351loPI   C3B21615  17.922   1.453   6.617 -0.0945 -0.0108  0.1646
 1351loPI   C4B21616  17.797   1.433   7.050  0.1957 -0.2085  0.2983
 1352loPI    C121617   5.529  12.238   4.643  0.3021 -0.0188  0.0161
 1352loPI    C221618   5.426  11.853   4.621  0.0481  0.0463  0.0358
 1352loPI    C321619   5.508  12.018   4.976  0.0023  0.0494  0.0451
 1352loPI   PO421620   5.341  12.449   4.582 -0.2979  0.1291 -0.2903
 1352loPI   GL121621   5.075  12.470   4.916  0.4566  0.0107 -0.1645
 1352loPI   GL221622   5.062  12.263   5.139 -0.0338 -0.1000  0.0780
 1352loPI   C1A21623   5.173  12.747   5.332  0.1173  0.0384  0.4310
 1352loPI   C2A21624   5.296  12.734   5.648  0.1277 -0.1356 -0.0176
 1352loPI   C3A21625   5.385  12.757   6.117  0.1855 -0.1063 -0.0438
 1352loPI   C4A21626   5.148  12.679   6.455 -0.1134  0.1393  0.2683
 1352loPI   C5A21627   5.046  12.364   6.766  0.3611  0.0412 -0.2911
 1352loPI   C6A21628   5.169  12.194   7.208 -0.0671  0.2605  0.0762
 1352loPI   C1B21629   5.048  12.282   5.568 -0.1333 -0.0137 -0.3240
 1352loPI   C2B21630   5.266  12.282   5.970  0.0988  0.2920 -0.3297
 1352loPI   C3B21631   5.161  12.085   6.304  0.3015  0.2348  0.1430
 1352loPI   C4B21632   4.929  11.894   6.645  0.2427 -0.0090 -0.2203
 1353W        W21633  14.071  16.843   3.145 -0.0649 -0.0276 -0.1000
 1354W        W21634  15.102   1.320   2.024 -0.0561 -0.0961  0.1486
 1355W        W21635   1.473  14.662   4.472  0.1367 -0.4967  0.1430
 1356W        W21636   3.688  10.719   0.631 -0.0514 -0.0245 -0.1202
 1357W        W21637   5.506   8.304  13.557  0.3206  0.1171 -0.1097
 1358W        W21638  13.715   9.761  13.146 -0.1183  0.2140 -0.1443
 1359W        W21639  10.584   2.790   3.973 -0.1481 -0.0819 -0.1383
 1360W        W21640  17.791   6.821   2.279 -0.0426  0.1338  0.0945
 1361W        W21641  19.361   0.174  11.785 -0.2015  0.0185  0.2361
 1362W        W21642   9.867   1.196  10.365 -0.0117 -0.2183 -0.1212
 1363W        W21643  10.950   0.934   0.532 -0.2116 -0.2029 -0.2333
 1364W        W21644  15.125   5.498  11.652  0.1611  0.1044 -0.5047
 1365W        W21645  16.777   1.317   1.842  0.0812 -0.1512  0.2633
 1366W        W21646   2.259  15.819   9.595 -0.0599 -0.1015 -0.0723
 1367W        W21647  17.970  19.184   3.525 -0.1700 -0.2774 -0.1275
 1368W        W21648   0.028  11.467   3.311 -0.2995  0.3114 -0.0811
 1369W        W21649   3.154   9.462   3.476  0.1945 -0.2077 -0.0589
 1370W        W21650   9.813   4.094  12.630  0.5849  0.0077  0.0331
 1371W        W21651   2.544  18.704   2.189 -0.1431  0.3228  0.0779
 1372W        W21652   1.513   3.964   1.338 -0.0078  0.2738  0.2587
 1373W        W21653   8.676  19.016  13.378 -0.1106  0.1433 -0.0321
 1374W        W21654  16.810   9.342   0.676  0.4504 -0.2062 -0.3711
 1375W        W21655   3.235  10.384  14.270 -0.0089 -0.0838  0.1180
 1376W        W21656  13.814   6.867   0.304 -0.2834 -0.0063  0.0303
 1377W        W21657   3.300  12.184   1.678 -0.0130  0.2907 -0.1740
 1378W        W21658   6.463  14.383   0.575  0.2223  0.2958  0.0159
 1379W        W21659  11.242  10.537  12.971 -0.3704  0.3287 -0.4655
 1380W        W21660   0.833   2.708  10.339 -0.1044 -0.1540  0.1564
 1381W        W21661  14.156   7.485   1.933  0.3077 -0.4772 -0.2099
 1382W        W21662   0.272  15.604   3.348  0.1766 -0.1589 -0.0988
 1383W        W21663   6.700   4.960   1.659 -0.4486  0.4212  0.0939
 1384W        W21664   4.718   1.378   2.610  0.0267  0.0010 -0.0654
 1385W        W21665  13.170   7.177   1.712 -0.2042 -0.0532  0.2792
 1386W        W21666  11.412   2.098   2.483  0.0544  0.0756 -0.2955
 1387W        W21667  17.865  16.807  11.655  0.4898  0.2304  0.1530
 1388W        W21668  15.822   0.215   2.938  0.1735 -0.1268  0.3464
 1389W        W21669  16.626   4.026   3.369 -0.1016  0.1166  0.1015
 1390W        W21670   3.767   6.946  14.164  0.0389 -0.0671 -0.0276
 1391W        W21671  13.906   0.989   2.025  0.0463  0.0465 -0.1284
 1392W        W21672   1.197   1.054   4.290  0.0652 -0.0117  0.0790
 1393W        W21673  14.221  16.743   1.752  0.0811 -0.2451 -0.0518
 1394W        W21674  13.700   8.033   3.208  0.2896  0.2229  0.1002
 1395W        W21675  12.763  17.686   1.049 -0.1378 -0.1344  0.1341
 1396W        W21676  12.034  13.106  11.816  0.2255  0.0399  0.2705
 1397W        W21677   7.899  16.734   1.650 -0.2358  0.0081 -0.0691
 1398W        W21678  10.025   3.462   0.836 -0.0154  0.0935  0.1360
 1399W        W21679  17.634  11.643  13.522  0.0151  0.0336 -0.1541
 1400W        W21680   5.068  11.476  13.347  0.2553  0.1634 -0.4377
 1401W        W21681  14.409  18.578   2.487 -0.2713 -0.1225  0.1015
 1402W        W21682  16.452   7.586   0.929 -0.1406 -0.3211 -0.0580
 1403W        W21683  18.858   6.091  10.447  0.0041 -0.0070 -0.1268
 1404W        W21684  13.177  16.128  12.688 -0.2693  0.1320 -0.1066
 1405W        W21685  18.830   2.581  14.247  0.2386 -0.1028  0.5500
 1406W        W21686  13.829   8.219  13.982 -0.0119  0.2950 -0.2057
 1407W        W21687   8.988   2.075  13.076  0.0232 -0.0594 -0.1061
 1408W        W21688   3.654  18.643  10.936 -0.1676  0.1152  0.1246
 1409W        W21689   6.930  12.194   2.362 -0.2124 -0.1016  0.2518
 1410W        W21690  12.127  17.557  13.145  0.2826  0.2501 -0.2993
 1411W        W21691   3.720   8.299   4.123 -0.0758  0.3159  0.2266
 1412W        W21692  10.450  15.122  10.871  0.2480 -0.0422  0.1140
 1413W        W21693   2.167  17.852  11.324 -0.2828  0.1105 -0.2916
 1414W        W21694  12.447  10.978   0.371 -0.0497  0.0004 -0.1438
 1415W        W21695   8.851  10.498   3.408  0.3307  0.1369  0.0353
 1416W        W21696   7.136   5.997   2.879  0.1238 -0.1380 -0.3672
 1417W        W21697  19.206  17.665  12.059 -0.0316  0.2301  0.1997
 1418W        W21698  15.466   0.405  12.798 -0.1767  0.3956  0.1742
 1419W        W21699  11.933  14.700   3.361 -0.1230 -0.0236  0.0697
 1420W        W21700   3.452   6.996   0.488 -0.2813  0.0049 -0.1351
 1421W        W21701  12.408  19.279   3.914  0.0798 -0.3064 -0.0002
 1422W        W21702  14.999   8.771   0.734 -0.1499 -0.0709  0.0897
 1423W        W21703   9.669   1.536  11.743  0.2067  0.2333 -0.0403
 1424W        W21704  11.044   2.088   1.459  0.1450 -0.1174 -0.1037
 1425W        W21705  19.257  14.120   4.781  0.0320  0.1906 -0.0566
 1426W        W21706   2.398  16.720  14.286  0.3950  0.0270 -0.1091
 1427W        W21707  12.866   5.206   3.954  0.0382 -0.0675  0.0474
 1428W        W21708  15.133  14.547   3.812 -0.1626  0.1127  0.2013
 1429W        W21709   8.876   2.401   3.967 -0.2203 -0.0320  0.0763
 1430W        W21710  18.961  10.013   3.033 -0.0435  0.2461 -0.0405
 1431W        W21711   2.154  15.843   2.424 -0.0282 -0.1613 -0.0518
 1432W        W21712   6.532  14.060  12.418 -0.0049  0.1280  0.0851
 1433W        W21713  14.730   1.517  10.751  0.3459 -0.1045  0.2863
 1434W        W21714   1.482   0.337  12.757 -0.0591  0.1097  0.0393
 1435W        W21715  11.736   4.668  13.207  0.1536  0.0198  0.0569
 1436W        W21716  17.472  12.210   1.512 -0.0664 -0.0057 -0.1546
 1437W        W21717  11.748   2.889  13.348 -0.2552 -0.2364 -0.1179
 1438W        W21718  16.590   0.240  13.492 -0.0715  0.0457  0.1511
 1439W        W21719   8.211  19.021   3.862  0.0410 -0.0182 -0.0075
 1440W        W21720   6.422  14.842  11.284  0.0668  0.0571  0.1406
 1441W        W21721  12.480  16.038   0.234 -0.0171 -0.2431 -0.2554
 1442W        W21722  15.445  19.368   1.386  0.0770 -0.1271 -0.0552
 1443W        W21723  10.317   9.927   3.810  0.0668  0.0640 -0.0731
 1444W        W21724   3.931   4.593   3.427 -0.1278  0.0313 -0.1020
 1445W        W21725   4.574   5.609  13.844  0.4028  0.0786 -0.0124
 1446W        W21726   4.940   4.148   1.287  0.3721 -0.3724 -0.2296
 1447W        W21727  13.460  18.640   2.576  0.0727  0.1578  0.2980
 1448W        W21728  16.620  10.987   2.211 -0.5125  0.1234 -0.0331
 1449W        W21729  17.334  12.321   9.302  0.2946  0.1950 -0.2475
 1450W        W21730  18.151   1.813  13.878 -0.2782 -0.0705 -0.1819
 1451W        W21731   1.531   1.471   2.928 -0.1419 -0.0645 -0.0400
 1452W        W21732  16.586  15.291   1.328 -0.0942  0.1426  0.1890
 1453W        W21733   7.944  18.436  12.989 -0.0803 -0.2167 -0.0732
 1454W        W21734  12.686  14.718   1.024 -0.1221 -0.0488  0.4179
 1455W        W21735  14.094  15.833  12.560  0.0842 -0.0545  0.2287
 1456W        W21736   0.851  12.843  10.853  0.0850  0.0289  0.0630
 1457W        W21737   5.720  10.488  13.235 -0.1119  0.2539  0.0030
 1458W        W21738  16.871  12.537   0.722  0.1244 -0.0901  0.0280
 1459W        W21739  18.228   6.904  13.080  0.0942  0.0258 -0.1260
 1460W        W21740  14.896  10.609  13.858  0.1463  0.1374  0.2503
 1461W        W21741  14.594   3.429  13.733 -0.0559 -0.1987  0.1970
 1462W        W21742  12.700   3.222   3.744  0.0378  0.3587  0.0684
 1463W        W21743  16.093  13.151   2.139 -0.1257 -0.1585  0.0702
 1464W        W21744   6.292  16.760   0.995 -0.1012  0.0160 -0.0802
 1465W        W21745  10.221   3.413   2.594  0.0900 -0.0316 -0.1019
 1466W        W21746  16.616   0.368  10.707  0.1713  0.0104  0.0302
 1467W        W21747  11.385   6.890   2.564  0.1085  0.1488 -0.2319
 1468W        W21748  19.050   1.884   2.361  0.1623 -0.2438 -0.0357
 1469W        W21749   6.052   0.447  14.498 -0.0857  0.2614  0.0387
 1470W        W21750  17.410  13.881  10.620  0.1685  0.2934 -0.0409
 1471W        W21751   2.878  15.149  12.080  0.0210 -0.1656 -0.1583
 1472W        W21752   4.852  16.758  11.928 -0.0413 -0.2820 -0.1759
 1473W        W21753  13.323  14.467   5.213  0.3178 -0.0878 -0.0034
 1474W        W21754   0.866   0.638   0.413 -0.1275 -0.0827  0.2584
 1475W        W21755  13.303   0.565  12.597  0.2783 -0.0710 -0.1442
 1476W        W21756   0.114  14.832  10.079 -0.1287  0.0409  0.0200
 1477W        W21757  10.973  17.683   3.082  0.0246  0.0708 -0.0998
 1478W        W21758   7.152  11.004  12.988  0.2926  0.0859  0.0758
 1479W        W21759   4.471  15.781  11.697 -0.0967  0.2234 -0.1505
 1480W        W21760  16.942  13.591   0.742 -0.1031  0.4242 -0.2834
 1481W        W21761  10.455   0.945   5.307 -0.2230  0.1475 -0.3072
 1482W        W21762   3.998   2.070  12.682  0.0142 -0.0918  0.0024
 1483W        W21763   0.171   5.157   2.047  0.1515  0.0869  0.2069
 1484W        W21764   4.033  12.628   3.678 -0.0668  0.2040  0.1022
 1485W        W21765   5.725  11.716  11.206 -0.2463 -0.0132  0.0410
 1486W        W21766  15.761   6.849  12.238 -0.1869 -0.1595 -0.1647
 1487W        W21767   8.395  16.966  12.806 -0.3384 -0.0578  0.1672
 1488W        W21768   9.465  12.429   0.623 -0.0458 -0.0204  0.1195
 1489W        W21769  17.601   9.741   2.373  0.0097 -0.1633  0.0670
 1490W        W21770  17.651  17.840  13.782  0.1064 -0.1258  0.0487
 1491W        W21771  15.273   9.249   2.929 -0.2621  0.0323 -0.2040
 1492W        W21772   8.320  15.087  13.722  0.2374  0.0161  0.2306
 1493W        W21773  17.283  16.418   3.549  0.2074 -0.2572 -0.0545
 1494W        W21774  19.194   8.533  10.578  0.0097 -0.0748  0.1453
 1495W        W21775  17.501  19.281   2.290  0.0431 -0.3161  0.0551
 1496W        W21776  18.987   1.694  10.997  0.0230  0.0370 -0.2189
 1497W        W21777   4.241   1.825  13.368 -0.3484  0.4071 -0.0125
 1498W        W21778  15.562   1.134  14.317 -0.0786  0.1870  0.1894
 1499W        W21779   3.229   3.869  11.765 -0.4219 -0.0796  0.1355
 1500W        W21780   2.279  14.915   2.305  0.0781 -0.2258  0.1709
 1501W        W21781  16.103  17.161   0.357  0.1444 -0.3198  0.1431
 1502W        W21782  17.447   6.280  10.900  0.0408 -0.2175  0.0973
 1503W        W21783   1.810   1.234  13.554 -0.0746  0.0778 -0.1203
 1504W        W21784  15.989  11.761   4.583 -0.2112 -0.0626  0.1024
 1505W        W21785  10.483   4.187  12.780  0.2258  0.0813 -0.1505
 1506W        W21786   2.742  10.683  10.553 -0.0147 -0.7328 -0.1746
 1507W        W21787  17.364   2.113  13.256 -0.0387 -0.0876  0.0028
 1508W        W21788   5.625  18.440  11.111 -0.1342 -0.1148  0.1415
 1509W        W21789   2.371   2.118  11.138 -0.1779  0.0262 -0.0804
 1510W        W21790  19.031   5.569  13.935  0.2834  0.2360 -0.0772
 1511W        W21791  15.855  15.064   1.284  0.3262 -0.0508 -0.1633
 1512W        W21792   9.577  15.096  10.373  0.1128  0.0713  0.1687
 1513W        W21793  10.774  10.891   9.881  0.0805 -0.0489 -0.0555
 1514W        W21794   0.103   4.804  13.161 -0.1006 -0.0600 -0.0362
 1515W        W21795   5.506   5.819  13.020  0.2462 -0.1652 -0.2507
 1516W        W21796   3.269   5.806   3.732  0.1685 -0.0328 -0.0683
 1517W        W21797   9.880  15.760  14.296  0.1856  0.1897  0.4824
 1518W        W21798   0.966   6.299   0.663  0.1678 -0.2222 -0.0410
 1519W        W21799  11.100  11.820  12.094  0.0185  0.0893  0.1799
 1520W        W21800  12.161   9.186  14.449  0.0216  0.0688  0.0814
 1521W        W21801   7.672   3.836   2.674 -0.0479 -0.2356  0.1538
 1522W        W21802  11.385   1.726  12.843  0.0877  0.0138  0.1187
 1523W        W21803  14.767   7.555  13.959  0.2169  0.2762  0.3166
 1524W        W21804   2.498  10.631   3.279 -0.3312 -0.2236  0.3504
 1525W        W21805   3.614  15.919  13.367 -0.2685 -0.2400  0.1860
 1526W        W21806  17.745  11.705  10.902  0.1444 -0.0042 -0.0025
 1527W        W21807  13.072   8.309   0.103  0.0835 -0.3469  0.0936
 1528W        W21808  10.900  17.184   1.440  0.0463  0.4142  0.0785
 1529W        W21809   4.676   2.134   2.593 -0.2530  0.1004  0.0235
 1530W        W21810  13.416   3.053   0.107 -0.1207  0.2891 -0.0648
 1531W        W21811   2.438  12.998   1.890  0.1110 -0.2915 -0.0261
 1532W        W21812   3.079   9.111   1.377 -0.3559 -0.2766 -0.0884
 1533W        W21813   3.749   3.465  11.100 -0.0353  0.0585 -0.1138
 1534W        W21814   3.725   6.309  11.126  0.0092 -0.2373  0.1818
 1535W        W21815   2.850  13.343   1.465  0.0878  0.0391  0.0308
 1536W        W21816   2.719   1.076   3.263  0.1347 -0.1553  0.0538
 1537W        W21817   6.843   9.386  11.362  0.2901  0.0862  0.1683
 1538W        W21818  17.629  18.135  12.135 -0.0670 -0.0396 -0.0152
 1539W        W21819   4.830   8.840   3.772  0.0089 -0.2659  0.4303
 1540W        W21820  17.494   1.060  13.695 -0.0832 -0.2945  0.0082
 1541W        W21821  10.497  10.081  13.440 -0.1954  0.1841  0.0488
 1542W        W21822  11.381  11.847   1.117 -0.0801  0.4284 -0.1918
 1543W        W21823  18.260   7.532  13.015  0.1218  0.1272  0.1229
 1544W        W21824   8.729   1.707   3.344 -0.0223  0.1486  0.0985
 1545W        W21825   8.054   6.653  10.574 -0.3072 -0.0929  0.1384
 1546W        W21826   6.005  13.149   1.762  0.0300  0.1045 -0.0193
 1547W        W21827   1.881   6.065   2.666 -0.2182  0.1867  0.0597
 1548W        W21828  11.793   7.036   1.355  0.1628  0.4330 -0.3545
 1549W        W21829  17.162   1.766  11.904 -0.0200  0.5717  0.1059
 1550W        W21830  12.443  13.184  12.236  0.4698 -0.1937  0.0095
 1551W        W21831   2.009   0.725   3.903  0.0773  0.2058 -0.0236
 1552W        W21832   6.795  13.500  12.396 -0.2296  0.4683  0.0684
 1553W        W21833   7.919   1.092   1.619 -0.1555  0.0496 -0.1128
 1554W        W21834  14.584  18.649   3.392 -0.2140 -0.2107  0.0867
 1555W        W21835  17.004   3.192   5.367 -0.0648 -0.0664 -0.1420
 1556W        W21836   8.737  10.792  10.399 -0.2392 -0.0570  0.4668
 1557W        W21837   2.213   5.613  11.889 -0.1546 -0.1399  0.0249
 1558W        W21838  10.755  11.015  12.211  0.0004  0.3771 -0.3589
 1559W        W21839  18.625  14.267  12.586  0.1244 -0.3627  0.1499
 1560W        W21840  10.366  15.074   1.880 -0.0892  0.0946 -0.1041
 1561W        W21841  18.842  10.850   3.292 -0.0899  0.0201 -0.3024
 1562W        W21842   5.929  18.983   3.325  0.2432 -0.0188  0.0928
 1563W        W21843  15.773   9.494  12.182 -0.0633  0.4582  0.0086
 1564W        W21844  10.179  12.621   2.810 -0.1679 -0.1213  0.0734
 1565W        W21845   7.598   7.447  11.181 -0.1238  0.1286  0.0272
 1566W        W21846   5.247   2.557  13.742 -0.2269 -0.1888  0.0023
 1567W        W21847  15.219   0.501   2.310  0.2643 -0.0675 -0.0480
 1568W        W21848  13.805  12.334   0.114  0.0951 -0.1568  0.2190
 1569W        W21849  12.788   0.639  12.631 -0.1920  0.2009  0.1905
 1570W        W21850   8.376   6.238  13.314 -0.2126  0.0402 -0.3052
 1571W        W21851   7.188  11.982   0.692 -0.1948  0.3602  0.0500
 1572W        W21852   9.237  19.025   3.120 -0.2504  0.1848  0.3017
 1573W        W21853  18.213   1.304  10.204  0.0962  0.1067  0.0313
 1574W        W21854   6.043   3.319  10.837  0.1305  0.0494  0.0277
 1575W        W21855  13.609   5.422   1.071  0.0423  0.2619 -0.0570
 1576W        W21856  13.440  18.496   4.312 -0.0121  0.1563  0.0324
 1577W        W21857   7.356  16.538   3.024  0.1618  0.1945 -0.0829
 1578W        W21858  17.375   7.229  10.858  0.0450  0.0629  0.2216
 1579W        W21859  16.159   8.351   1.196 -0.1470  0.2257  0.2307
 1580W        W21860   4.032  11.824  12.728 -0.0954 -0.3098 -0.2595
 1581W        W21861   8.271  11.843   2.139  0.1733  0.2759 -0.0578
 1582W        W21862  17.697   5.473  12.089  0.0882  0.3030  0.1120
 1583W        W21863   5.766  19.221   0.297  0.0097 -0.3165  0.2734
 1584W        W21864  13.533  16.010   0.079  0.0732 -0.1340 -0.2851
 1585W        W21865   4.194  12.478   2.051  0.4272  0.0857  0.0493
 1586W        W21866  18.906   8.721   2.840  0.0847 -0.0393  0.0581
 1587W        W21867  17.938   0.931  14.404 -0.0414 -0.1117 -0.2395
 1588W        W21868  18.219  17.207   2.904 -0.1632 -0.0745  0.1055
 1589W        W21869   4.790   5.984  13.528  0.0236  0.2512 -0.4747
 1590W        W21870   2.636  16.534   2.720  0.1266 -0.0464 -0.2322
 1591W        W21871   5.966  15.872   3.934 -0.2666 -0.0377 -0.0535
 1592W        W21872   4.173  11.729   2.257 -0.0947  0.0941 -0.0079
 1593W        W21873   2.654  18.300   4.059  0.0885  0.2866 -0.0391
 1594W        W21874  13.920   2.828  11.569 -0.0446 -0.1711  0.1652
 1595W        W21875  15.472   8.986   0.758 -0.0846 -0.1137  0.0293
 1596W        W21876  17.163   9.939   2.608 -0.1087  0.1486  0.3225
 1597W        W21877   6.696  12.870  10.635 -0.1276 -0.1104  0.0688
 1598W        W21878   4.940   2.196  12.766 -0.1586 -0.2560 -0.0702
 1599W        W21879   2.665   6.107   3.063 -0.0326  0.0504  0.0138
 1600W        W21880  16.042  10.623   3.745  0.1781 -0.0462 -0.0248
 1601W        W21881  13.672   6.104  11.221 -0.0523  0.0617  0.1208
 1602W        W21882   1.384  10.275   1.432 -0.2080  0.2450  0.3094
 1603W        W21883   7.192   4.811   1.629 -0.1066  0.2154 -0.0014
 1604W        W21884  12.392  12.877   3.265  0.1144  0.1075 -0.0689
 1605W        W21885   8.522  18.374   3.489 -0.0502 -0.0751  0.1759
 1606W        W21886   2.870   4.293  11.890  0.1853  0.0641 -0.0423
 1607W        W21887   5.534  13.458  13.651  0.0298 -0.1087 -0.2884
 1608W        W21888   1.017   3.803   1.593 -0.1218  0.1788 -0.1261
 1609W        W21889   5.846  17.584   0.954  0.2153 -0.1947 -0.0742
 1610W        W21890  10.611   0.368  11.699 -0.1423 -0.2836 -0.0016
 1611W        W21891  17.310   4.493  12.862 -0.1330  0.0018  0.0265
 1612W        W21892   0.659  13.137  12.555 -0.0102 -0.0326 -0.1449
 1613W        W21893  18.079  18.200   3.268 -0.2751  0.0342 -0.1940
 1614W        W21894  14.996  15.850   0.399 -0.0078  0.1156 -0.4621
 1615W        W21895  12.559  14.006  11.606  0.2739 -0.2207  0.1893
 1616W        W21896   7.578   5.670  11.769  0.2800 -0.0292 -0.0481
 1617W        W21897  18.262  13.675  13.042  0.0049 -0.0113  0.1182
 1618W        W21898   4.063   4.086   0.258 -0.0259 -0.0925  0.3473
 1619W        W21899  12.375  18.106   2.627  0.2149  0.2022  0.0163
 1620W        W21900   6.519   3.771   3.897  0.1896 -0.2178 -0.1647
 1621W        W21901   6.868   0.395  13.102 -0.0005  0.2736 -0.1149
 1622W        W21902  14.686  16.092   9.989 -0.0341 -0.0956  0.0947
 1623W        W21903   5.670  10.678   3.143  0.1617 -0.1467 -0.0846
 1624W        W21904  16.498  16.547  11.416 -0.0865  0.1587  0.0558
 1625W        W21905  13.643  14.337  14.302  0.3241  0.2226  0.1289
 1626W        W21906  18.592  14.247  13.455  0.0230 -0.3870 -0.0028
 1627W        W21907  15.564   3.946  13.744 -0.2881 -0.1636 -0.0187
 1628W        W21908   9.439  17.090  12.925 -0.0162 -0.0849  0.0592
 1629W        W21909   7.916   3.933  13.873  0.2325 -0.2244 -0.2723
 1630W        W21910  11.191   5.373  13.789  0.0722  0.0600 -0.0472
 1631W        W21911  11.536  10.936  12.192 -0.1985 -0.1370  0.0326
 1632W        W21912   6.460  15.906  12.334  0.2546  0.0233  0.4052
 1633W        W21913   9.406  10.123  10.097  0.1908 -0.0837 -0.3696
 1634W        W21914   1.124   9.836   0.561  0.0489  0.0382 -0.0803
 1635W        W21915  13.399  19.068  10.997 -0.1707 -0.1506 -0.0126
 1636W        W21916  16.809   3.176  11.926 -0.2052 -0.2126  0.2676
 1637W        W21917  12.456  18.151  11.704  0.0341 -0.0604  0.0689
 1638W        W21918  12.609   0.888  11.721 -0.1528 -0.0205  0.1127
 1639W        W21919   4.563  15.000  13.328 -0.2015  0.3171 -0.0294
 1640W        W21920  16.115  18.360   4.058 -0.0844 -0.3633 -0.3265
 1641W        W21921   5.628   3.942   2.538 -0.1573 -0.1626 -0.0235
 1642W        W21922   2.664  12.675   0.575 -0.2009  0.2360  0.0562
 1643W        W21923  14.088   7.070  12.501 -0.1110  0.0356  0.0966
 1644W        W21924   5.431  11.114  11.304 -0.1571 -0.0855 -0.2083
 1645W        W21925  10.250  14.984  11.853  0.0337 -0.0981  0.1032
 1646W        W21926   7.840  10.085   2.809  0.4828 -0.0060 -0.2103
 1647W        W21927  12.536   9.188  11.090  0.0762  0.0320  0.1339
 1648W        W21928   4.228   3.290   0.488 -0.0135 -0.0267 -0.0703
 1649W        W21929   1.024   8.264  13.823 -0.1075  0.2076 -0.2674
 1650W        W21930   9.065   8.404   2.013  0.2392 -0.2410  0.0851
 1651W        W21931   7.524   0.301   1.277  0.1927 -0.4859 -0.2269
 1652W        W21932   2.684   5.576  13.899  0.0386 -0.2345 -0.0206
 1653W        W21933   5.669  10.740  11.541 -0.0759  0.0799  0.1179
 1654W        W21934  14.670   2.399  11.886  0.1587  0.1505  0.0332
 1655W        W21935  12.723   4.250   1.714 -0.0307  0.0302 -0.3078
 1656W        W21936   6.378   5.874   1.011  0.4078 -0.0826  0.0901
 1657W        W21937  17.488  18.494   1.450  0.2921  0.1372  0.0860
 1658W        W21938  14.260  14.585   1.693 -0.0628 -0.1043  0.1932
 1659W        W21939  11.888   1.792  11.055 -0.2758 -0.2698  0.1215
 1660W        W21940   4.745  15.772   0.833 -0.0690 -0.2155 -0.2352
 1661W        W21941   3.539   2.452  11.537  0.0161 -0.0082 -0.1038
 1662W        W21942  18.869  19.317   2.678  0.1126 -0.0253  0.1949
 1663W        W21943  15.166   1.920  12.134  0.0258  0.0409  0.1727
 1664W        W21944   3.633   8.386   1.256 -0.3865  0.1529  0.1552
 1665W        W21945   5.912  18.213   4.305 -0.0782  0.1987 -0.1231
 1666W        W21946   1.837  13.906   3.552  0.7245 -0.0793  0.1692
 1667W        W21947  17.973   9.737   9.646 -0.0673 -0.0223 -0.2142
 1668W        W21948   4.342  15.988   1.932 -0.1469 -0.1497 -0.0375
 1669W        W21949   4.802   6.744   2.099  0.3531  0.1799 -0.2908
 1670W        W21950  13.846   0.923  13.265  0.0887 -0.0725 -0.3354
 1671W        W21951   4.970  15.576  14.438 -0.0998  0.0543 -0.1350
 1672W        W21952  15.330  11.726   2.808  0.1840 -0.0075  0.1532
 1673W        W21953   8.830   2.790   3.636  0.0496 -0.0139 -0.0280
 1674W        W21954   4.145  17.024  13.652  0.2600 -0.0228  0.0250
 1675W        W21955   4.850   1.438  14.060 -0.2998 -0.0025  0.0287
 1676W        W21956  11.650   6.144  11.789 -0.2186 -0.2100 -0.0205
 1677W        W21957  11.912  16.740   4.249 -0.2793  0.5336  0.2470
 1678W        W21958   9.122   7.914   2.367 -0.0671  0.4165  0.0005
 1679W        W21959   3.739   5.747  12.796  0.2556  0.2636 -0.1130
 1680W        W21960  13.973  13.082   2.834  0.0609  0.1009  0.1539
 1681W        W21961   1.074   5.693   1.495  0.2049  0.1263  0.2657
 1682W        W21962  11.289  18.352  11.152  0.0789  0.1506  0.1067
 1683W        W21963   6.832   7.190   0.379  0.4325 -0.2764  0.1477
 1684W        W21964   2.057  11.805   9.479  0.0904 -0.2410  0.1899
 1685W        W21965  19.091   4.064   4.976  0.0630  0.2410 -0.3758
 1686W        W21966  16.112   6.771  12.662 -0.1151  0.0233 -0.2034
 1687W        W21967  12.196   6.567   0.675 -0.0370 -0.1556 -0.0594
 1688W        W21968  14.498  10.377   0.094 -0.1212 -0.0033  0.1024
 1689W        W21969  11.738  16.119   0.693  0.1099  0.0513 -0.4070
 1690W        W21970   7.906   5.663   9.447  0.1471  0.0001  0.1137
 1691W        W21971   2.345   4.858  12.925 -0.0260  0.3082 -0.3822
 1692W        W21972  12.528   9.140  12.892 -0.0998 -0.2525 -0.0257
 1693W        W21973   2.839   0.678   1.919 -0.0265 -0.1022  0.0152
 1694W        W21974   8.823  11.953  11.469 -0.4440  0.5305  0.1080
 1695W        W21975  10.769  19.128  13.053  0.1462  0.0274  0.4615
 1696W        W21976   7.478  16.834  11.560  0.0936  0.2566 -0.0425
 1697W        W21977   9.097  17.496   1.565  0.0043 -0.3676 -0.3065
 1698W        W21978   4.995  19.043   3.191 -0.0035  0.1748  0.2296
 1699W        W21979   6.656  18.793  11.093 -0.2896 -0.4932  0.0483
 1700W        W21980  13.685   1.291   4.407 -0.1144 -0.1390  0.1165
 1701W        W21981  17.356  17.737   0.029 -0.0865  0.3570 -0.2071
 1702W        W21982   2.560  18.285   0.452  0.3200  0.1359 -0.0466
 1703W        W21983  10.192  13.750   0.230  0.0229  0.2537 -0.2438
 1704W        W21984   8.250  14.316  13.116 -0.0446  0.0614 -0.0011
 1705W        W21985  16.659  17.402   4.253  0.0578  0.3176 -0.1312
 1706W        W21986  12.278   0.637   3.238 -0.4541 -0.0928 -0.1649
 1707W        W21987   9.872   8.796  13.698  0.1713 -0.0964  0.0175
 1708W        W21988  18.803  16.876   0.703  0.1609 -0.0798 -0.1066
 1709W        W21989   9.483  14.489  12.935  0.3214  0.0083  0.2471
 1710W        W21990  11.429   1.055   1.405  0.2355 -0.0259 -0.3326
 1711W        W21991   9.286   4.629  13.095 -0.0085  0.0028 -0.1369
 1712W        W21992   7.219   3.077   2.966 -0.1142 -0.1738 -0.1909
 1713W        W21993   6.089  12.447  13.120  0.0106 -0.1414 -0.2575
 1714W        W21994  12.523   0.212  14.253 -0.1401 -0.0166  0.0368
 1715W        W21995   8.368  11.808  11.632 -0.1674 -0.0466  0.2703
 1716W        W21996  11.915   1.906   3.224 -0.0335  0.1008 -0.2709
 1717W        W21997   9.189  16.772   2.955 -0.1291 -0.0920  0.0696
 1718W        W21998  17.391  18.368   4.685  0.2372  0.1154  0.2205
 1719W        W21999  11.606  14.926   0.335 -0.2696  0.3896  0.1385
 1720W        W22000  19.054  15.720   0.082 -0.0571 -0.3040  0.1969
 1721W        W22001  15.405  12.067   3.864  0.2571  0.1658 -0.1684
 1722W        W22002   3.154   3.665  11.195  0.1177 -0.0947  0.1908
 1723W        W22003  13.524  11.708   2.858 -0.2097 -0.0654 -0.2822
 1724W        W22004  16.387   8.968   0.312 -0.2434 -0.0803 -0.0500
 1725W        W22005   3.979   1.812   0.915  0.0007 -0.1466 -0.2100
 1726W        W22006   6.706  11.613  10.910  0.1977  0.1644  0.1653
 1727W        W22007  12.249  15.578   0.053 -0.3018  0.0357  0.1426
 1728W        W22008   9.925   2.078   2.009 -0.1762 -0.3066  0.1645
 1729W        W22009  15.694  12.331  12.966 -0.1390  0.1717 -0.1459
 1730W        W22010   7.413   3.772   3.082  0.1092  0.1782 -0.1378
 1731W        W22011   7.712  15.668   0.900 -0.1964  0.1244  0.1165
 1732W        W22012   6.721  18.677   3.268  0.2044 -0.2898  0.0236
 1733W        W22013   2.090   3.938   3.690 -0.3408  0.1312  0.1112
 1734W        W22014  13.557   4.351   4.974 -0.1917  0.2051 -0.0839
 1735W        W22015   3.386   4.001   2.483  0.2566 -0.1088 -0.0138
 1736W        W22016  14.592  12.837   1.160 -0.1728  0.4475  0.1507
 1737W        W22017  18.454   3.523   0.743 -0.0354 -0.0001 -0.0453
 1738W        W22018  16.697  15.757  13.729 -0.1011 -0.0209  0.1409
 1739W        W22019   2.746   9.445   9.480  0.2760  0.0896 -0.1603
 1740W        W22020   8.534   7.414  10.438 -0.1137  0.3523 -0.4606
 1741W        W22021  11.530  11.849   1.588 -0.3753  0.1211 -0.1552
 1742W        W22022  19.404  16.486  10.860 -0.1720 -0.3346  0.1054
 1743W        W22023   7.985   4.746  12.819 -0.0933  0.0789  0.1651
 1744W        W22024  18.521  17.899  12.235  0.0207 -0.1507 -0.4075
 1745W        W22025   2.349  15.296  11.545  0.0540  0.0842  0.1944
 1746W        W22026  10.327  19.110  14.163  0.4744  0.4161  0.2260
 1747W        W22027  11.613  15.872   2.276 -0.0885 -0.5104  0.1291
 1748W        W22028  17.908  12.292  10.667  0.0463  0.1655 -0.0506
 1749W        W22029   3.229   8.191  10.286 -0.0623  0.2627  0.0283
 1750W        W22030   1.809   5.286  10.972 -0.1487 -0.0437 -0.1885
 1751W        W22031   1.324   1.059   3.086 -0.0003 -0.1196  0.0671
 1752W        W22032   6.832   0.774  11.786  0.0086  0.2389 -0.1144
 1753W        W22033   2.561  12.527  10.366  0.3816  0.1440 -0.2768
 1754W        W22034   9.872   2.348   3.170  0.0996 -0.2896  0.4202
 1755W        W22035   1.169  11.265   0.666 -0.0807  0.1973  0.0438
 1756W        W22036  13.590  10.359  12.180  0.3862 -0.1174 -0.2401
 1757W        W22037   8.170   5.242  13.572 -0.1730  0.1597  0.0772
 1758W        W22038  11.188  15.118  11.460  0.1439 -0.1756 -0.0803
 1759W        W22039  15.175   8.860  14.219 -0.3957  0.0866  0.0509
 1760W        W22040  15.518  13.302   1.070 -0.4562  0.2999  0.0082
 1761W        W22041  13.762   4.708  14.335 -0.0556 -0.0354  0.0470
 1762W        W22042  12.382  10.288  12.846 -0.2037  0.0898 -0.0511
 1763W        W22043  11.702  15.174   3.364  0.0866 -0.1769 -0.0823
 1764W        W22044  12.818  10.672  10.444 -0.0996  0.1804 -0.3240
 1765W        W22045   2.303  13.852  13.998 -0.0490  0.1257 -0.0136
 1766W        W22046   8.831  14.343  10.236  0.3286  0.0379  0.2675
 1767W        W22047   1.524   3.225  12.673  0.1193  0.0649  0.0820
 1768W        W22048  14.119  10.434  12.641  0.2997  0.1520  0.3943
 1769W        W22049   5.598  19.274   3.605 -0.3306  0.1014  0.0612
 1770W        W22050   0.800  13.132   0.862 -0.0761  0.0952 -0.0874
 1771W        W22051   1.751  18.826  14.200 -0.1426 -0.1977 -0.1202
 1772W        W22052  14.988  18.262   1.890  0.1809 -0.0717  0.1495
 1773W        W22053  17.511   9.838   9.910  0.0509  0.0821  0.0442
 1774W        W22054   4.836  15.503  11.438 -0.1842  0.2684  0.0397
 1775W        W22055   2.914   6.118   3.562 -0.1804 -0.4301 -0.1015
 1776W        W22056   9.309   6.682  13.584  0.2276 -0.1140 -0.4718
 1777W        W22057   7.146  16.650   2.183 -0.3180 -0.2447  0.2124
 1778W        W22058  11.074   1.332  12.558  0.1473 -0.1314  0.1954
 1779W        W22059  18.710  16.479  11.804  0.3658 -0.0692  0.0336
 1780W        W22060  10.756   5.220  13.553 -0.3551  0.0801 -0.0148
 1781W        W22061   3.436  13.117  13.004 -0.0442  0.2196 -0.0218
 1782W        W22062  18.145   4.373  13.985  0.1741  0.0939 -0.0047
 1783W        W22063  12.293   0.068   2.519  0.2069  0.0548 -0.1277
 1784W        W22064  10.124   8.789   0.480  0.1044 -0.0941 -0.2260
 1785W        W22065   7.158  10.578  11.566 -0.4671  0.0304  0.2810
 1786W        W22066   7.051  14.866   3.295  0.2903 -0.0808  0.0707
 1787W        W22067   0.023   7.577  12.219  0.1125 -0.0322  0.2434
 1788W        W22068  13.119   4.721   1.064  0.0745 -0.2245 -0.2562
 1789W        W22069   6.133   0.543   2.456 -0.1479  0.1285  0.1238
 1790W        W22070   6.312  14.468  12.269  0.0667  0.2087  0.0156
 1791W        W22071   9.975   0.894  14.089 -0.0731  0.0287 -0.1166
 1792W        W22072   6.682  19.047   0.487 -0.0882 -0.0219 -0.2319
 1793W        W22073  17.969   3.642  12.115 -0.0165 -0.2414  0.1514
 1794W        W22074   0.323  15.372   4.908  0.0142  0.1239  0.3340
 1795W        W22075   3.203  13.668  12.703 -0.0423 -0.4736 -0.0117
 1796W        W22076  17.223  19.109  13.087  0.1491 -0.0459  0.0403
 1797W        W22077  19.122  14.699  12.030  0.4849 -0.1637 -0.0633
 1798W        W22078  17.519  18.334   0.944 -0.0612  0.1297  0.2738
 1799W        W22079   9.746   0.888   2.664  0.1771  0.0024  0.2003
 1800W        W22080   6.189   5.007  10.584 -0.2342  0.1384  0.1693
 1801W        W22081   7.509  11.111  14.364  0.2010 -0.1983 -0.0994
 1802W        W22082   3.654  10.195  14.457  0.0212  0.2341  0.3190
 1803W        W22083   3.775  17.229  10.862  0.2672 -0.0478  0.0116
 1804W        W22084   0.696  13.638   2.763  0.0598 -0.1269  0.1305
 1805W        W22085   9.775   0.953  11.835  0.2119  0.2806  0.1032
 1806W        W22086  12.006   4.471  12.794  0.3063 -0.0297  0.2446
 1807W        W22087   6.380  16.972   3.299 -0.0251  0.1871 -0.0734
 1808W        W22088  10.966  10.781  10.472  0.0292 -0.2369 -0.3028
 1809W        W22089   7.622  10.772  11.304 -0.1028  0.0540 -0.1598
 1810W        W22090  12.990   2.428   1.477 -0.0750  0.1831  0.0612
 1811W        W22091  11.171  15.646   1.350  0.4305 -0.0795 -0.3066
 1812W        W22092  13.637  15.438   3.122  0.2804  0.1686  0.0057
 1813W        W22093   6.776  13.888  13.306 -0.0533  0.0287  0.0491
 1814W        W22094   0.282   0.504   1.249 -0.1167  0.2340 -0.3693
 1815W        W22095   6.803  13.555   2.912  0.1487  0.1016 -0.1548
 1816W        W22096  16.483  14.657   0.134 -0.1649 -0.0431 -0.2899
 1817W        W22097  19.002   8.189  12.858 -0.1188  0.1199 -0.0629
 1818W        W22098   3.482   5.597   2.863  0.0774 -0.1257 -0.0129
 1819W        W22099  13.362   4.780  14.017 -0.2214  0.0100 -0.1705
 1820W        W22100  17.859   6.527   1.361 -0.0316  0.0270  0.1213
 1821W        W22101  18.444  13.204  12.257 -0.0124  0.1031  0.2896
 1822W        W22102  11.359   0.557   5.083  0.1355  0.0783  0.1522
 1823W        W22103   6.520   1.282   3.803 -0.1145 -0.2658  0.0335
 1824W        W22104   7.039  15.571   2.462  0.1110 -0.0747 -0.1504
 1825W        W22105   9.359  16.075  13.117 -0.0211  0.0973 -0.2512
 1826W        W22106  14.589  19.080   2.486 -0.1022  0.2218 -0.2199
 1827W        W22107  10.316   0.604   3.362  0.1749  0.3062 -0.1807
 1828W        W22108   2.189  18.879  11.844 -0.2871 -0.3678 -0.1659
 1829W        W22109  11.855   5.058  12.843  0.2436 -0.1285  0.1738
 1830W        W22110   0.684   2.092  12.057  0.2780  0.2200  0.1504
 1831W        W22111   5.893   5.841   3.139  0.0209  0.0482  0.1267
 1832W        W22112   8.873  14.891  12.036  0.1388 -0.1973  0.3833
 1833W        W22113  14.183  14.943   4.417  0.1723 -0.2447  0.0958
 1834W        W22114  14.825   9.252   2.174 -0.3214  0.0867  0.0176
 1835W        W22115  10.886  14.399  13.806 -0.1157  0.1906 -0.0517
 1836W        W22116  13.070  18.397   2.462  0.0900 -0.1602 -0.0207
 1837W        W22117  16.988   0.377  13.126  0.1803 -0.0677 -0.3042
 1838W        W22118   4.665  13.023  11.771 -0.4587 -0.2765 -0.1912
 1839W        W22119  18.612  10.051   2.216 -0.0634 -0.1057 -0.0384
 1840W        W22120  13.206   4.016   4.655  0.0204 -0.3920 -0.1802
 1841W        W22121  15.715   7.143   3.286 -0.3024  0.0692 -0.0314
 1842W        W22122   4.376   7.106  11.124  0.1255  0.1828 -0.0889
 1843W        W22123  15.991  14.270  11.423  0.0805  0.0219  0.3095
 1844W        W22124   6.767  13.498  12.908  0.1148 -0.0141  0.2458
 1845W        W22125   6.934   9.252  13.414  0.3683  0.1423 -0.0170
 1846W        W22126   5.175  19.395   5.251  0.1273  0.1639  0.0754
 1847W        W22127   3.342  17.589   2.432  0.1839  0.1296 -0.1029
 1848W        W22128  16.519  16.340   4.145  0.0648  0.1636  0.4732
 1849W        W22129  10.800   4.088   2.242 -0.1910 -0.0089 -0.0766
 1850W        W22130   7.143   0.540  13.585 -0.0830 -0.2121 -0.0760
 1851W        W22131   0.714  15.532  14.046  0.3336  0.1024  0.0907
 1852W        W22132   1.574  10.817  14.354 -0.0575  0.2660 -0.1210
 1853W        W22133   2.687   3.304   0.093  0.1623 -0.2095 -0.1201
 1854W        W22134   2.082  11.847   0.265  0.1999 -0.3029  0.0962
 1855W        W22135   4.929  14.753   1.025  0.0555  0.1497  0.1367
 1856W        W22136   6.775   4.410   2.975  0.0493 -0.0640 -0.0221
 1857W        W22137  15.826  16.945  12.229 -0.1604  0.0838  0.2440
 1858W        W22138   3.197   1.713  13.398  0.1370  0.0878 -0.0765
 1859W        W22139   8.645  10.240   1.756 -0.1095 -0.1143  0.0516
 1860W        W22140   2.860  12.489   1.002  0.1285 -0.1999 -0.2090
 1861W        W22141  19.396   9.602  12.150  0.1514  0.3308  0.6677
 1862W        W22142   7.018  10.199   0.204 -0.1804  0.0377  0.0080
 1863W        W22143  11.033  18.820   3.557 -0.0384 -0.0354  0.2236
 1864W        W22144   3.652  12.807   1.028 -0.1063 -0.0658  0.2158
 1865W        W22145  12.320  15.105   1.222 -0.1403  0.2673 -0.1161
 1866W        W22146   3.417  15.578  13.132 -0.1322 -0.2819  0.0822
 1867W        W22147  16.682  14.432  10.750  0.2709  0.2295  0.2830
 1868W        W22148  12.938   5.009   2.738 -0.1384  0.0168  0.0116
 1869W        W22149   2.964   8.939   2.743 -0.0579 -0.3555  0.0043
 1870W        W22150   5.094  17.575   2.214  0.2333 -0.3021 -0.1695
 1871W        W22151  18.833   3.573  13.245 -0.1424 -0.4371 -0.1384
 1872W        W22152  10.744   9.669  13.585 -0.0076 -0.0405  0.0117
 1873W        W22153   7.476   8.807  10.996 -0.0279 -0.3452  0.1754
 1874W        W22154   3.511   1.221   2.977  0.1360 -0.0938 -0.2791
 1875W        W22155  17.258  18.752   1.035  0.1566 -0.0736 -0.0176
 1876W        W22156  11.562  13.575   3.841  0.1434  0.2939  0.1099
 1877W        W22157  17.944  18.216  11.173  0.0863  0.1813  0.1400
 1878W        W22158   8.161   1.882   2.325 -0.1832  0.1520  0.1855
 1879W        W22159  12.108  16.947   3.864 -0.3610  0.1679 -0.0786
 1880W        W22160   3.380   2.299   1.073  0.0098  0.1279 -0.1636
 1881W        W22161   6.342  16.088   3.346 -0.1917  0.0419 -0.1574
 1882W        W22162   2.576  12.237  14.022  0.0126 -0.1227  0.2017
 1883W        W22163  12.506  16.043   3.405 -0.1488  0.0291  0.0568
 1884W        W22164  16.336  13.387  11.948  0.0464 -0.0413  0.2397
 1885W        W22165   8.056   6.339   4.022 -0.1064  0.1449  0.1789
 1886W        W22166  11.411  16.010  10.445  0.1885  0.0899 -0.2589
 1887W        W22167  17.805  12.876  10.685 -0.3111 -0.0276 -0.0628
 1888W        W22168  15.036  14.145   0.752  0.0338 -0.0113 -0.2162
 1889W        W22169   4.853   9.386  12.987  0.0608  0.0700  0.0759
 1890W        W22170   2.282   4.995   1.124  0.0086  0.0567 -0.0963
 1891W        W22171  13.712  16.924  14.269 -0.1787  0.0724  0.1547
 1892W        W22172   7.116   2.968   3.571  0.2401 -0.4051  0.0291
 1893W        W22173  17.209  11.523   1.495 -0.1535 -0.0933  0.2050
 1894W        W22174  12.130  15.354   4.115  0.2892 -0.2363 -0.0490
 1895W        W22175   1.717   1.697   1.758 -0.1674 -0.1316  0.1730
 1896W        W22176   3.584  17.250   4.088 -0.1430 -0.0445 -0.0262
 1897W        W22177  14.815   9.130   0.421 -0.1104  0.0251 -0.1489
 1898W        W22178   3.930  19.287   0.411  0.0142  0.0415 -0.3419
 1899W        W22179  17.047   3.309  11.059 -0.2020  0.1123 -0.1368
 1900W        W22180   9.712  11.566   1.291  0.1507  0.0797 -0.0629
 1901W        W22181   4.601   5.714  12.686 -0.0340  0.2095 -0.0050
 1902W        W22182  12.305  12.677   0.422  0.1720  0.4126 -0.3538
 1903W        W22183   7.635  11.032  12.770  0.0361 -0.0417  0.0193
 1904W        W22184   9.368   9.229  12.010  0.2392 -0.2579  0.0714
 1905W        W22185  15.191   8.111  12.874 -0.0511  0.0449 -0.0014
 1906W        W22186   9.085   6.979   4.437  0.0987 -0.0134 -0.0873
 1907W        W22187  15.690   8.468   3.530  0.0260  0.0662  0.0386
 1908W        W22188  12.789   2.778  12.660  0.1934  0.0365  0.2130
 1909W        W22189   4.985  18.376   2.009  0.1241 -0.0804 -0.1775
 1910W        W22190  18.135   8.403  11.295  0.1872  0.1401 -0.0890
 1911W        W22191  15.381   3.460   1.598  0.0126 -0.0928  0.0700
 1912W        W22192   6.569   4.579  12.633 -0.1654 -0.0651 -0.1470
 1913W        W22193   3.308   3.343   4.194  0.0592 -0.0266 -0.0330
 1914W        W22194  14.557  14.587   1.245 -0.0516 -0.1129  0.0342
 1915W        W22195   1.450   7.541  13.032 -0.3125  0.1412  0.0339
 1916W        W22196  11.404   4.109  12.390  0.0345  0.0247  0.1350
 1917W        W22197  13.506   2.600   0.393 -0.3528  0.1873  0.2881
 1918W        W22198   5.078   3.088  13.721 -0.1061  0.0270 -0.2543
 1919W        W22199   5.793   0.883  11.015 -0.1348  0.1867  0.2397
 1920W        W22200   8.165  15.450   3.394 -0.0170 -0.0500  0.3142
 1921W        W22201  13.137   0.134  14.005  0.2623 -0.1551 -0.1292
 1922W        W22202   3.025   9.737   2.674  0.0158 -0.1281  0.3518
 1923W        W22203   1.339   6.390   1.068 -0.2680 -0.2790  0.0762
 1924W        W22204   8.380  11.516   3.717 -0.4738  0.0284 -0.1892
 1925W        W22205   9.058  11.093  11.417 -0.0220  0.1205 -0.0927
 1926W        W22206  14.491  10.582   1.364  0.0710 -0.0873 -0.0620
 1927W        W22207  12.962   4.169  11.043 -0.0309  0.1949  0.0019
 1928W        W22208  12.323  19.156   1.068  0.1617 -0.0352 -0.1627
 1929W        W22209   0.527  14.673  12.895 -0.0334  0.2451  0.0435
 1930W        W22210   5.843   3.123  11.854  0.0903  0.0319 -0.0024
 1931W        W22211  15.126   6.242  11.184 -0.0630  0.2830 -0.5133
 1932W        W22212   1.546   6.369  14.061 -0.0079 -0.1133  0.0145
 1933W        W22213   9.249  15.696  13.842 -0.1256  0.0943  0.0301
 1934W        W22214  10.563   9.395   3.729 -0.2887 -0.1770  0.0273
 1935W        W22215  12.982   0.407  13.247 -0.0823 -0.2118 -0.0871
 1936W        W22216   6.138   4.586  13.657  0.0652 -0.1294 -0.1514
 1937W        W22217   3.499  16.426  10.951  0.0574  0.1568 -0.2245
 1938W        W22218   7.444  15.420  13.168  0.3448  0.0015  0.0923
 1939W        W22219  16.481   9.584  14.180 -0.2501 -0.0569  0.0594
 1940W        W22220   4.939  18.492   0.089  0.0835  0.1378  0.0909
 1941W        W22221  11.548   0.019  11.466  0.1924 -0.0050  0.3293
 1942W        W22222   0.971  10.814   0.768 -0.1635 -0.0566  0.0584
 1943W        W22223   6.497   7.370   3.769  0.3439 -0.0139  0.0972
 1944W        W22224   2.343  16.739  12.346  0.0897 -0.1910 -0.2173
 1945W        W22225  11.305  18.999  11.169 -0.1336  0.0733 -0.2112
 1946W        W22226  13.073  13.481  11.074 -0.0462 -0.0411  0.2648
 1947W        W22227   2.815   0.879  14.342 -0.0331  0.1422  0.1322
 1948W        W22228   5.833  11.418  10.296 -0.2020  0.4103  0.2432
 1949W        W22229   8.670  12.479  13.388 -0.0732 -0.1880  0.0351
 1950W        W22230  11.977   3.593   4.252  0.2434 -0.3280  0.0371
 1951W        W22231  14.618  18.952   1.223 -0.1726 -0.0362  0.0251
 1952W        W22232  12.461  16.224   2.456 -0.1383 -0.0726 -0.0537
 1953W        W22233   6.280   7.212  10.263  0.0929  0.3699  0.2682
 1954W        W22234  15.746  17.722   4.176 -0.3387  0.0574 -0.3183
 1955W        W22235   8.014  17.694   1.715  0.0309  0.0828  0.2278
 1956W        W22236  19.014   7.201   2.001  0.1501  0.0006  0.0305
 1957W        W22237   2.088   0.372   0.514  0.0611 -0.0726  0.1728
 1958W        W22238  13.517   1.651  11.874 -0.0319 -0.0548  0.2267
 1959W        W22239   3.527  14.506  11.987 -0.0482 -0.0955 -0.1177
 1960W        W22240   9.654  17.936  11.609  0.0850 -0.0240  0.1748
 1961W        W22241  17.003  16.893   1.978 -0.3838  0.0151 -0.1394
 1962W        W22242   5.839  10.523  12.256 -0.2964 -0.3760  0.1123
 1963W        W22243  13.677   6.369   0.274  0.2595 -0.0590 -0.1008
 1964W        W22244   6.063   9.699   1.996  0.0958  0.3393  0.2461
 1965W        W22245  18.482  18.310   3.518  0.1476  0.0750 -0.2899
 1966W        W22246  17.285   1.186   1.628 -0.0637 -0.0085 -0.5130
 1967W        W22247  18.637   3.494   2.283  0.0331  0.2028 -0.1344
 1968W        W22248   6.405   4.897  14.394  0.2577 -0.0611  0.0340
 1969W        W22249   3.350   7.465   1.442 -0.1656  0.1814 -0.1087
 1970W        W22250   1.538  17.773  13.016  0.1523  0.1066 -0.2152
 1971W        W22251  17.247   1.373   2.828 -0.0348  0.2567  0.0101
 1972W        W22252   8.940   2.990  11.533 -0.0478  0.0762  0.3505
 1973W        W22253   2.336   8.832   3.112  0.1791 -0.2255 -0.0038
 1974W        W22254  14.886  13.521  11.502 -0.1348 -0.3864 -0.1345
 1975W        W22255   8.714  12.099   2.390  0.0264  0.1920 -0.0288
 1976W        W22256  17.551  11.295  14.058 -0.3041  0.1351 -0.3566
 1977W        W22257  17.789  11.105   3.726 -0.0589 -0.0617  0.2089
 1978W        W22258   6.856   5.603  14.368  0.1421 -0.1544  0.3191
 1979W        W22259  10.162  16.587  12.804  0.0634  0.1300  0.1750
 1980W        W22260   3.790  18.889   3.405  0.3090 -0.1820  0.1180
 1981W        W22261  19.314   1.539   3.245 -0.2448 -0.0220 -0.0462
 1982W        W22262   1.867   9.624  12.620 -0.3204 -0.0897 -0.0559
 1983W        W22263   7.072   2.450  13.274 -0.1901  0.0506  0.0545
 1984W        W22264  17.608  10.385   0.194  0.3215 -0.2521  0.1174
 1985W        W22265   7.423   8.593   4.137  0.1250  0.4112  0.0202
 1986W        W22266   5.848  17.869  10.882 -0.1989  0.0672 -0.2257
 1987W        W22267  16.871   0.453   1.265 -0.2462 -0.0454 -0.1395
 1988W        W22268   7.658  18.903   3.637 -0.2917  0.4201 -0.1261
 1989W        W22269  17.419   9.400  11.815  0.2716 -0.0741 -0.0271
 1990W        W22270   5.998   3.206   1.926 -0.0840 -0.0737 -0.1400
 1991W        W22271  10.991  17.639   0.033  0.1112 -0.1006  0.1590
 1992W        W22272  15.226   6.618   3.279  0.0073 -0.1542 -0.1532
 1993W        W22273  16.805   7.745   3.166 -0.0159  0.0966  0.3711
 1994W        W22274   6.432   1.452  13.850  0.1643  0.0816  0.0625
 1995W        W22275  15.367  16.072   0.136 -0.0303  0.0633 -0.1145
 1996W        W22276  16.547   3.134   3.552  0.1230 -0.3250  0.0244
 1997W        W22277  18.322   6.169   2.402  0.4761  0.3780 -0.1361
 1998W        W22278  17.529  14.358  11.691  0.1438  0.0348  0.0185
 1999W        W22279   4.263  13.364   1.635 -0.0942 -0.2209 -0.0108
 2000W        W22280   8.327   4.841  10.825  0.2647  0.4297 -0.3045
 2001W        W22281  10.776   2.069   2.403  0.0658 -0.0555 -0.1306
 2002W        W22282  15.226  11.522  12.942 -0.0781 -0.3317 -0.2254
 2003W        W22283   4.192  12.510  13.903 -0.0908 -0.2696 -0.1947
 2004W        W22284   6.792   3.119   4.664  0.1518  0.1368  0.1146
 2005W        W22285  10.635  10.654   3.863  0.0185 -0.3162  0.1517
 2006W        W22286  15.931   9.588   4.552 -0.0419 -0.4146 -0.0094
 2007W        W22287   0.874   2.101   0.330  0.3299  0.1457  0.0860
 2008W        W22288   4.576   2.574   3.202 -0.2739  0.1613 -0.0039
 2009W        W22289   7.136   8.885  12.497  0.0541 -0.1470  0.2188
 2010W        W22290   0.414  18.893   0.306 -0.2010 -0.1067  0.2202
 2011W        W22291  12.377  16.804   3.250 -0.0836 -0.2706 -0.2409
 2012W        W22292   7.102   4.648   2.634 -0.1131 -0.2824 -0.0903
 2013W        W22293   8.136  14.620   0.922  0.0039  0.1011  0.0058
 2014W        W22294  18.913  15.582  11.945  0.0974 -0.0096  0.2563
 2015W        W22295   3.910   5.692   2.547  0.1063 -0.1928  0.1241
 2016W        W22296   4.749   2.750   2.357  0.1001  0.0951 -0.1992
 2017W        W22297   6.875  17.244   4.132 -0.1276 -0.2040  0.1103
 2018W        W22298  15.233  15.481  13.499  0.0523  0.2759 -0.3526
 2019W        W22299  17.377   1.835   0.893 -0.0186  0.2238  0.0231
 2020W        W22300   1.914  15.475  12.346  0.1211 -0.1317 -0.0186
 2021W        W22301   6.261   9.296  13.201 -0.3256 -0.1620  0.0950
 2022W        W22302  10.470   6.944  12.934 -0.3038  0.0099 -0.0741
 2023W        W22303   4.951  19.369   1.153  0.0216  0.3755 -0.0687
 2024W        W22304  12.169  12.243   4.900 -0.1262  0.0459 -0.1824
 2025W        W22305   9.363   3.468   2.013 -0.0581  0.3323  0.0743
 2026W        W22306  17.541   8.250  12.031  0.0311  0.0675 -0.0306
 2027W        W22307  15.345  13.792   0.919  0.0639  0.1324  0.1748
 2028W        W22308   4.706   0.483   2.009 -0.0204 -0.0352 -0.3156
 2029W        W22309  18.699  10.553  12.532 -0.3347  0.1816 -0.0813
 2030W        W22310  13.132  14.330  11.120  0.1294  0.0105 -0.4033
 2031W        W22311  12.153   8.058   0.068  0.1427  0.0526 -0.0751
 2032W        W22312   0.441   1.889   4.175  0.4649 -0.3463  0.0892
 2033W        W22313   0.698  11.158  11.950 -0.0061 -0.2008 -0.0149
 2034W        W22314  16.828   1.512   1.317  0.0276 -0.0435 -0.3289
 2035W        W22315   5.393   0.166  13.461 -0.1233  0.1048  0.1628
 2036W        W22316   1.732   9.246   2.093  0.1072  0.1239  0.2617
 2037W        W22317  11.458   5.780  12.075  0.0657 -0.1673  0.2413
 2038W        W22318   1.488   4.111   0.074  0.1536 -0.0567 -0.0397
 2039W        W22319   6.912   3.144  10.780  0.1377 -0.0017  0.0491
 2040W        W22320  13.284  15.213   0.192 -0.2800 -0.2237 -0.0866
 2041W        W22321  18.769  13.128   2.231  0.1455  0.1683  0.1300
 2042W        W22322   5.299  13.611  11.941  0.1681 -0.1043 -0.2470
 2043W        W22323  19.317  18.345  11.737 -0.3377 -0.5295 -0.1753
 2044W        W22324   9.647   0.326   0.373 -0.1216  0.0788 -0.0681
 2045W        W22325   2.549   5.003   3.668 -0.0680 -0.0098  0.1352
 2046W        W22326  13.789   1.792  14.444  0.0119  0.0501 -0.2959
 2047W        W22327  10.151  13.696  11.754  0.0713  0.0609  0.2217
 2048W        W22328  10.545   8.635  14.083  0.0097 -0.0070 -0.0623
 2049W        W22329   5.712   1.243   2.561 -0.1557  0.0607 -0.0433
 2050W        W22330  15.408   8.505  14.034 -0.0239 -0.1878  0.2908
 2051W        W22331   3.350   0.841  13.295 -0.1117  0.0470 -0.2139
 2052W        W22332   3.170  15.971  12.989 -0.0246  0.0488  0.1270
 2053W        W22333   5.802   4.387   2.705  0.0098  0.1568 -0.0904
 2054W        W22334  10.510   8.447   4.484  0.1760 -0.0946  0.1188
 2055W        W22335  12.901   9.139  12.455 -0.1945  0.0902  0.3746
 2056W        W22336  12.877   9.574   4.911  0.2410 -0.2339  0.3930
 2057W        W22337  13.414   9.625  11.015 -0.1566 -0.0976 -0.1329
 2058W        W22338   0.427  14.588  10.705  0.0526 -0.1366  0.3751
 2059W        W22339  15.186   6.548   2.021 -0.1050  0.1001 -0.0257
 2060W        W22340  10.492   3.032   2.899  0.2289  0.0914 -0.0322
 2061W        W22341   3.705   0.372   2.035 -0.0762  0.0652  0.1043
 2062W        W22342  16.401   1.964  11.267 -0.0307 -0.0340  0.0998
 2063W        W22343  15.731   1.927   1.850  0.2082  0.0785 -0.0012
 2064W        W22344  14.548  17.134  12.974 -0.0213 -0.2851 -0.1882
 2065W        W22345  10.086   4.107  13.074 -0.1147 -0.0762 -0.2581
 2066W        W22346  10.482  15.704   0.528 -0.0459 -0.0892 -0.0074
 2067W        W22347  18.444   6.122   3.834  0.0542 -0.0145 -0.3407
 2068W        W22348  18.273   3.259   4.239  0.1193  0.1020 -0.2308
 2069W        W22349   7.948  13.341   0.278 -0.0372  0.1937 -0.2196
 2070W        W22350  16.211  18.491   2.312  0.2283 -0.1309  0.2647
 2071W        W22351   4.987  18.151   3.029  0.0701  0.0022 -0.3775
 2072W        W22352   1.466  16.434  12.353  0.1811  0.1891 -0.5094
 2073W        W22353  14.247   0.739  12.534 -0.2685  0.0354  0.1556
 2074W        W22354  12.700  17.135  11.307  0.1341 -0.1993  0.0122
 2075W        W22355  16.474  11.360  14.329 -0.1222  0.2013  0.0807
 2076W        W22356  14.264  16.717  12.322 -0.2122  0.1933  0.2489
 2077W        W22357   4.302   6.344  11.281 -0.0742 -0.3635  0.0118
 2078W        W22358   3.917  12.518  11.901 -0.1450 -0.2989 -0.3934
 2079W        W22359   7.936  15.477   2.871 -0.0578 -0.0705  0.3443
 2080W        W22360   2.666   9.264   3.032  0.1026  0.0744 -0.0486
 2081W        W22361   8.301   6.024   3.171  0.1525  0.1550  0.0208
 2082W        W22362   7.406   2.367  12.360 -0.0846  0.1095 -0.1608
 2083W        W22363  13.043  15.551  13.880 -0.0848  0.0659 -0.0564
 2084W        W22364   5.368  17.830  13.693  0.2416 -0.0938  0.1488
 2085W        W22365   2.089  13.996  12.353 -0.0581  0.1909  0.1470
 2086W        W22366   6.368  17.135   0.513  0.2810  0.2160  0.0442
 2087W        W22367   8.678  19.305   1.526 -0.0853 -0.0598 -0.1195
 2088W        W22368  16.876   1.209   2.584  0.1131  0.0063 -0.0421
 2089W        W22369   7.530  17.139   0.010 -0.1017  0.1487  0.1246
 2090W        W22370   3.502  10.384   1.817  0.2186  0.1582 -0.1544
 2091W        W22371   0.524  11.335  10.862  0.0349 -0.0498  0.0998
 2092W        W22372   3.585  17.586  11.376 -0.0304  0.1341  0.1651
 2093W        W22373   3.359   5.000  12.699  0.0295  0.0593 -0.0537
 2094W        W22374   1.423   1.265  11.923  0.0051  0.2399  0.2390
 2095W        W22375   3.097   7.373  14.434 -0.1727 -0.1495  0.1563
 2096W        W22376   0.744  12.128  12.168 -0.0963 -0.1341 -0.1355
 2097W        W22377   3.538   2.303  14.250 -0.1380 -0.1894 -0.0760
 2098W        W22378   5.042  10.104   2.652  0.2200  0.1677 -0.2608
 2099W        W22379   2.907  14.989   0.257  0.0866 -0.4440  0.2186
 2100W        W22380   1.272   9.697  11.492  0.2648  0.3889  0.1588
 2101W        W22381   8.341   2.199   0.992 -0.1257 -0.0765  0.1836
 2102W        W22382   5.274   4.630   2.372 -0.1813 -0.0913  0.0199
 2103W        W22383   2.432  16.194   0.183 -0.2710  0.1749  0.0666
 2104W        W22384  13.274  10.342  10.234 -0.0332 -0.2124  0.1613
 2105W        W22385  12.302   5.446  10.585  0.0233  0.2265  0.1500
 2106W        W22386  17.707   1.753  11.566 -0.2954 -0.0157  0.0071
 2107W        W22387  12.803   6.645  11.011 -0.1278  0.1345 -0.1023
 2108W        W22388  17.588   7.945   3.446 -0.0793 -0.0923  0.1391
 2109W        W22389   8.929  16.440  13.271  0.1107  0.0672  0.2453
 2110W        W22390  11.705   0.585   0.942  0.0039  0.1515 -0.0524
 2111W        W22391  14.375  13.275  11.382 -0.0976 -0.3616 -0.2118
 2112W        W22392   7.564   4.733   2.137  0.5183  0.2844  0.3163
 2113W        W22393   0.938  18.249  11.683 -0.0183  0.1619 -0.0960
 2114W        W22394  13.323  13.358   0.363 -0.0143 -0.1169  0.0848
 2115W        W22395   3.529  15.292   0.635  0.1617 -0.0207 -0.0339
 2116W        W22396  19.129   2.941  11.845 -0.3181 -0.3051 -0.0143
 2117W        W22397   5.602   5.004  11.161  0.0802 -0.1448  0.0676
 2118W        W22398   2.154   9.944   1.420  0.2642 -0.0275  0.2841
 2119W        W22399  13.387   8.280   2.870 -0.1372  0.0066 -0.3582
 2120W        W22400   5.719  15.734  12.132  0.2252 -0.0134  0.0160
 2121W        W22401  17.811  12.485   2.539  0.1578  0.1546 -0.2738
 2122W        W22402   3.904  13.348   0.284  0.1298  0.0222  0.0381
 2123W        W22403   9.732  16.708  12.581  0.1055  0.1589  0.0294
 2124W        W22404   7.055   3.456   0.768  0.4412  0.0901  0.2222
 2125W        W22405  14.722   2.785   0.422  0.2130 -0.0411 -0.0192
 2126W        W22406  17.457   3.498   0.412  0.0165 -0.0389 -0.2217
 2127W        W22407   9.724   5.154   0.320  0.2153  0.1653  0.0356
 2128W        W22408  17.958   0.027  12.534 -0.1068  0.1943  0.1185
 2129W        W22409   9.501   3.978   1.790  0.2827 -0.0424 -0.0317
 2130W        W22410  17.353   0.058  11.344 -0.2747 -0.0499  0.4009
 2131W        W22411   3.795   3.308   0.828 -0.0747  0.1874  0.2447
 2132W        W22412   6.991  12.635   1.027 -0.0297  0.2161 -0.0876
 2133W        W22413  12.665   1.436   4.158  0.2543  0.0058  0.3586
 2134W        W22414  12.624   2.325  13.144 -0.1727  0.2801  0.2185
 2135W        W22415   7.598  11.725   3.461  0.0309 -0.4845  0.0521
 2136W        W22416  13.137   9.581  11.782 -0.1467  0.2830  0.0107
 2137W        W22417  17.658  15.311   2.773 -0.1640 -0.2910  0.1992
 2138W        W22418  14.604  12.448  10.935 -0.0312  0.2190  0.0362
 2139W        W22419   3.439   9.467   1.149  0.0653  0.3245 -0.3247
 2140W        W22420   3.118   9.534  14.361 -0.3319 -0.0260  0.0478
 2141W        W22421   9.630   0.578  10.986 -0.2842 -0.1165  0.0662
 2142W        W22422   7.338  18.355   2.953  0.1035  0.1907  0.1054
 2143W        W22423  10.341  17.496   0.748  0.1671  0.2230 -0.1173
 2144W        W22424  15.816   1.739  11.254  0.1104 -0.0540  0.1272
 2145W        W22425  10.543   2.382  10.497 -0.2812 -0.3544 -0.0391
 2146W        W22426  18.951   1.754  11.547 -0.1487  0.0832  0.2336
 2147W        W22427   2.949   3.335   3.419  0.0349  0.3376  0.1956
 2148W        W22428  13.269   7.047  14.127 -0.1357  0.0056  0.1082
 2149W        W22429  17.748   7.803  13.038 -0.0061  0.1122 -0.0038
 2150W        W22430  11.341   0.905  12.499 -0.0444  0.0828  0.0465
 2151W        W22431   3.854   6.627   1.809  0.3088 -0.0203  0.1113
 2152W        W22432  14.669   4.549   2.222  0.0220 -0.0570  0.0189
 2153W        W22433  13.951   5.564   3.927 -0.0620 -0.0566  0.0693
 2154W        W22434  12.187  19.307   1.538 -0.0560  0.1766  0.0615
 2155W        W22435   4.871   2.284   2.035 -0.2166 -0.1971 -0.0206
 2156W        W22436   3.616   1.904  12.390  0.3747 -0.0693  0.2200
 2157W        W22437  14.060   3.363  10.575  0.1796 -0.1316  0.5151
 2158W        W22438   9.417   7.701  11.755 -0.2713  0.0239 -0.1264
 2159W        W22439  17.885   3.551   3.666  0.0756 -0.0447  0.0707
 2160W        W22440   6.279   5.050   1.911  0.1628 -0.0636  0.2024
 2161W        W22441  17.268  12.377   1.028  0.2159 -0.0040 -0.0206
 2162W        W22442   0.359  17.271  12.886  0.2870 -0.1464 -0.0011
 2163W        W22443   7.279  13.648   2.816 -0.1993 -0.3040  0.4700
 2164W        W22444   8.520   1.103  12.436  0.2300  0.0547 -0.1700
 2165W        W22445  12.686   7.705  12.319  0.1154  0.3641 -0.1936
 2166W        W22446  18.451  19.222   3.550  0.0152 -0.2283 -0.0806
 2167W        W22447  14.984   7.872   1.954  0.0745  0.1945  0.1539
 2168W        W22448  13.610  10.958   1.796  0.0517 -0.0121  0.1902
 2169W        W22449   2.228  17.286   0.842  0.0909 -0.2607 -0.1194
 2170W        W22450  19.324   3.749   1.927  0.1851  0.0044  0.0016
 2171W        W22451   9.584  12.774  11.690 -0.0535  0.1461  0.0477
 2172W        W22452  14.913   3.698   2.601  0.0043  0.0229  0.1366
 2173W        W22453  10.952  10.361   1.243 -0.2862  0.1075 -0.1590
 2174W        W22454  18.945   1.341   2.032  0.1746  0.2650  0.2248
 2175W        W22455   5.175   9.551  10.700  0.2993 -0.2316 -0.1406
 2176W        W22456   8.124  14.027  11.566 -0.1333  0.0235  0.0585
 2177W        W22457  12.611   6.647  13.114  0.2303  0.1107  0.4056
 2178W        W22458   6.126  19.064   2.261  0.1412  0.1589  0.1357
 2179W        W22459  14.214  11.092  11.013  0.0391 -0.1167  0.2191
 2180W        W22460  14.780  17.003   3.567  0.1534 -0.0626 -0.0711
 2181W        W22461   6.959  16.531  13.980 -0.1197 -0.1093  0.2594
 2182W        W22462  12.489   4.982  11.547  0.0525 -0.3769  0.2672
 2183W        W22463  14.176  18.716   3.774 -0.1581 -0.1310 -0.1987
 2184W        W22464   2.225   6.337   3.818  0.0037 -0.1859  0.4253
 2185W        W22465  18.332  16.154  11.548 -0.0675  0.0792 -0.2447
 2186W        W22466   7.703  16.192  13.215 -0.0639 -0.1486  0.2708
 2187W        W22467   0.346  12.748   2.244  0.0676 -0.2463  0.0730
 2188W        W22468  13.547  15.541  11.633  0.0504 -0.1428  0.1675
 2189W        W22469  19.136   9.199  11.877 -0.1735 -0.3468 -0.0534
 2190W        W22470   5.368   2.478   2.006  0.1906 -0.0763  0.2410
 2191W        W22471  10.915   7.646  12.570 -0.0114  0.1298 -0.0391
 2192W        W22472  11.414   7.143  11.440 -0.2898  0.1614  0.0751
 2193W        W22473  11.508  19.389   3.583 -0.0971  0.0270  0.0107
 2194W        W22474   8.389   2.685   3.329 -0.1027 -0.1236  0.1183
 2195W        W22475  15.854   1.340  12.782  0.1212  0.2990 -0.1693
 2196W        W22476  13.987  17.399  11.888  0.1198 -0.0812  0.0967
 2197W        W22477  13.102   7.395  13.709 -0.0776 -0.4770  0.2079
 2198W        W22478   9.704  17.477  13.260 -0.1221  0.0891  0.2158
 2199W        W22479   0.601  18.524   5.343  0.0780  0.2407  0.0169
 2200W        W22480  13.814  15.883   1.924  0.3424  0.0070 -0.0341
 2201W        W22481  16.585  17.109   4.989  0.6320 -0.1093  0.2783
 2202W        W22482   8.080   3.599  10.013 -0.2427  0.1211 -0.0046
 2203W        W22483   8.416  13.402  10.489 -0.0870 -0.2361  0.3301
 2204W        W22484   7.225  17.835  13.074  0.1912 -0.2564  0.1435
 2205W        W22485  12.456   1.870  11.242  0.0421 -0.0684  0.1102
 2206W        W22486   1.895   3.950  12.074 -0.1212 -0.2244 -0.1350
 2207W        W22487  16.078   8.051  14.400  0.0817 -0.0613  0.1690
 2208W        W22488   0.065   2.586  13.670 -0.0114  0.0053  0.1033
 2209W        W22489  10.029  16.172   1.395  0.1578  0.3809 -0.1248
 2210W        W22490   5.958  11.257   2.423 -0.2386 -0.1644  0.0384
 2211W        W22491   8.590   6.569  10.624 -0.1366 -0.1215  0.0991
 2212W        W22492  11.761  13.172   0.891  0.0243 -0.0111  0.0564
 2213W        W22493   4.435  14.075   3.254  0.0379 -0.0383 -0.1003
 2214W        W22494   6.642  10.755   3.897  0.1737 -0.1913  0.1997
 2215W        W22495   9.522  18.920  13.704  0.0921  0.1289 -0.1440
 2216W        W22496  18.298   2.544   3.713  0.2170 -0.1260  0.0239
 2217W        W22497  17.032  18.294   1.249 -0.2156 -0.0312 -0.3016
 2218W        W22498   8.547   9.536   1.155 -0.0255 -0.0127 -0.1807
 2219W        W22499   4.630  15.973  13.691 -0.1713 -0.0871 -0.2241
 2220W        W22500   1.267  14.394  13.346 -0.2995 -0.1485  0.0275
 2221W        W22501  11.583  13.988   2.809  0.0200  0.2717 -0.2776
 2222W        W22502   1.457  12.929   1.607  0.1595  0.0306 -0.0652
 2223W        W22503   3.204  19.041  12.558 -0.0046  0.1609  0.2947
 2224W        W22504  13.444  15.979  14.055 -0.0302 -0.0288 -0.2765
 2225W        W22505  18.225  14.743   0.267  0.2063  0.2151  0.1119
 2226W        W22506   9.612  17.494  10.404  0.1104 -0.0480  0.1181
 2227W        W22507   3.079  12.914   1.150  0.2433 -0.1901 -0.1595
 2228W        W22508   9.405  18.317  11.367  0.1713 -0.0325 -0.1937
 2229W        W22509  18.370   3.602   2.705 -0.0016  0.0304 -0.1754
 2230W        W22510   3.233   0.288  10.258 -0.0607 -0.3045 -0.0548
 2231W        W22511   9.284  13.022  13.463 -0.2293 -0.0056  0.1549
 2232W        W22512   7.058   4.086   1.076 -0.3395  0.1615 -0.0875
 2233W        W22513   9.447  16.002  12.070 -0.0454 -0.0799  0.1067
 2234W        W22514  10.663  15.070   2.784  0.2377  0.0902 -0.1181
 2235W        W22515  18.093   5.183  10.934  0.1307  0.0731 -0.1951
 2236W        W22516   6.175   1.940   1.233  0.1866  0.1666  0.3538
 2237W        W22517  15.737  12.777  10.377 -0.1320 -0.1085 -0.1685
 2238W        W22518   5.220   2.346   1.097 -0.0221  0.1128 -0.4137
 2239W        W22519   5.604   4.445  13.675 -0.0199  0.0215  0.1275
 2240W        W22520   6.606  13.741  12.018  0.1098 -0.5709 -0.1447
 2241W        W22521  11.607  13.431  11.306 -0.0390 -0.1552  0.2314
 2242W        W22522   8.526  10.718   0.335  0.0516 -0.1373 -0.0320
 2243W        W22523   3.502  12.928  12.347  0.1624  0.2837 -0.0269
 2244W        W22524   5.951  13.750   3.514 -0.2835  0.1715 -0.0669
 2245W        W22525  14.602   9.907  10.223  0.0976 -0.0300 -0.0970
 2246W        W22526  12.574   8.872   1.731 -0.5231  0.2671 -0.2411
 2247W        W22527   1.127   0.661  13.584 -0.2899 -0.1821 -0.0340
 2248W        W22528   9.891   0.951   3.373  0.2177  0.1440 -0.1182
 2249W        W22529   2.173   6.802  12.723  0.2101 -0.3735 -0.0261
 2250W        W22530  10.115   2.542  13.816  0.2047 -0.0203 -0.1052
 2251W        W22531  14.937   9.764  11.340 -0.0096 -0.0986  0.1256
 2252W        W22532   5.057  10.321   3.148  0.4581  0.1594  0.1019
 2253W        W22533  10.820  15.288   3.702  0.1145  0.1803  0.2451
 2254W        W22534  16.099   6.238   0.953 -0.2598  0.3540 -0.0955
 2255W        W22535   6.849  10.396   2.333 -0.1159 -0.1184  0.2504
 2256W        W22536   3.913   0.812   0.810 -0.1186 -0.0236  0.3786
 2257W        W22537   9.344   6.747   1.833  0.1910  0.0894 -0.0479
 2258W        W22538  18.220   6.070   0.361  0.0447  0.1067 -0.0269
 2259W        W22539  12.447   3.675  13.759 -0.3352  0.1169  0.0963
 2260W        W22540  15.029  11.837   9.740 -0.1902 -0.0564 -0.0606
 2261W        W22541   0.584  17.852  12.305  0.1533 -0.0387  0.1023
 2262W        W22542  14.519   9.450  14.345 -0.0094  0.0313  0.0589
 2263W        W22543  16.260  13.146   2.650  0.0432 -0.0143  0.4062
 2264W        W22544   6.075   2.295  13.113 -0.0912  0.1597 -0.0569
 2265W        W22545  10.528  14.805   0.818  0.1830 -0.0170  0.2153
 2266W        W22546   7.944   9.136  14.086 -0.2158  0.4112 -0.0847
 2267W        W22547  10.194  14.245   3.831  0.0844 -0.2277 -0.0839
 2268W        W22548  12.957   9.651   0.744 -0.0734 -0.2705 -0.0170
 2269W        W22549   2.607   2.467  13.142 -0.2482  0.3129  0.1179
 2270W        W22550  18.028   3.202  12.704 -0.4263 -0.2594 -0.0751
 2271W        W22551  17.794  14.891  11.726  0.2068 -0.3931  0.1082
 2272W        W22552  17.442  16.760   1.850  0.2793  0.2530  0.1132
 2273W        W22553  17.927  12.039  12.924 -0.3445  0.2609  0.0582
 2274W        W22554   4.022   5.770   1.616 -0.0884  0.0889 -0.2500
 2275W        W22555  12.947   4.744  13.022  0.1083 -0.0717  0.1316
 2276W        W22556  15.834   2.647  11.127 -0.0645 -0.1514 -0.2091
 2277W        W22557   1.600   4.872   0.332  0.2523  0.2874 -0.0720
 2278W        W22558   2.641  14.562   2.661 -0.0200 -0.0191  0.0291
 2279W        W22559  14.220   2.927  12.404 -0.0490  0.0684  0.2954
 2280W        W22560  11.142  12.499  13.802  0.0682 -0.3244 -0.0141
 2281W        W22561   0.545   9.099  14.007 -0.1192  0.0313 -0.0677
 2282W        W22562  11.844  17.648  11.372 -0.1615 -0.1818  0.0647
 2283W        W22563  12.915   3.802  12.600 -0.0287  0.0017 -0.4222
 2284W        W22564  15.693  15.773  13.767  0.1184  0.2549  0.1190
 2285W        W22565  17.020   6.287   2.791 -0.0923 -0.0281 -0.2056
 2286W        W22566   9.104   9.125  10.524  0.2312  0.1231  0.4275
 2287W        W22567   9.174  14.440   2.846  0.0460  0.0852  0.2229
 2288W        W22568   8.773   8.292  12.329  0.0881  0.1762  0.1461
 2289W        W22569   6.185  15.393   1.280  0.0729 -0.3988 -0.0577
 2290W        W22570   7.501  12.236   1.151 -0.0807 -0.1476  0.2413
 2291W        W22571   0.117   4.276  11.694  0.1091 -0.0781  0.1915
 2292W        W22572   0.942  12.766  14.150  0.0218 -0.3409  0.2816
 2293W        W22573   9.397  17.563  13.669  0.0553 -0.2466  0.1313
 2294W        W22574  12.715   6.335   2.443 -0.1970  0.0312  0.3225
 2295W        W22575  11.136  15.896   2.271  0.0134 -0.0710  0.1070
 2296W        W22576  12.223  11.396   4.672 -0.0160  0.1388 -0.1448
 2297W        W22577   9.599   8.165  12.938  0.0627 -0.0559 -0.1893
 2298W        W22578   2.575   7.049   0.673  0.3312 -0.0467  0.1787
 2299W        W22579  11.927  10.431   1.030 -0.0168  0.1505 -0.0384
 2300W        W22580  16.300  16.076  11.561 -0.0452 -0.2339 -0.1201
 2301W        W22581  14.628   0.535   2.297 -0.1167 -0.0892  0.3005
 2302W        W22582   8.105   4.282   4.609 -0.2058 -0.0650 -0.1237
 2303W        W22583   9.870  14.720   4.536  0.0340  0.1404  0.1439
 2304W        W22584   1.654   5.585   2.796 -0.3988  0.3733 -0.1762
 2305W        W22585  16.783   2.088  12.467  0.0219  0.0712  0.0854
 2306W        W22586  16.697   0.382  11.831 -0.2200  0.2066  0.2566
 2307W        W22587   8.412  14.656   3.219 -0.0455 -0.0589 -0.1120
 2308W        W22588  10.211   7.997   0.219  0.0101  0.0056 -0.1490
 2309W        W22589  14.082  18.650   3.315  0.1657  0.3076  0.0248
 2310W        W22590  15.644  10.762   2.369 -0.2336 -0.1403  0.2975
 2311W        W22591   7.740   1.320  13.284  0.0712 -0.1261  0.1668
 2312W        W22592   8.508   4.770   1.933  0.1152 -0.0529 -0.2023
 2313W        W22593  16.306  10.288  11.947 -0.0811 -0.2181 -0.1086
 2314W        W22594   9.193  10.567  13.986 -0.2035 -0.1146 -0.0875
 2315W        W22595   7.446  16.858   0.787 -0.3084  0.1992 -0.0726
 2316W        W22596  11.707  18.605  14.391  0.0186  0.0813  0.3577
 2317W        W22597  10.897   3.430  11.768  0.4138 -0.2149 -0.0241
 2318W        W22598   9.436  12.917  14.446  0.2014  0.2362  0.3194
 2319W        W22599  17.206   6.310  13.761 -0.2677 -0.0066 -0.2960
 2320W        W22600   9.156  18.182   4.070  0.0816 -0.1312  0.1621
 2321W        W22601   2.199  17.752   1.681  0.0942 -0.0878  0.0456
 2322W        W22602   4.963   4.731   3.584 -0.1967 -0.1872  0.0585
 2323W        W22603   0.644   3.231  10.350  0.0560  0.2409 -0.0879
 2324W        W22604  13.505  18.106   2.301  0.0366  0.0139  0.2354
 2325W        W22605   5.675  12.649   2.636  0.0035  0.0609  0.3632
 2326W        W22606  16.934  13.891   1.218 -0.1064  0.1265  0.0007
 2327W        W22607   3.928   4.099  13.049  0.0588 -0.0797 -0.0545
 2328W        W22608  19.380   6.755  11.577 -0.2991  0.2269  0.0481
 2329W        W22609  10.865   7.095   2.609 -0.2208 -0.2064  0.3556
 2330W        W22610  13.480   1.327   2.593 -0.2316  0.1789  0.0889
 2331W        W22611  15.225  18.195  11.985 -0.2311  0.2277 -0.0292
 2332W        W22612  18.271   9.274  13.554  0.1814 -0.0029 -0.1035
 2333W        W22613   9.979  11.859   1.631 -0.1268 -0.2331 -0.0835
 2334W        W22614   3.448  11.830  10.663  0.0604 -0.0271  0.0482
 2335W        W22615   8.094   0.112  14.343  0.4363 -0.3584 -0.1542
 2336W        W22616   5.915  15.789  13.463 -0.1012 -0.0257  0.0126
 2337W        W22617  17.669   4.934   3.579  0.1267 -0.3132  0.2053
 2338W        W22618   7.648  14.144  14.216  0.0516  0.4487  0.1903
 2339W        W22619   8.179  14.010  12.064 -0.3535  0.1170  0.1669
 2340W        W22620  19.366  12.198   1.174  0.2594  0.0133  0.1356
 2341W        W22621  17.038  12.387  11.095  0.1067  0.0427  0.3938
 2342W        W22622  12.356  14.356   3.269  0.1043 -0.2028 -0.1001
 2343W        W22623  12.341   8.943  13.628 -0.0077 -0.2782  0.1751
 2344W        W22624   4.904  16.445   3.814  0.2289 -0.0177  0.1683
 2345W        W22625   3.397  17.132   2.900  0.0233 -0.2172 -0.0582
 2346W        W22626  16.089  16.511  13.501  0.0609  0.0563 -0.0101
 2347W        W22627   0.011   0.008  14.454  0.1229  0.1144  0.0382
 2348W        W22628   3.975   4.499  12.743  0.0567  0.1457  0.0813
 2349W        W22629   0.103   9.823   2.412 -0.0031  0.0251  0.1028
 2350W        W22630   4.223   9.114  10.469 -0.0401 -0.2748 -0.1794
 2351W        W22631  10.614   3.980   0.301  0.0045 -0.0806  0.0064
 2352W        W22632  12.306   9.065   0.746  0.0494 -0.0041 -0.0226
 2353W        W22633   5.852   7.277  13.581  0.2206 -0.2363  0.1324
 2354W        W22634   0.946  16.757  13.428 -0.1780  0.0897 -0.0242
 2355W        W22635   7.977   9.834  12.505 -0.3652  0.1209  0.0566
 2356W        W22636  17.313  14.589   3.960 -0.2476 -0.2125 -0.1333
 2357W        W22637   7.619  19.423  14.114  0.0702 -0.2457 -0.3849
 2358W        W22638  11.979  11.111   3.902  0.2572  0.0049 -0.0135
 2359W        W22639   2.335   5.461  11.360 -0.1172  0.3091  0.1932
 2360W        W22640  18.370   8.674   3.615 -0.0564 -0.1992 -0.1576
 2361W        W22641   4.180  19.361  10.883  0.1990  0.2740  0.1480
 2362W        W22642  12.288   9.324  13.316 -0.0956 -0.2329  0.3250
 2363W        W22643   6.045  14.090  11.509 -0.3723 -0.1950 -0.1491
 2364W        W22644   8.848   7.488   4.508  0.0141 -0.2045  0.0085
 2365W        W22645   7.961  10.078  11.818  0.1160 -0.3733  0.0795
 2366W        W22646  10.378  13.800  11.312  0.4524 -0.0154 -0.3218
 2367W        W22647   1.115   3.222  11.956 -0.1509 -0.5412  0.3213
 2368W        W22648   6.165   8.233   3.919 -0.0131  0.0139 -0.3151
 2369W        W22649  13.576   0.699  13.631  0.2234  0.1836 -0.0564
 2370W        W22650   3.933  15.981   3.004 -0.1352 -0.0500  0.0356
 2371W        W22651  13.650  17.234  11.498 -0.0695 -0.0524 -0.2376
 2372W        W22652  11.352  13.477  12.109 -0.0512  0.1045 -0.3019
 2373W        W22653   7.340   8.637  12.005  0.0863 -0.2082  0.1453
 2374W        W22654   1.848   0.490   1.867  0.0647 -0.1619  0.3738
 2375W        W22655  10.041  17.725   4.967  0.0530 -0.2544  0.0270
 2376W        W22656   2.376   5.876   1.463 -0.2834 -0.1518  0.3865
 2377W        W22657  11.172   2.135  13.721  0.2514 -0.2555 -0.0500
 2378W        W22658   9.419  15.656  12.790 -0.4267  0.1016  0.4305
 2379W        W22659  10.330   3.538   1.608 -0.0751  0.1457 -0.3777
 2380W        W22660   3.464  16.447  12.468  0.0684 -0.0343 -0.0290
 2381W        W22661  12.940   7.824   2.186  0.1390  0.3097  0.2204
 2382W        W22662  17.198   7.909  14.443 -0.1172  0.3165  0.1615
 2383W        W22663   8.503   4.440   2.357  0.1057  0.0528 -0.0767
 2384W        W22664   8.744   9.196  13.969  0.1670  0.2754  0.0524
 2385W        W22665  17.786   2.011   0.270 -0.0140 -0.1007  0.0344
 2386W        W22666  19.334  15.290  12.101  0.0349 -0.0006 -0.0544
 2387W        W22667   1.235  11.014  13.349  0.0816  0.0683 -0.0894
 2388W        W22668   9.645  14.292  10.867 -0.1686 -0.0420  0.0333
 2389W        W22669  17.188  11.613   2.996 -0.1866 -0.2396 -0.0147
 2390W        W22670  15.914   3.110  11.793 -0.2950 -0.0474 -0.2672
 2391W        W22671  17.963   9.911   2.019  0.1063 -0.4462 -0.0588
 2392W        W22672  11.308  18.496   1.999  0.1189 -0.3108  0.0118
 2393W        W22673  12.724  11.396   0.191  0.1612  0.2106 -0.2412
 2394W        W22674  10.876   0.381   3.177  0.0439 -0.1551  0.1089
 2395W        W22675  13.876   1.252   4.905  0.2704 -0.4622 -0.0650
 2396W        W22676  10.942   6.025   3.627 -0.2001 -0.1822  0.3786
 2397W        W22677   5.592  19.063   2.405  0.0748 -0.0184 -0.0134
 2398W        W22678   8.644   1.172   2.647  0.4699 -0.0546 -0.1360
 2399W        W22679   0.179   9.125   2.402  0.2900 -0.0573 -0.4857
 2400W        W22680   4.008  11.935  13.657  0.1366 -0.0005  0.3592
 2401W        W22681   3.019   2.758  13.256 -0.2202 -0.0837 -0.0215
 2402W        W22682   0.205   9.218   1.346 -0.1019 -0.0648 -0.2029
 2403W        W22683   4.641  15.102   1.589  0.1860  0.2725  0.2390
 2404W        W22684   3.824   2.002   1.867 -0.1152 -0.3127 -0.1544
 2405W        W22685   9.687  14.360   2.950  0.0648 -0.4245 -0.1628
 2406W        W22686   7.932  15.636  14.290 -0.3120 -0.0080  0.3323
 2407W        W22687   6.975  16.200   0.484 -0.1025  0.0668  0.0437
 2408W        W22688  16.239  14.779   1.499  0.2237  0.0240 -0.0066
 2409W        W22689   6.983  10.467   3.700 -0.0670  0.0931  0.1530
 2410W        W22690   4.650   8.840   0.570 -0.0431  0.0342  0.2578
 2411W        W22691   3.527  16.690   0.375 -0.0352 -0.0007  0.0223
 2412W        W22692   7.555  17.407   2.616  0.0901 -0.0575  0.2213
 2413W        W22693   2.908  13.310   2.258 -0.0176  0.0931  0.3821
 2414W        W22694   1.314   8.918   0.883 -0.1565  0.0357  0.0323
 2415W        W22695   1.958   1.730  11.753 -0.1105 -0.1390 -0.0578
 2416W        W22696  11.110   8.667   1.311 -0.2505  0.0068 -0.4100
 2417W        W22697   3.573  16.059   3.874 -0.1545 -0.2415  0.1888
 2418W        W22698  12.428   0.551   3.707 -0.1069 -0.1600  0.1571
 2419W        W22699   8.942   8.888   1.818  0.1119  0.0486  0.1416
 2420W        W22700  13.842   2.733  13.333 -0.2961 -0.3755  0.0565
 2421W        W22701   4.965   0.438   3.564 -0.1125 -0.3596  0.1413
 2422W        W22702  15.391  17.945  11.098 -0.3158  0.0574 -0.0662
 2423W        W22703   7.438   3.479  11.451 -0.0210  0.0863 -0.0440
 2424W        W22704   8.982   6.486   1.184  0.0307  0.2174 -0.2420
 2425W        W22705  17.208   6.388  11.408  0.1174 -0.2220  0.1301
 2426W        W22706   5.565   9.849   2.033 -0.1676  0.1526 -0.0130
 2427W        W22707  10.684  17.945  12.908  0.0931 -0.1066  0.3734
 2428W        W22708  13.787  13.629   3.598 -0.2726 -0.1641  0.0740
 2429W        W22709   3.055  16.896  13.595 -0.2175 -0.0164  0.4095
 2430W        W22710   2.120   8.151  14.034  0.2837 -0.0051 -0.0296
 2431W        W22711  18.528   1.807   4.259  0.2098 -0.2390  0.0798
 2432W        W22712   8.590   3.648  14.367  0.0041  0.5064  0.2490
 2433W        W22713   9.816  14.563   5.115  0.0841 -0.0947  0.4021
 2434W        W22714   0.577  11.405  14.345 -0.0798  0.3205  0.0466
 2435W        W22715   1.672  17.080   3.636  0.0063 -0.1907 -0.1818
 2436W        W22716   7.948   1.458   3.607 -0.5475 -0.3082  0.2904
 2437W        W22717   2.512  10.204   2.374 -0.2732 -0.2854 -0.1523
 2438W        W22718   2.019  18.393  14.067 -0.1754 -0.3643 -0.1263
 2439W        W22719   0.365   0.095   1.541  0.0934 -0.0622 -0.0570
 2440W        W22720  17.995  14.068   9.412 -0.1260  0.0917  0.0893
 2441W        W22721   2.437  11.253  11.956 -0.4507  0.1437  0.0263
 2442W        W22722  16.277   4.431  14.271  0.4099 -0.1153  0.1115
 2443W        W22723   5.782   2.816   0.971 -0.0261  0.1775  0.1606
 2444W        W22724   3.534  19.145   0.113 -0.0851  0.2281  0.2038
 2445W        W22725   4.025  14.759  12.803  0.2447  0.0933 -0.2010
 2446W        W22726  11.679   0.275   2.781  0.1238  0.0535 -0.0070
 2447W        W22727  14.271   2.949   2.316  0.0942 -0.0942 -0.1324
 2448W        W22728  17.246   6.713  13.406  0.1805  0.4976 -0.1144
 2449W        W22729  18.779   8.793  11.644 -0.1396  0.1179  0.0004
 2450W        W22730   1.745  17.063   1.868  0.1247 -0.0319  0.2779
 2451W        W22731   7.833   1.929   3.246 -0.0574  0.1874  0.1214
 2452W        W22732   5.715  10.308  11.830 -0.0339 -0.1985 -0.1436
 2453W        W22733   3.951  11.267   0.791  0.0014  0.0634  0.1749
 2454W        W22734   4.425   3.319   3.838  0.0952  0.1352  0.1836
 2455W        W22735  10.271  10.556   0.054 -0.2966 -0.1726  0.1196
 2456W        W22736  12.249  18.773   0.713  0.0110  0.2281 -0.2729
 2457W        W22737  10.901   6.145   0.403  0.0489  0.1677 -0.0646
 2458W        W22738   0.041   5.335  12.067 -0.1125  0.2533 -0.1025
 2459W        W22739  13.296   5.789  11.109  0.0596  0.0503  0.1292
 2460W        W22740  12.680   8.529   3.377 -0.5193 -0.3298 -0.0267
 2461W        W22741   2.055  15.822  10.050  0.1308  0.1753  0.2049
 2462W        W22742   1.793  16.228  12.889  0.3670 -0.0859 -0.1304
 2463W        W22743   1.013   7.697   2.299  0.0375  0.1240 -0.1577
 2464W        W22744  17.724   5.965  12.473  0.0440 -0.1256  0.3223
 2465W        W22745   0.354   7.951   2.251 -0.0136 -0.0926  0.2159
 2466W        W22746  10.907  12.757   2.275 -0.1594  0.1062  0.0214
 2467W        W22747   9.102   6.684   3.990  0.3392 -0.0235 -0.2531
 2468W        W22748  11.252  14.594   1.529 -0.1549  0.1089 -0.0364
 2469W        W22749  10.504   3.759  13.063  0.2258  0.0116  0.1645
 2470W        W22750  12.179  15.208   0.365 -0.0909  0.2230 -0.0607
 2471W        W22751   9.785  10.148   0.920  0.0551  0.1098 -0.3867
 2472W        W22752  15.139   8.715   2.992 -0.4244  0.0171  0.2843
 2473W        W22753  11.657  15.831   0.036  0.1279  0.0247  0.0403
 2474W        W22754   2.853   1.846   3.584 -0.0541 -0.1924 -0.1878
 2475W        W22755  14.397   3.768   2.563  0.4612 -0.1520  0.2226
 2476W        W22756   1.894  14.166   1.316 -0.1316  0.1709 -0.0152
 2477W        W22757  13.901  11.018  12.501  0.2476 -0.0756  0.1261
 2478W        W22758   8.053  15.366   0.664  0.0322 -0.1577  0.2337
 2479W        W22759   1.208  15.503  12.773 -0.1370 -0.1199  0.0570
 2480W        W22760  17.024  12.910   4.530  0.0512 -0.0672  0.0261
 2481W        W22761   9.874   4.457   1.851  0.2048 -0.4589  0.1632
 2482W        W22762   4.964  14.139   3.408 -0.0265  0.2772 -0.0954
 2483W        W22763   8.290  15.831  11.241  0.0265 -0.2382  0.0008
 2484W        W22764  10.336   0.486   9.908  0.1173  0.0134 -0.2787
 2485W        W22765  18.409   9.460   3.312  0.1558  0.1595 -0.0566
 2486W        W22766  14.368   1.415   1.983  0.0383  0.0238 -0.2234
 2487W        W22767  13.227   8.160   1.405  0.0255 -0.0769  0.2947
 2488W        W22768  11.446  11.793  13.543  0.1632  0.2863  0.1672
 2489W        W22769   9.094   9.518  13.749  0.0154 -0.0184  0.1816
 2490W        W22770  12.092   9.497  12.771  0.1397  0.1014 -0.0078
 2491W        W22771  12.707   5.363  14.469  0.2595  0.3391  0.0477
 2492W        W22772   8.274  12.296  11.966  0.3198  0.0769  0.1063
 2493W        W22773  13.489   9.714   0.496  0.3355  0.1217  0.5691
 2494W        W22774   1.515  13.760   2.053  0.0396 -0.1329 -0.2782
 2495W        W22775  18.203  12.165  12.428 -0.1144  0.0372  0.0624
 2496W        W22776  15.291   6.142   3.196  0.2047  0.1074  0.1075
 2497W        W22777  17.323   9.025  11.560 -0.0248  0.2884 -0.2120
 2498W        W22778  13.676   4.150  11.126 -0.1324  0.0288  0.1134
 2499W        W22779  17.876  18.318  11.679  0.0792  0.1152  0.3012
 2500W        W22780   4.751   1.208   4.223 -0.0256  0.1194 -0.1585
 2501W        W22781   0.265   8.942  11.260  0.2364  0.1213 -0.1919
 2502W        W22782  16.482   8.309   2.532 -0.0592 -0.2229 -0.2361
 2503W        W22783   9.450   2.511   0.361  0.0923  0.0992 -0.0891
 2504W        W22784   1.741   5.196   9.854  0.1472 -0.0790  0.0047
 2505W        W22785   9.317   7.364   1.406  0.0511 -0.2951  0.1892
 2506W        W22786   2.536  10.083   1.878 -0.2453 -0.3585  0.0337
 2507W        W22787  12.672  15.683   0.579  0.4117  0.0754  0.1073
 2508W        W22788  13.734  10.367  13.060 -0.2007 -0.3101 -0.0037
 2509W        W22789  14.336   0.945  12.076 -0.1401  0.0648 -0.0954
 2510W        W22790   4.773  19.414   3.405  0.3490  0.2192  0.0512
 2511W        W22791   2.300  19.298  11.461  0.0213  0.0174 -0.0224
 2512W        W22792  13.573  12.330   2.069  0.0067  0.1115 -0.0481
 2513W        W22793   1.491  19.230   2.647 -0.2452 -0.0490  0.2434
 2514W        W22794  12.238   4.524  11.539  0.1679  0.1083  0.1739
 2515W        W22795  12.959   7.871  14.053  0.1034 -0.1959  0.2715
 2516W        W22796  13.890  15.071   0.883 -0.0349  0.0001 -0.0353
 2517W        W22797  15.835  11.775   3.930 -0.2979 -0.0153 -0.1299
 2518W        W22798  14.298  14.826   3.159 -0.0640  0.1060 -0.1952
 2519W        W22799   9.308  14.077   4.080  0.1998  0.3375 -0.2232
 2520W        W22800  18.863   5.546   3.130 -0.3952 -0.0798  0.0525
 2521W        W22801  14.770  11.940  11.731  0.1821 -0.1086 -0.0897
 2522W        W22802  15.184  12.507   2.515  0.0509 -0.0893  0.1860
 2523W        W22803  14.046  11.673  10.840  0.0122  0.1833 -0.1050
 2524W        W22804  17.148   1.635   1.821 -0.0274 -0.0508  0.1996
 2525W        W22805  17.848   4.898   1.177  0.0201 -0.1207 -0.0489
 2526W        W22806   6.334  16.438  12.279  0.0309  0.0323 -0.2705
 2527W        W22807   8.600   2.239   2.463 -0.1216 -0.2326 -0.0052
 2528W        W22808   2.390   4.882  11.240  0.0739  0.0217  0.2710
 2529W        W22809   5.613   0.407   3.404 -0.0261  0.2631  0.1485
 2530W        W22810   6.860   2.156   0.705 -0.1728 -0.2031 -0.0466
 2531W        W22811  18.123   9.059  12.089  0.2434 -0.0584  0.1342
 2532W        W22812   0.183   3.378  13.440  0.0740  0.1061 -0.1311
 2533W        W22813   4.487  16.815  13.300  0.0775 -0.0051  0.1413
 2534W        W22814   7.316  13.461   4.013  0.0018 -0.2731  0.1485
 2535W        W22815   9.758  19.053  11.453 -0.0074  0.1659  0.3876
 2536W        W22816   4.508  10.373   2.498 -0.0707  0.3659  0.3255
 2537W        W22817   4.977   4.091  11.204 -0.1815 -0.1679 -0.0090
 2538W        W22818  17.344  16.313  14.029 -0.1321 -0.1504 -0.0302
 2539W        W22819  17.278  14.847  13.699 -0.0409  0.0200  0.0361
 2540W        W22820   1.053  12.857  11.330 -0.1588  0.0115 -0.2358
 2541W        W22821   7.280  14.732   0.597  0.0893 -0.0452 -0.0918
 2542W        W22822  12.163   9.867   3.351 -0.3302  0.1521  0.3950
 2543W        W22823   9.333   0.575   1.130  0.2297  0.0211  0.0807
 2544W        W22824  10.582  19.119  13.661  0.1358  0.1620 -0.3733
 2545W        W22825   7.734   9.462  13.780  0.2317 -0.1654 -0.2021
 2546W        W22826  11.723   3.603   2.435  0.1680 -0.1690 -0.2746
 2547W        W22827  17.777   8.245   0.771 -0.0335  0.1995 -0.1589
 2548W        W22828   9.794   1.922   5.313  0.1754  0.1846 -0.1214
 2549W        W22829   0.571   6.276  11.906 -0.2036 -0.1543 -0.2506
 2550W        W22830   5.785   7.810  13.366  0.2477 -0.2660  0.3065
 2551W        W22831  12.542   9.433   0.484  0.1374  0.4181  0.2990
 2552W        W22832   0.957  19.320   3.562 -0.0875  0.1313  0.2870
 2553W        W22833  13.052   3.868   2.642  0.1349 -0.0852  0.0895
 2554W        W22834   7.990  11.478  14.342  0.1086 -0.0979  0.1207
 2555W        W22835   6.589   8.625   3.910 -0.1197 -0.0627 -0.1701
 2556W        W22836  12.112   0.363  12.800  0.3265 -0.1334 -0.0766
 2557W        W22837   4.373   4.020  14.389 -0.0300 -0.3414  0.1038
 2558W        W22838  11.627   5.035   3.504  0.0648  0.1703  0.1564
 2559W        W22839   0.897   8.887  12.980 -0.1042  0.0683  0.0211
 2560W        W22840  12.999   9.900   3.530 -0.0637  0.1470  0.1124
 2561W        W22841   0.287   0.777  12.261 -0.1482  0.0625  0.0254
 2562W        W22842  18.891   3.162  12.701 -0.2202  0.2235 -0.2147
 2563W        W22843  14.740  17.473   3.435 -0.0594 -0.1716  0.1690
 2564W        W22844   4.425  17.400   3.473 -0.1151  0.4205 -0.0330
 2565W        W22845  13.593  18.213   1.036  0.0789 -0.2337 -0.0020
 2566W        W22846  15.733   1.884  13.931 -0.0132 -0.0534 -0.0811
 2567W        W22847  17.893  15.366  11.430 -0.3249  0.3587 -0.1858
 2568W        W22848  17.436  11.292  10.332  0.0482  0.1913  0.0188
 2569W        W22849   7.241  17.687   0.633 -0.1763 -0.0253 -0.0243
 2570W        W22850   3.025   5.044  11.125 -0.2187 -0.0037  0.0761
 2571W        W22851   2.263   6.137  12.020 -0.0420 -0.2080 -0.0634
 2572W        W22852   7.082   9.047   2.466 -0.0381 -0.2137  0.1003
 2573W        W22853   9.253  17.528  10.764  0.3866 -0.1448 -0.0593
 2574W        W22854  19.004  14.664  11.362 -0.1060 -0.1669  0.0049
 2575W        W22855  11.889   9.469  11.212 -0.1900 -0.2837  0.0652
 2576W        W22856   0.193   5.032   3.123 -0.1498 -0.2499  0.0032
 2577W        W22857  10.460   6.994   0.537 -0.1758  0.0314 -0.0836
 2578W        W22858   7.098   4.256  10.414 -0.0552 -0.0432 -0.2208
 2579W        W22859  17.033  15.607   1.913  0.2098  0.0610 -0.0798
 2580W        W22860  15.116   7.316   1.297 -0.2412  0.1435  0.0962
 2581W        W22861   3.259  19.420  11.631  0.4267  0.0783 -0.1471
 2582W        W22862  18.860  12.858   4.084  0.1677 -0.6984 -0.1247
 2583W        W22863  11.501   8.547  10.434  0.0978  0.1512  0.0308
 2584W        W22864   4.693   0.655  11.785  0.2171  0.1514  0.4142
 2585W        W22865  11.300  14.375  12.106 -0.0731 -0.1181 -0.0917
 2586W        W22866  16.087   1.062   3.605 -0.1321  0.0847  0.0126
 2587W        W22867   8.157  10.925  13.892 -0.1074 -0.2661 -0.0916
 2588W        W22868   0.247  18.897  11.295 -0.3647  0.2610  0.3978
 2589W        W22869   3.528   7.503   0.837 -0.1802 -0.1233 -0.1935
 2590W        W22870  16.215  16.502  12.369  0.0714 -0.1311 -0.3424
 2591W        W22871  15.884   5.082   3.560 -0.1765 -0.0363  0.0430
 2592W        W22872  19.054   1.971   3.328  0.1770  0.0306 -0.1741
 2593W        W22873   9.085  14.041   1.557 -0.2361 -0.2113 -0.2761
 2594W        W22874  14.708   2.371  13.735  0.1085  0.1464  0.2326
 2595W        W22875  18.186  16.060  12.065 -0.0899  0.0318 -0.2145
 2596W        W22876  15.677   4.427  13.583 -0.0151 -0.1268 -0.0597
 2597W        W22877  19.377  13.217   9.269 -0.0920  0.0036  0.0997
 2598W        W22878   2.775  15.381  10.398 -0.1086  0.1624 -0.0846
 2599W        W22879  12.651  16.506   1.083 -0.2464  0.0064 -0.0189
 2600W        W22880  10.697   0.129  11.286 -0.3555 -0.0925  0.0838
 2601W        W22881   9.091   1.177   2.389  0.1040 -0.1441 -0.4122
 2602W        W22882   2.069   6.788  11.761  0.0798 -0.1116 -0.2481
 2603W        W22883   8.256   1.099   4.018  0.0348 -0.0146  0.0298
 2604W        W22884  19.054   6.163  12.183 -0.2024 -0.2713  0.3548
 2605W        W22885   9.992   6.608   0.718  0.0734 -0.3554  0.0472
 2606W        W22886   1.984  15.637   3.045 -0.0188  0.1446 -0.2245
 2607W        W22887   7.011   8.526  12.826 -0.0202  0.1530  0.1996
 2608W        W22888   0.396  10.170   0.589  0.1946 -0.1179  0.0245
 2609W        W22889  17.117  14.251   0.050 -0.1226  0.0716  0.1337
 2610W        W22890  14.371  10.578   2.009  0.0047 -0.4731  0.1531
 2611W        W22891  17.560   4.399   5.263 -0.2160 -0.2335 -0.1526
 2612W        W22892  11.415  10.314  13.803  0.0015 -0.2750 -0.2278
 2613W        W22893   2.885   0.802  10.809 -0.1542 -0.1418  0.0933
 2614W        W22894   6.350   3.202   1.385 -0.2362  0.1682  0.0263
 2615W        W22895  11.633  13.227   9.744 -0.0897 -0.2145 -0.2162
 2616W        W22896   1.270   8.286  12.549  0.1768  0.0213 -0.0123
 2617W        W22897  16.034  13.691  14.056 -0.1539 -0.0195 -0.2734
 2618W        W22898   0.303  12.394   1.910  0.0153  0.1276 -0.1410
 2619W        W22899   9.810  11.127   1.048 -0.2646 -0.2196  0.1694
 2620W        W22900   4.469   3.498   1.329  0.1123 -0.1247 -0.0404
 2621W        W22901   0.452   6.779   9.739  0.4004 -0.1770  0.0964
 2622W        W22902  13.718   3.101   3.392 -0.1380 -0.0336  0.3265
 2623W        W22903   8.654   4.392  13.823 -0.0408 -0.0902 -0.1863
 2624W        W22904   3.185   1.328  11.506  0.0478 -0.2371  0.1471
 2625W        W22905   9.268   6.097   3.080 -0.1271  0.2517 -0.2562
 2626W        W22906  17.953   5.136   1.615 -0.5414 -0.1561 -0.0216
 2627W        W22907  10.432   0.402   2.798  0.1557  0.2163  0.0658
 2628W        W22908   6.862  12.823  12.629 -0.0837 -0.1187  0.0337
 2629W        W22909   3.759   1.821   2.325 -0.2093 -0.0598 -0.0291
 2630W        W22910   6.924  13.496   0.014  0.2333  0.1020 -0.0764
 2631W        W22911   2.187   0.781   1.577 -0.1803  0.2906 -0.2525
 2632W        W22912   0.598   2.982  14.146 -0.1237  0.1198 -0.2345
 2633W        W22913   2.036  18.504   3.718 -0.0973 -0.1792  0.4642
 2634W        W22914   7.879  16.997   2.555  0.0402 -0.1330  0.0337
 2635W        W22915  15.564   0.903   3.478  0.0498  0.2773 -0.1310
 2636W        W22916  13.577   7.235  14.477 -0.1504  0.0164  0.1508
 2637W        W22917  10.519   7.379   1.482  0.1458  0.1586  0.3855
 2638W        W22918  18.952  13.183  12.494 -0.0588  0.2249  0.1888
 2639W        W22919  16.450  15.257  13.932  0.2168  0.1965 -0.1804
 2640W        W22920  12.048   7.869  13.128 -0.0274  0.0579 -0.0980
 2641W        W22921  12.139  11.560   3.142  0.1905 -0.2460  0.0342
 2642W        W22922  16.763   8.001   1.779  0.0412 -0.1360 -0.0466
 2643W        W22923   6.214   6.401  12.255 -0.0807  0.0224  0.0798
 2644W        W22924  17.805  17.407  13.558 -0.2104 -0.1967 -0.2716
 2645W        W22925  16.833   3.378   2.154  0.0673  0.4419 -0.1289
 2646W        W22926  18.523  11.119  11.858 -0.1939  0.0078 -0.3168
 2647W        W22927   6.385   5.740  11.625  0.1569  0.0328  0.0980
 2648W        W22928  11.965   6.687  12.185 -0.1052  0.0538 -0.3478
 2649W        W22929   9.097   7.943   0.696 -0.0565 -0.0056 -0.1544
 2650W        W22930  15.811  10.323  13.944  0.2193  0.1743 -0.1564
 2651W        W22931  17.106   5.844  12.779 -0.1044 -0.0064 -0.0215
 2652W        W22932  12.387   2.524   1.067  0.2896 -0.2681  0.4395
 2653W        W22933   5.037   9.984  13.453  0.1200 -0.0214 -0.4217
 2654W        W22934   2.649   9.897  13.224  0.1701 -0.3094  0.0562
 2655W        W22935   2.359   2.192   2.788 -0.1026 -0.0532  0.1364
 2656W        W22936  11.402   8.165  10.814  0.2631  0.0804 -0.0446
 2657W        W22937  17.337   0.865   4.432 -0.2132  0.0397  0.3940
 2658W        W22938   8.297   3.705  11.156 -0.0639 -0.1648  0.0762
 2659W        W22939   6.677  17.894   1.859 -0.0761  0.1886 -0.0049
 2660W        W22940   3.003   4.289   0.084 -0.0954 -0.1210  0.0581
 2661W        W22941   4.491  13.376   2.153  0.0357 -0.0023  0.0533
 2662W        W22942  11.297  10.820   0.803 -0.0206  0.1554  0.1180
 2663W        W22943   0.674   2.996   1.227 -0.0495 -0.2453  0.0521
 2664W        W22944   7.766   5.528  13.903 -0.0038  0.2216  0.1817
 2665W        W22945   0.316  10.836   2.358 -0.4706 -0.3548 -0.1879
 2666W        W22946  17.041   0.005   3.204  0.0451 -0.3077 -0.0064
 2667W        W22947  14.308   8.115  10.267 -0.2315  0.2220 -0.2780
 2668W        W22948  18.608   2.981   9.495  0.1634 -0.1280  0.1834
 2669W        W22949   9.882  18.251  13.411 -0.0665  0.1528  0.2717
 2670W        W22950   6.329   9.631   3.858 -0.2693 -0.0969 -0.0971
 2671W        W22951   7.018  18.158   2.601 -0.0532  0.3042  0.0688
 2672W        W22952   8.918  13.300  10.425 -0.2428  0.2829 -0.0871
 2673W        W22953   3.774  18.112   3.459  0.0838 -0.0929  0.0324
 2674W        W22954  17.300  10.965   3.605  0.2486 -0.0489  0.0755
 2675W        W22955  17.021  11.201  10.990  0.1057 -0.1414 -0.1423
 2676W        W22956  18.909   5.329   9.902  0.0217 -0.1354 -0.0296
 2677W        W22957   3.791   0.288   0.201 -0.2406  0.0387  0.1274
 2678W        W22958  12.585   9.363   1.099  0.0609  0.1477 -0.1291
 2679W        W22959   4.222   4.935   3.180 -0.1140 -0.0830 -0.2727
 2680W        W22960   2.176   9.188   2.845 -0.1863  0.2328  0.0392
 2681W        W22961  18.960  18.917  12.293 -0.0141  0.1558 -0.0056
 2682W        W22962  14.317   7.668   4.579  0.1650 -0.3630  0.0290
 2683W        W22963  11.329   5.360  11.897 -0.2140  0.3017 -0.0481
 2684W        W22964   5.516   9.975  14.395  0.0478 -0.3156 -0.0301
 2685W        W22965   8.535  18.034  12.543 -0.3158 -0.1949  0.3977
 2686W        W22966   7.096  15.175   0.449 -0.1552  0.0354  0.4051
 2687W        W22967   2.348  17.184   2.522  0.0856 -0.2517 -0.0250
 2688W        W22968   6.900   8.007   3.615 -0.2728  0.2909 -0.0692
 2689W        W22969   7.022   2.175  12.591 -0.0901  0.0729 -0.2256
 2690W        W22970  19.093   9.121   2.526 -0.0235  0.0983  0.1246
 2691W        W22971   6.235   3.369   3.649 -0.1597 -0.1548 -0.1194
 2692W        W22972  15.052   4.069  12.509  0.1083  0.1472  0.0813
 2693W        W22973   4.120   1.643  11.304 -0.0306 -0.1357  0.0044
 2694W        W22974  19.015  10.307  11.077  0.1574  0.1663  0.1002
 2695W        W22975  19.383   7.067  12.125 -0.1162 -0.0156 -0.0500
 2696W        W22976  14.072  10.817   3.741  0.3143 -0.2167  0.1952
 2697W        W22977   7.284   2.030  13.052 -0.1222  0.0120  0.0642
 2698W        W22978  12.894   3.876  14.421  0.1664  0.0888  0.1277
 2699W        W22979  15.493   6.955  14.281 -0.0423 -0.0567  0.2133
 2700W        W22980   7.005   8.879  14.430 -0.1488  0.3685  0.3739
 2701W        W22981   2.431  15.127   0.192 -0.1944  0.0888 -0.3179
 2702W        W22982   9.288   7.071  12.717  0.0314 -0.0041 -0.2140
 2703W        W22983  17.386   3.840   2.701  0.1220  0.1698 -0.1959
 2704W        W22984  16.800  19.005   3.142  0.1725  0.0502 -0.1769
 2705W        W22985   9.745  16.204  14.498 -0.2512 -0.1106 -0.0401
 2706W        W22986   1.996   7.851   4.768  0.1254  0.0696  0.0236
 2707W        W22987  11.561   2.696   1.618 -0.0935  0.3233  0.3077
 2708W        W22988  14.241  11.160   1.863 -0.1652 -0.3335  0.3097
 2709W        W22989   6.163   1.881  13.733 -0.0467  0.1695 -0.3274
 2710W        W22990   2.408   5.956   3.529  0.1580 -0.0368 -0.0949
 2711W        W22991   3.254  15.053   1.726  0.3244 -0.3036  0.2836
 2712W        W22992   8.307  14.674   2.756 -0.2103  0.2145  0.1028
 2713W        W22993  12.413  18.674   1.327  0.2844  0.1893 -0.3422
 2714W        W22994   7.732   0.797  13.093 -0.1552  0.1709  0.2834
 2715W        W22995  15.004   3.829   3.955  0.0391 -0.1972 -0.0635
 2716W        W22996   8.419   4.338   3.914 -0.0024 -0.1666  0.1365
 2717W        W22997   4.367   3.643   0.181 -0.0619  0.1038  0.1900
 2718W        W22998  16.600  16.121  12.350 -0.2317  0.2547 -0.1095
 2719W        W22999  19.170   0.852  12.470 -0.0266  0.0370  0.6083
 2720W        W23000   2.187   7.128  12.116  0.0917 -0.2120  0.0606
 2721W        W23001   3.717   7.018   1.156  0.0287 -0.2370  0.5140
 2722W        W23002  15.045  13.647   2.839 -0.1207  0.1547  0.1242
 2723W        W23003  13.728   7.719  14.402 -0.1471  0.2541 -0.0287
 2724W        W23004  14.140  18.407   1.842  0.3705  0.3116  0.3002
 2725W        W23005  12.565  16.380  10.205 -0.0505 -0.0105 -0.2587
 2726W        W23006  10.851   4.168   3.529  0.0413 -0.0121 -0.1584
 2727W        W23007  13.316   0.179   4.881  0.1006  0.1864  0.0997
 2728W        W23008   8.919  18.840   1.303  0.1586 -0.1076 -0.3050
 2729W        W23009  13.734  11.820   3.430  0.0807 -0.2336  0.0473
 2730W        W23010   3.877   8.418  11.842 -0.2390 -0.3842 -0.0123
 2731W        W23011   0.250  13.204   3.677 -0.0131  0.2799  0.1359
 2732W        W23012   9.446   0.184   0.876  0.1441  0.2844  0.1023
 2733W        W23013  18.662  12.360  13.466  0.3305 -0.1260  0.1373
 2734W        W23014  19.283  12.622   9.874  0.2855  0.1840 -0.1165
 2735W        W23015   2.262  10.714   3.679  0.0676  0.2256  0.1923
 2736W        W23016  11.709   2.937  13.881  0.0776 -0.4075 -0.2712
 2737W        W23017  18.793   2.859   1.573  0.0133 -0.1392  0.4603
 2738W        W23018  13.303   8.088  11.328 -0.3967 -0.0345 -0.1067
 2739W        W23019   9.441   9.372  11.528  0.0639 -0.1278 -0.2506
 2740W        W23020   1.483  19.308  13.400 -0.0148  0.3285 -0.4098
 2741W        W23021   4.868  10.446   1.181  0.1134 -0.0717 -0.0556
 2742W        W23022  10.415  17.935  12.125  0.4419 -0.0022  0.3436
 2743W        W23023  15.711  15.560   3.988 -0.0930  0.0472  0.0290
 2744W        W23024   9.395  15.590  14.369  0.1960  0.3050 -0.2816
 2745W        W23025   7.703  19.243   1.165 -0.0339  0.0271 -0.1065
 2746W        W23026   4.906   1.535   1.770 -0.1473 -0.0249  0.0657
 2747W        W23027  14.399  17.858   3.269  0.0787 -0.0093  0.1504
 2748W        W23028  13.172  11.728  11.315 -0.1419 -0.0727  0.0455
 2749W        W23029   0.901  11.749   1.799 -0.0672  0.1160  0.1960
 2750W        W23030  14.305   0.722  13.382  0.1845  0.0963  0.2632
 2751W        W23031   3.372   0.367   4.328  0.1192  0.0174  0.0042
 2752W        W23032  16.357   4.720  12.693  0.1665 -0.1786  0.1028
 2753W        W23033  15.323  17.709   3.908 -0.0062 -0.0185  0.0370
 2754W        W23034   1.199  17.013  12.398 -0.0364  0.0748  0.0372
 2755W        W23035   1.253   0.689  12.436 -0.0237 -0.0700  0.0583
 2756W        W23036  12.076   2.776   2.078  0.2623 -0.1566 -0.1442
 2757W        W23037  16.353  15.523  14.394 -0.0422  0.1460  0.2671
 2758W        W23038  18.449   5.493   1.629 -0.1538 -0.0659 -0.0345
 2759W        W23039   4.917  10.682   1.925  0.1443 -0.1186 -0.0490
 2760W        W23040   8.378   8.129   0.841  0.1677  0.0134  0.1580
 2761W        W23041   2.659  10.371  14.256  0.4408  0.2316  0.0058
 2762W        W23042   5.588   7.998  11.617  0.1759  0.0244 -0.2692
 2763W        W23043   1.705  14.349  12.264  0.0833 -0.3005  0.3067
 2764W        W23044  12.836   5.891   3.183 -0.2147 -0.1464  0.2744
 2765W        W23045   2.090  19.171  13.272  0.0525 -0.1229 -0.2144
 2766W        W23046   5.141  12.925  12.479  0.1301 -0.3917  0.1282
 2767W        W23047   4.974  13.800  10.311  0.0514  0.0491  0.0078
 2768W        W23048  10.723   1.691  12.639  0.2682  0.0751 -0.1467
 2769W        W23049   3.643  15.425  10.823  0.3619 -0.1659 -0.1999
 2770W        W23050  18.288   0.584   3.088  0.0505 -0.0388 -0.2754
 2771W        W23051   8.066   9.028   3.519 -0.0883 -0.1157 -0.1586
 2772W        W23052  18.512   0.802   2.674 -0.1977 -0.0721  0.1323
 2773W        W23053   3.722  13.625   1.229 -0.0058 -0.1653  0.1060
 2774W        W23054   5.493   9.435   5.011  0.3733 -0.1882 -0.1107
 2775W        W23055  13.230  18.066  13.725  0.0796  0.1488 -0.1627
 2776W        W23056  10.426   9.608  10.821 -0.3600 -0.1979  0.2638
 2777W        W23057  11.824  19.260  12.139 -0.3230  0.2577  0.1112
 2778W        W23058   3.095  15.943  11.954 -0.0336 -0.0430 -0.0804
 2779W        W23059  17.734  12.462   0.846 -0.0221  0.2039  0.2015
 2780W        W23060   0.885  18.297   2.179 -0.0881  0.1732  0.2201
 2781W        W23061   6.004   9.410  12.339 -0.0566 -0.1648  0.1561
 2782W        W23062   7.150  17.473   3.251 -0.0757  0.3116  0.1923
 2783W        W23063  13.212  17.724  11.771  0.1935  0.0340 -0.3411
 2784W        W23064   3.345   2.142  12.677  0.2041  0.0690 -0.0180
 2785W        W23065   3.694  16.877   0.863 -0.0535 -0.0446  0.0005
 2786W        W23066  11.346  19.020   3.241 -0.1548  0.3061  0.2812
 2787W        W23067  18.995   6.294   0.765  0.0591 -0.2913 -0.0671
 2788W        W23068  17.557   9.843   3.349 -0.3789 -0.0568 -0.3320
 2789W        W23069   0.794   5.412  10.453  0.1229 -0.1379 -0.1208
 2790W        W23070  16.725   5.868   3.355 -0.1912  0.0666 -0.0467
 2791W        W23071   4.263  14.372  14.387  0.0180  0.0962  0.2027
 2792W        W23072   0.138   4.337   0.045  0.0045  0.0301  0.2839
 2793W        W23073  10.203   8.727   1.054  0.0173  0.0589 -0.0365
 2794W        W23074   6.188   1.922  12.704 -0.0713 -0.1150  0.1090
 2795W        W23075   0.672  16.381   0.079  0.1066  0.0571  0.0555
 2796W        W23076  18.604   1.980   2.578  0.0261 -0.2442  0.0644
 2797W        W23077  13.142   6.456   1.278 -0.0712  0.1599 -0.0123
 2798W        W23078   5.514  12.951  14.346  0.0691  0.0941  0.0998
 2799W        W23079   4.729  11.282  13.886  0.3425  0.1707  0.3094
 2800W        W23080   6.806  17.240  14.220  0.0913 -0.2077 -0.2262
 2801W        W23081   5.012  18.224   0.596 -0.1882 -0.1537 -0.0658
 2802W        W23082  13.213   7.337   0.936  0.4038 -0.3664  0.0684
 2803W        W23083   5.427  16.602  12.877  0.4799  0.1844 -0.0394
 2804W        W23084  14.402  18.194  10.990 -0.3923  0.1955 -0.1823
 2805W        W23085  17.758  16.292  11.896 -0.0769 -0.1340  0.4262
 2806W        W23086   5.978   3.682   0.712  0.2067 -0.0438 -0.2653
 2807W        W23087   2.813   4.854   9.860 -0.0081 -0.3954 -0.0207
 2808W        W23088  15.778  17.983  10.775  0.4604 -0.0330  0.2431
 2809W        W23089   8.582   5.115   1.013  0.1127  0.0879 -0.3350
 2810W        W23090  13.961  14.929  12.034  0.0486 -0.0141 -0.0203
 2811W        W23091   7.190  18.794   0.067  0.0332  0.1441 -0.1500
 2812W        W23092  13.313   3.389  12.605  0.1201  0.2661 -0.0564
 2813W        W23093  10.195  18.616  14.129  0.1518 -0.2377 -0.1512
 2814W        W23094  18.330   0.298  12.532 -0.1862 -0.1491 -0.2986
 2815W        W23095   4.775   5.174   4.370 -0.4138 -0.3146  0.1082
 2816W        W23096   7.687   4.449  11.477  0.1126  0.1566 -0.1614
 2817W        W23097   2.789  15.833   1.356  0.3092 -0.1726 -0.0678
 2818W        W23098  13.544   7.328  13.543  0.0083 -0.0989  0.1281
 2819W        W23099   4.983   4.271   0.131 -0.2973 -0.0823  0.0508
 2820W        W23100   1.009  15.756   4.950  0.1277 -0.1165 -0.2207
 2821W        W23101  16.754   1.458   0.587  0.3132 -0.0384  0.0315
 2822W        W23102   5.102   0.345  11.894 -0.1968 -0.0980 -0.1925
 2823W        W23103   0.384   7.365   0.961 -0.2494 -0.0062 -0.2608
 2824W        W23104   9.613  11.789  11.609  0.2044  0.1404 -0.0507
 2825W        W23105  10.214   4.453   4.058 -0.0951  0.2197  0.0797
 2826W        W23106  14.140  12.655  11.028 -0.3098 -0.0441  0.0514
 2827W        W23107   7.039   9.051  10.909 -0.0024 -0.0458  0.0729
 2828W        W23108   6.336   1.882  13.235  0.1253  0.0847  0.1298
 2829W        W23109  17.652  14.260   0.794  0.0335  0.2476  0.5036
 2830W        W23110   2.352   3.059  11.442  0.0870 -0.3834  0.0596
 2831W        W23111   2.727   8.014   3.949  0.3636 -0.0914  0.1283
 2832W        W23112  12.845  16.017  11.839 -0.1220  0.0444 -0.1570
 2833W        W23113   2.335   7.969   0.778 -0.0042 -0.1058  0.0803
 2834W        W23114   2.960   7.689  14.014  0.3721  0.0984 -0.2201
 2835W        W23115  13.364   9.795   3.235 -0.1838 -0.1321 -0.1738
 2836W        W23116  10.082   0.186  11.455 -0.0637  0.0207 -0.0954
 2837W        W23117   0.625  17.934  14.437 -0.3198 -0.2092 -0.1500
 2838W        W23118  12.567   4.626   3.596  0.0123  0.0608  0.2798
 2839W        W23119   8.187   5.600  12.534  0.1935 -0.2494 -0.2680
 2840W        W23120  15.862  12.019  12.552 -0.1960 -0.2581  0.0875
 2841W        W23121   6.526  18.623   1.370  0.0485 -0.1468  0.1461
 2842W        W23122   7.343   2.686  12.772  0.0029 -0.2112  0.0304
 2843W        W23123   8.516   4.038   5.479  0.1387  0.0397 -0.1748
 2844W        W23124  13.030  15.988   3.408 -0.2349 -0.0293  0.0835
 2845W        W23125   2.491  13.791  11.477 -0.1110 -0.3217  0.0917
 2846W        W23126   6.766   7.904   1.187  0.1186  0.0224  0.0906
 2847W        W23127  13.966   6.384   1.560 -0.0845 -0.2329 -0.2598
 2848W        W23128   4.751   4.795  12.454 -0.2575 -0.1144  0.3844
 2849W        W23129  18.430  16.980   0.325  0.0486 -0.2029 -0.2714
 2850W        W23130   9.293   8.575   3.180 -0.1529 -0.3392  0.1700
 2851W        W23131  10.909  19.049   0.238 -0.0348  0.2333 -0.4030
 2852W        W23132   7.442  13.981   2.391 -0.0030 -0.1016 -0.1574
 2853W        W23133  16.897  15.876  10.706 -0.1962  0.2207  0.2834
 2854W        W23134  18.835  12.300   0.316  0.2031 -0.0034 -0.0561
 2855W        W23135  10.486   1.659  11.621 -0.1233  0.0185  0.0422
 2856W        W23136  17.171   6.668  10.709 -0.0424 -0.4785  0.1043
 2857W        W23137   4.959  11.589   0.901  0.2644 -0.1205  0.0407
 2858W        W23138   8.601   0.613  12.475 -0.0217 -0.1806 -0.1858
 2859W        W23139   6.521  15.895  10.997 -0.0200  0.2233  0.4015
 2860W        W23140   6.700   6.781  11.482  0.3302  0.1646  0.0158
 2861W        W23141   3.764  10.312  10.895  0.2121  0.2931  0.1001
 2862W        W23142   1.778   6.042  10.637  0.2678 -0.0710 -0.0534
 2863W        W23143   0.049   9.339   9.781  0.1670  0.0605 -0.0252
 2864W        W23144   5.685   0.895  13.784  0.2152 -0.1379 -0.0132
 2865W        W23145  12.283  14.076  12.786  0.0879  0.0714  0.1541
 2866W        W23146  18.800   0.904  13.844  0.2053  0.2994 -0.1945
 2867W        W23147  16.436  16.988   2.599  0.0433 -0.0513  0.2198
 2868W        W23148  17.414  15.032  12.702  0.1011  0.0738 -0.0815
 2869W        W23149   9.181  11.543  11.374 -0.1260 -0.3225 -0.2392
 2870W        W23150  13.692   6.685   3.413 -0.1281 -0.1964  0.3831
 2871W        W23151  12.798   0.341  11.748 -0.0765  0.2450 -0.0116
 2872W        W23152  18.214   1.028  11.177 -0.3052  0.2705  0.1767
 2873W        W23153   8.415   2.879   2.836  0.1153  0.1863 -0.2330
 2874W        W23154  14.856   1.843  11.449  0.0273 -0.0302  0.1623
 2875W        W23155  14.657   4.695   0.878 -0.3864 -0.2289  0.0048
 2876W        W23156  11.089   7.063  11.786  0.0487 -0.0395 -0.0984
 2877W        W23157   1.054   1.665   0.994 -0.0908  0.0093  0.2538
 2878W        W23158   1.857  18.257  12.833  0.3289 -0.2537  0.0009
 2879W        W23159  12.134   3.157   3.268 -0.1668  0.0964  0.1696
 2880W        W23160  12.422  18.739  13.670 -0.0977 -0.1499  0.0258
 2881W        W23161  17.558   6.553   9.427  0.2408  0.1753  0.4958
 2882W        W23162  19.035  10.545   0.469  0.1205 -0.1684 -0.0179
 2883W        W23163   6.026  12.933  13.043 -0.1959 -0.2207  0.1021
 2884W        W23164  12.936   3.146  14.230  0.1355 -0.2648 -0.1446
 2885W        W23165  13.732   7.276   1.156  0.0270 -0.2131 -0.0039
 2886W        W23166   2.732  14.553   0.929 -0.0255 -0.2419  0.1560
 2887W        W23167  15.727  13.992  11.059  0.0129  0.0398 -0.4123
 2888W        W23168   9.558   4.897   4.056  0.0822  0.0418  0.0041
 2889W        W23169   4.634   8.660  11.227 -0.2671 -0.1960  0.0001
 2890W        W23170  19.329  10.721  12.991 -0.2407 -0.0332 -0.0934
 2891W        W23171  17.276  15.071   0.403 -0.1918 -0.1717  0.0024
 2892W        W23172   1.767  13.988  14.210  0.1824  0.0542  0.2634
 2893W        W23173  11.911   3.213   0.713 -0.0514 -0.1192  0.1022
 2894W        W23174  17.426  10.929  11.903 -0.1159  0.3365 -0.1501
 2895W        W23175  12.478  10.563  11.914 -0.0085 -0.0190  0.1580
 2896W        W23176   1.033  17.819  10.495  0.0890  0.2978 -0.0380
 2897W        W23177   9.879  15.059  12.172 -0.0415 -0.2158  0.3413
 2898W        W23178   7.612   7.864   3.042  0.0633  0.3005 -0.2409
 2899W        W23179   3.096  17.440  11.232 -0.1512 -0.0553 -0.1159
 2900W        W23180   6.981  15.358  12.700  0.1449  0.2431  0.0131
 2901W        W23181  18.333  11.103  13.847  0.4987  0.0577  0.0296
 2902W        W23182  18.317  18.533   2.325  0.1216 -0.1312 -0.4436
 2903W        W23183   3.311  16.989   3.674 -0.0374 -0.1212 -0.1647
 2904W        W23184   0.391   7.817   1.242 -0.1283  0.0233  0.2850
 2905W        W23185  14.842   8.225   0.586 -0.0933  0.0167 -0.2742
 2906W        W23186  11.711   5.564  13.601 -0.0680  0.2842  0.1684
 2907W        W23187  10.096   1.908   1.082  0.2214 -0.1434 -0.2023
 2908W        W23188  10.047  19.160   1.831  0.1578 -0.2920 -0.0647
 2909W        W23189  15.347   4.414   1.512 -0.1579 -0.3618 -0.0644
 2910W        W23190  16.368  16.011   9.712 -0.1876 -0.1231 -0.1104
 2911W        W23191  10.562   5.816   0.643  0.2701  0.0522 -0.1710
 2912W        W23192   6.676   8.019   2.679 -0.4938  0.1893  0.1694
 2913W        W23193  14.352  11.521   2.773  0.1283 -0.2264 -0.1127
 2914W        W23194   2.279   3.195  13.611 -0.0632 -0.0638  0.1332
 2915W        W23195  11.488  12.126  14.076  0.2593 -0.1748  0.1336
 2916W        W23196   6.426  16.264   0.837  0.1328 -0.2115 -0.1532
 2917W        W23197   3.883  12.155   2.315  0.0517  0.0983  0.2484
 2918W        W23198   8.857   4.770  12.979  0.0640 -0.0422 -0.0052
 2919W        W23199  10.458  16.790  11.357 -0.2144  0.3612  0.2847
 2920W        W23200  16.857  17.827   4.031 -0.0270 -0.0515  0.1122
 2921W        W23201  15.503   5.795   3.933 -0.0366 -0.1543  0.0735
 2922W        W23202   7.247   5.330  11.774  0.1496 -0.3216  0.1784
 2923W        W23203   1.462   1.060  13.848 -0.0627 -0.0652  0.0943
 2924W        W23204   7.796   8.025  10.456 -0.0876  0.3618  0.1285
 2925W        W23205  14.582   4.790  12.203  0.0946 -0.1044  0.0316
 2926W        W23206   3.410  14.988  12.174 -0.4821 -0.0037 -0.2007
 2927W        W23207  12.520  14.791   0.482  0.0135  0.1848 -0.0331
 2928W        W23208  11.036   9.888  10.834 -0.1298  0.4201 -0.0157
 2929W        W23209   3.192  10.952  12.488  0.0273 -0.0256  0.0830
 2930W        W23210   7.975  17.266   0.220 -0.2080  0.1571 -0.1612
 2931W        W23211  17.465   7.158  13.332  0.0040 -0.0173 -0.2737
 2932W        W23212   3.001   2.376   3.533 -0.1767 -0.2258  0.0789
 2933W        W23213  10.250  11.209  14.008  0.0729 -0.1571 -0.2213
 2934W        W23214   0.660  10.796  12.563 -0.3547 -0.1516  0.0892
 2935W        W23215   6.046  15.636  12.479  0.2358 -0.1371 -0.0491
 2936W        W23216  16.644   8.525  11.859  0.2284 -0.0679  0.2942
 2937W        W23217  13.326  16.501   1.919 -0.3088 -0.2643  0.0149
 2938W        W23218  16.051  14.750  11.895 -0.1412  0.1103 -0.3871
 2939W        W23219   5.201  16.138   1.418  0.0646  0.0458 -0.0524
 2940W        W23220  17.807   0.788  10.933  0.0692 -0.1882 -0.1494
 2941W        W23221   1.415  16.457  10.642 -0.0288  0.0623 -0.1112
 2942W        W23222   3.321   4.655   1.157  0.1045  0.0985 -0.2261
 2943W        W23223  10.078  18.185  13.915  0.1079 -0.0824  0.0489
 2944W        W23224   5.868   3.301   1.143 -0.2609  0.0992  0.0230
 2945W        W23225  18.381  16.682  11.468  0.0132 -0.2491 -0.3100
 2946W        W23226  11.569   4.624   3.185  0.1655  0.0582  0.0388
 2947W        W23227  17.403   0.557  13.593 -0.0036 -0.1308  0.0274
 2948W        W23228  16.262   0.016  10.413 -0.0987 -0.1588 -0.0707
 2949W        W23229   6.403   9.862  12.136  0.0413  0.1116  0.0113
 2950W        W23230   9.754   6.925   3.707  0.2607 -0.0949  0.1829
 2951W        W23231   8.994   4.998   2.147  0.2052 -0.3769 -0.0541
 2952W        W23232  13.462  16.824   0.690  0.0335  0.0637 -0.0247
 2953W        W23233   1.665  12.118  11.480 -0.0254  0.1819 -0.2677
 2954W        W23234   2.816   7.398  12.842  0.1610 -0.1858  0.3859
 2955W        W23235  16.480   4.787   4.025  0.0451 -0.0263  0.0237
 2956W        W23236  16.303  16.763  13.916  0.2085 -0.0711 -0.0729
 2957W        W23237  16.199   8.148  11.835 -0.1143  0.0386  0.3535
 2958W        W23238   0.307   9.475   0.875  0.2454 -0.0505  0.1046
 2959W        W23239  11.460  16.863   5.098  0.1241 -0.0763 -0.0397
 2960W        W23240   5.999   6.244   3.492 -0.1485  0.1316  0.1954
 2961W        W23241   8.147  12.846   0.138 -0.3749 -0.0548 -0.1651
 2962W        W23242  10.549   8.920   1.899 -0.0113  0.1362 -0.0912
 2963W        W23243   3.975  15.736  11.172  0.2369 -0.1054 -0.2034
 2964W        W23244  12.165   1.307   3.178  0.2532  0.0157  0.0342
 2965W        W23245   0.150  10.912   4.037  0.0445 -0.2654 -0.0851
 2966W        W23246  11.143   0.128  12.490  0.2006 -0.0210 -0.2811
 2967W        W23247  14.596   7.788   3.195 -0.1002 -0.1216 -0.0581
 2968W        W23248   3.515  11.639  11.822 -0.0284 -0.1252  0.1186
 2969W        W23249   6.861  18.909   3.827  0.2229  0.4179 -0.0503
 2970W        W23250  12.421   6.376  12.317 -0.0393 -0.0992  0.1084
 2971W        W23251  17.442  11.265   1.021  0.1123  0.1135  0.4089
 2972W        W23252   2.113  13.981  13.277  0.0113  0.1782 -0.2387
 2973W        W23253  12.272  10.282  14.422  0.1741 -0.2825 -0.0008
 2974W        W23254   5.016  18.090  12.391 -0.0660  0.0825 -0.1519
 2975W        W23255   9.604  14.641   1.609 -0.1750  0.1925  0.2252
 2976W        W23256  17.193   6.149   1.235  0.1120  0.0610 -0.2597
 2977W        W23257   3.219  11.902   9.895  0.0244 -0.2623 -0.2697
 2978W        W23258   1.308  11.266   3.048 -0.0022 -0.1232  0.0739
 2979W        W23259   9.086  11.318   1.096  0.1012  0.3296  0.1642
 2980W        W23260   2.121   5.552  12.882 -0.4031 -0.0706 -0.2101
 2981W        W23261  10.461  11.972   3.935 -0.0286 -0.0439  0.0662
 2982W        W23262  16.952   0.892  13.138 -0.0063  0.3250  0.0148
 2983W        W23263   4.704   0.543  13.005  0.2257 -0.0705  0.0785
 2984W        W23264   4.736   4.284   3.902 -0.2689  0.0723  0.1537
 2985W        W23265   6.932   5.324  12.786 -0.1388  0.0765  0.0553
 2986W        W23266  13.135   1.708  10.912 -0.0804 -0.2455  0.0105
 2987W        W23267   0.758   1.655   3.651  0.4248 -0.1651 -0.2538
 2988W        W23268   3.972   2.879   1.116  0.0724 -0.1083  0.1696
 2989W        W23269  15.914  11.077  12.319  0.1759 -0.4023 -0.0371
 2990W        W23270  10.116  16.704  12.291  0.1906 -0.1018 -0.1480
 2991W        W23271   5.152  17.230  11.269 -0.3767  0.1995  0.1071
 2992W        W23272  11.475  14.876   2.443  0.0785 -0.0844  0.3783
 2993W        W23273   1.099   7.599   2.782  0.2629 -0.2243  0.3873
 2994W        W23274   1.292  12.440   0.520  0.3072 -0.0042 -0.4090
 2995W        W23275   6.525   9.435   3.415  0.1076 -0.1834 -0.0671
 2996W        W23276   4.856  11.179   2.163  0.1043  0.0675 -0.0875
 2997W        W23277  14.401  17.073   0.038 -0.1645 -0.0227  0.3173
 2998W        W23278  13.709  11.330  12.142  0.2186  0.0667 -0.0154
 2999W        W23279   2.903  13.523  11.255 -0.1438 -0.0414 -0.1647
 3000W        W23280  12.851   4.694  13.963 -0.3786  0.0547  0.1071
 3001W        W23281   8.629   6.330   1.945 -0.1719  0.4037  0.2957
 3002W        W23282  14.893  17.594  14.443  0.1446  0.0340  0.2902
 3003W        W23283  11.443   1.496   2.355  0.1261  0.0959  0.0109
 3004W        W23284   1.713  15.797   2.599 -0.1042 -0.1686 -0.2233
 3005W        W23285  16.047  18.623   9.643 -0.2490 -0.0257  0.1423
 3006W        W23286  16.301  16.030   0.034  0.1216  0.2348  0.3926
 3007W        W23287   0.898  16.005   3.769  0.1934 -0.0638 -0.0370
 3008W        W23288  15.763   5.832   1.156 -0.0566 -0.1751 -0.0589
 3009W        W23289  13.776  13.918   3.063 -0.0677 -0.0023 -0.3171
 3010W        W23290  10.728  10.883   2.089 -0.0472  0.0014 -0.0586
 3011W        W23291  18.757   4.625   3.341  0.1464 -0.0982  0.0697
 3012W        W23292  13.085   0.573   2.552  0.2401 -0.0232  0.1782
 3013W        W23293  16.667   6.552  11.698 -0.0696  0.0458  0.2299
 3014W        W23294   6.302   0.166   2.916  0.1606  0.2830 -0.0115
 3015W        W23295  17.812   2.911   1.424 -0.1550 -0.2872 -0.0779
 3016W        W23296   8.510  13.475  12.966 -0.2609 -0.2286 -0.0761
 3017W        W23297  14.485  14.733  12.107 -0.3460 -0.2128 -0.1344
 3018W        W23298  11.556   3.298   4.422 -0.1838 -0.1618  0.0507
 3019W        W23299   9.502  18.183  13.781  0.4045  0.0815 -0.1493
 3020W        W23300   1.694   2.229  13.565 -0.0709 -0.0644 -0.1155
 3021W        W23301  12.475  11.396   1.341  0.2137 -0.4020  0.1314
 3022W        W23302   8.618  14.230  14.044 -0.1587  0.3752  0.2108
 3023W        W23303   6.992   2.015  10.463  0.0624 -0.0357  0.0214
 3024W        W23304   3.284   6.578  12.568 -0.0120  0.0285 -0.2938
 3025W        W23305  14.457   7.620  10.448 -0.3536  0.0603 -0.3719
 3026W        W23306   6.137  14.602   3.233 -0.0528  0.1100 -0.0665
 3027W        W23307  16.833  19.177   3.641 -0.0138  0.1609  0.2151
 3028W        W23308   2.839   0.114   3.590 -0.0808  0.1781  0.3708
 3029W        W23309   6.903  13.271   0.450 -0.3266  0.0260 -0.2344
 3030W        W23310  13.762   8.719  13.870  0.0487 -0.0112 -0.2424
 3031W        W23311   0.361   5.309  11.692 -0.0984  0.1072 -0.1515
 3032W        W23312  17.315  12.731   0.608 -0.1992  0.1974 -0.1309
 3033W        W23313  13.505  12.649  10.384  0.2470  0.0846  0.1360
 3034W        W23314  13.829   0.371   4.790 -0.1805  0.1133 -0.2168
 3035W        W23315  10.978  16.903  13.760 -0.0247  0.2789  0.0215
 3036W        W23316   7.128  14.735   1.904 -0.2625 -0.1096  0.1041
 3037W        W23317   0.981   8.673   1.175 -0.0367 -0.0268 -0.0341
 3038W        W23318   7.862   7.914   2.619  0.0105  0.0523  0.0072
 3039W        W23319   0.979   2.404  11.734 -0.0390 -0.3407  0.2431
 3040W        W23320  10.003  18.476   5.111  0.1342 -0.0463  0.2931
 3041W        W23321  18.834  14.416   0.913 -0.5240 -0.1570 -0.1623
 3042W        W23322  18.247  17.940   3.996 -0.1068 -0.0825 -0.1829
 3043W        W23323  16.414  13.549  12.433  0.2497 -0.2070  0.1579
 3044W        W23324   9.499  10.799  12.637 -0.0935 -0.1754  0.0962
 3045W        W23325  19.277  14.676   3.222  0.2070 -0.1694 -0.1271
 3046W        W23326   6.218   1.951   2.229  0.0235  0.0553  0.1612
 3047W        W23327   2.912   9.716   0.337 -0.2849 -0.0229  0.1791
 3048W        W23328   6.253   3.149  14.134 -0.0960 -0.1075  0.2689
 3049W        W23329  17.232  10.466  10.274  0.0839 -0.0137  0.1806
 3050W        W23330  11.272   1.425   3.486  0.1374  0.0572 -0.0762
 3051W        W23331  18.038   0.003   1.202  0.1288 -0.0814  0.1324
 3052W        W23332   0.412   2.270  13.836 -0.0310  0.0433  0.2039
 3053W        W23333   1.407  11.409   2.049  0.0220 -0.2051 -0.2788
 3054W        W23334   2.763  15.863  14.317  0.0549  0.0429  0.0187
 3055W        W23335  18.933  10.080   0.806 -0.1753 -0.2125  0.2101
 3056W        W23336  11.279   7.393  13.304 -0.0483 -0.0964  0.0010
 3057W        W23337  18.882  17.383  10.594  0.1147  0.0353  0.0520
 3058W        W23338   2.374   7.783  14.266 -0.3385  0.1410  0.0012
 3059W        W23339  14.508  14.183   1.527  0.0149  0.2551 -0.2074
 3060W        W23340   5.111  12.021   1.158 -0.0966 -0.0774 -0.0954
 3061W        W23341   1.103  10.692   0.113  0.1139 -0.3150  0.0761
 3062W        W23342   2.850   4.754  12.889 -0.3079 -0.1053 -0.1465
 3063W        W23343  17.463  13.326   3.309 -0.1520 -0.1233  0.2917
 3064W        W23344  12.632  11.304   1.922 -0.1261 -0.0163  0.3191
 3065W        W23345  18.174  18.114   0.504 -0.1830  0.1441  0.2513
 3066W        W23346   1.421  11.830  11.050 -0.1946  0.1676 -0.1388
 3067W        W23347   3.507  11.770   1.407 -0.2802 -0.2111 -0.0452
 3068W        W23348   3.205  18.404  14.246 -0.0129 -0.3123 -0.1824
 3069W        W23349   2.463   7.701  11.163 -0.1507 -0.0124 -0.0077
 3070W        W23350  10.747   4.721  13.546  0.0542  0.0055  0.3987
 3071W        W23351   7.383   1.723  12.544 -0.2923 -0.3586 -0.0608
 3072W        W23352   2.267  18.026   0.942 -0.1053 -0.1821 -0.0043
 3073W        W23353   1.422  13.780  13.876  0.0227 -0.0351 -0.2091
 3074W        W23354   9.228   1.778  12.112  0.0904 -0.1944 -0.1932
 3075W        W23355  14.912  15.059   3.784  0.1289  0.1053 -0.0823
 3076W        W23356   6.537  10.818  10.424 -0.0803 -0.1590  0.0551
 3077W        W23357  13.782  16.334   2.701  0.4056 -0.2015  0.0902
 3078W        W23358   7.124   6.088  13.580  0.1099 -0.0439  0.1997
 3079W        W23359  11.875  14.862   1.550 -0.0184  0.2223 -0.0770
 3080W        W23360   3.437  12.854  10.608  0.1749 -0.0873  0.1008
 3081W        W23361   8.920  15.960  12.089 -0.0156  0.0974  0.0712
 3082W        W23362   2.562  15.177  13.611 -0.0186  0.1253  0.2233
 3083W        W23363   4.894   0.504   0.578  0.0921 -0.1258 -0.1339
 3084W        W23364  16.862   2.728   1.037  0.2005 -0.0298 -0.0882
 3085W        W23365  15.514   3.424  13.683  0.0513 -0.1180 -0.0340
 3086W        W23366   9.033  18.699   2.758 -0.0255 -0.0843 -0.0457
 3087W        W23367  12.522   6.602   1.991 -0.1858 -0.2251 -0.0543
 3088W        W23368  10.841   3.390   2.410 -0.0248 -0.2312 -0.0928
 3089W        W23369  14.844   2.859  14.446  0.1009  0.0630  0.1551
 3090W        W23370   8.763  18.572   4.568 -0.2321 -0.1316  0.0924
 3091W        W23371   9.890   9.559  11.436  0.0158 -0.3006 -0.1283
 3092W        W23372   7.425  10.900  10.506  0.0836  0.1567 -0.1216
 3093W        W23373   2.138  10.459  12.828  0.1853 -0.0088  0.1187
 3094W        W23374  15.083   7.047  13.900  0.1793 -0.1052  0.0030
 3095W        W23375  10.088  16.929  10.969  0.2028 -0.1718  0.1332
 3096W        W23376  10.919  10.513   9.262 -0.1810 -0.0819  0.0080
 3097W        W23377  10.445   2.907   3.468 -0.1516 -0.1341  0.2512
 3098W        W23378   6.216   6.505   2.003  0.2815  0.4064  0.0226
 3099W        W23379   3.178   9.943  11.486  0.2182  0.0253 -0.0909
 3100W        W23380   8.162   6.006   0.008  0.0578  0.1399  0.2217
 3101W        W23381  10.004  14.760   9.416 -0.2789 -0.1647  0.1029
 3102W        W23382   9.519   4.744  13.607 -0.4254  0.1402  0.3282
 3103W        W23383   9.608  14.226   3.694  0.0804  0.1600 -0.2446
 3104W        W23384  15.822  12.686  14.203 -0.0435 -0.0749  0.4682
 3105W        W23385   1.045  16.347   4.127 -0.2259 -0.2076 -0.1154
 3106W        W23386   8.154   9.165   1.119  0.3875 -0.2452  0.1637
 3107W        W23387   3.300   9.555  13.834 -0.1546  0.2598 -0.0044
 3108W        W23388  13.114  10.666   3.996 -0.1069  0.0697 -0.0695
 3109W        W23389   1.730   1.617  11.243 -0.0437  0.0038  0.0444
 3110W        W23390  14.186   4.051  11.024  0.3339 -0.2396  0.0457
 3111W        W23391   9.334  18.374   0.414  0.2781  0.4313 -0.0340
 3112W        W23392  14.940  14.488   5.322 -0.1786 -0.1359  0.0126
 3113W        W23393   9.296   0.229   3.610  0.1857  0.0238  0.0558
 3114W        W23394   2.185   2.184  11.787 -0.2170 -0.0759  0.0894
 3115W        W23395  10.991  15.429  12.876 -0.5786 -0.1870  0.0776
 3116W        W23396   1.849   1.296  14.175 -0.0503 -0.0238 -0.0323
 3117W        W23397   4.204  11.193   2.871 -0.1407 -0.2837  0.1465
 3118W        W23398  12.596  19.016  10.480  0.0195  0.2419  0.0297
 3119W        W23399   8.704   0.830   3.561 -0.3116 -0.2113  0.0217
 3120W        W23400   3.826  16.058   1.174  0.1418 -0.2235  0.0811
 3121W        W23401  10.865   1.961   3.312 -0.0270 -0.0664 -0.0141
 3122W        W23402   4.859  12.921  10.522 -0.1073 -0.2511 -0.1190
 3123W        W23403   6.552   1.928   3.366 -0.0215  0.0460  0.3711
 3124W        W23404  18.452   8.940   0.610 -0.1298  0.1249  0.0464
 3125W        W23405   3.116  13.451   1.051 -0.2621 -0.1086 -0.2326
 3126W        W23406   4.949   1.327   5.099 -0.0656  0.3821 -0.0099
 3127W        W23407   6.621   6.320   1.138  0.0875  0.0787 -0.5809
 3128W        W23408   7.570   4.136   0.866  0.2173  0.0030 -0.0702
 3129W        W23409   8.452  17.501   3.803  0.2095 -0.5000 -0.0487
 3130W        W23410  17.915  10.734   2.361  0.1120 -0.1366 -0.2458
 3131W        W23411   5.369  12.261  13.625 -0.0044  0.0863  0.0922
 3132W        W23412  11.928  13.723   3.107 -0.3576 -0.1789  0.2011
 3133W        W23413  12.353  11.403  13.429  0.0988 -0.0586 -0.2390
 3134W        W23414  11.785  17.949  10.005  0.0847 -0.1770  0.4033
 3135W        W23415   7.944  16.411  13.994 -0.1390  0.1560 -0.2684
 3136W        W23416  11.167  14.727  11.777  0.1583  0.3106 -0.0820
 3137W        W23417  16.054  14.447   3.397 -0.0730 -0.1100  0.3385
 3138W        W23418   1.901   1.076   4.991 -0.1103 -0.3095  0.4865
 3139W        W23419   6.758  10.280  10.863  0.2135 -0.2952  0.0737
 3140W        W23420   2.619  17.068   9.416 -0.0095 -0.0397  0.0273
 3141W        W23421  19.399  18.517   3.158 -0.1330  0.0943  0.2585
 3142W        W23422  18.214  18.773   3.343 -0.3859  0.1058 -0.1649
 3143W        W23423   8.446  18.833  11.405 -0.0511 -0.0021 -0.1900
 3144W        W23424   2.917   0.916  12.146 -0.3681  0.1892 -0.2922
 3145W        W23425  13.588  17.008  12.990  0.2266  0.0343  0.1029
 3146W        W23426  16.774   2.957   2.383  0.1865 -0.0740 -0.1151
 3147W        W23427   1.056   5.227   3.634  0.0819 -0.4589 -0.0028
 3148W        W23428   8.279   9.143   2.615 -0.1304 -0.0325 -0.0613
 3149W        W23429  17.656   8.166  10.348 -0.0425  0.1366  0.0446
 3150W        W23430  14.887  13.359   5.236 -0.0335 -0.0099 -0.1445
 3151W        W23431   6.093   8.328  13.497  0.1290  0.1032 -0.0456
 3152W        W23432  18.959  16.189   0.616 -0.0974  0.4371  0.1743
 3153W        W23433  18.145   3.734   1.571 -0.0068 -0.2722  0.2066
 3154W        W23434  18.289   5.597   3.066  0.0917  0.1039  0.2682
 3155W        W23435   2.970  12.307  12.384  0.2915 -0.2028 -0.1394
 3156W        W23436   4.488  13.074  12.229 -0.0995  0.0024  0.1614
 3157W        W23437  18.259   8.201   1.737 -0.0750  0.1998 -0.0620
 3158W        W23438  17.388   4.696  13.388 -0.1750 -0.1466  0.1174
 3159W        W23439   2.421  14.214  13.637 -0.1161 -0.1133  0.2238
 3160W        W23440   8.863  13.223   2.055  0.0595 -0.1193  0.0840
 3161W        W23441  16.038  13.313   0.347 -0.1272  0.0038 -0.0586
 3162W        W23442   7.701  17.834   0.467 -0.0450 -0.3111  0.0976
 3163W        W23443  17.251   7.028  13.868 -0.1895 -0.0599  0.1761
 3164W        W23444  17.751  16.593   2.605  0.1219 -0.1695  0.0116
 3165W        W23445  10.533   6.658   4.258 -0.0738  0.2818  0.1182
 3166W        W23446  15.263   1.254  13.911 -0.0344  0.0513  0.3799
 3167W        W23447  18.904   4.883  12.521 -0.2248 -0.2657 -0.2670
 3168W        W23448   9.320  18.287  12.807  0.0990 -0.1043 -0.0716
 3169W        W23449   5.540   6.464   2.541  0.0204 -0.1222 -0.1181
 3170W        W23450  11.549  13.930   0.356 -0.0859  0.1194  0.1502
 3171W        W23451  11.091  18.260  12.807 -0.0220 -0.1441 -0.0322
 3172W        W23452   8.609  16.807   0.570 -0.1501 -0.0687 -0.0260
 3173W        W23453  13.960  13.207  11.056  0.1706  0.0862 -0.0575
 3174W        W23454   7.633  18.140  11.053 -0.1391 -0.1118 -0.1358
 3175W        W23455   6.827  19.051   1.302  0.0498  0.0939  0.2069
 3176W        W23456   4.966  10.882  12.717 -0.0506 -0.2643 -0.2951
 3177W        W23457   5.115   2.741   3.272 -0.2238 -0.0642  0.0289
 3178W        W23458  17.617  11.627  11.958 -0.1479 -0.0324  0.2519
 3179W        W23459   5.295   4.006  11.906 -0.2801 -0.3607  0.1483
 3180W        W23460   5.883  18.118   2.834  0.0840  0.0307 -0.2211
 3181W        W23461   1.508   8.691  11.671 -0.0768  0.0815  0.1660
 3182W        W23462  13.105   0.719  11.574  0.0493  0.2148  0.1539
 3183W        W23463   6.755   1.500  13.472  0.1207  0.3479 -0.1944
 3184W        W23464   5.584   2.883   1.909 -0.0840  0.0799 -0.1830
 3185W        W23465  16.600   3.622   2.563  0.0648 -0.0875 -0.0923
 3186W        W23466   2.217   2.601  12.914 -0.2912  0.2067  0.1270
 3187W        W23467  14.219   9.911  11.752 -0.0264 -0.2167 -0.1537
 3188W        W23468   9.730  17.287   2.130  0.1649  0.2399 -0.1653
 3189W        W23469   9.669  13.064   4.422  0.1852  0.2578  0.1468
 3190W        W23470  18.041   7.359  11.618 -0.0002  0.0030 -0.0556
 3191W        W23471  11.073  11.560  13.928  0.0858  0.0350 -0.0437
 3192W        W23472   8.853   7.129  11.418  0.1003 -0.3001  0.0968
 3193W        W23473   0.679  13.829   3.884  0.1615 -0.3729  0.1119
 3194W        W23474  16.773   7.508   0.577 -0.2063  0.1291  0.1486
 3195W        W23475  14.644  16.605  14.417  0.4875 -0.2122 -0.3174
 3196W        W23476  12.390  13.895   2.948 -0.1282 -0.0272 -0.0270
 3197W        W23477   9.332   1.099   1.931  0.2994 -0.1719 -0.0259
 3198W        W23478  18.783  17.766   1.348 -0.0468 -0.2602 -0.0640
 3199W        W23479   7.106  14.177  12.418 -0.3105  0.0416 -0.1620
 3200W        W23480   8.845  17.830   1.194  0.0841  0.0251 -0.3022
 3201W        W23481   7.672   6.956   1.216  0.1036  0.4211 -0.2674
 3202W        W23482   4.173  10.400   0.563  0.1084 -0.0601  0.0310
 3203W        W23483  12.855   0.592   4.062  0.0067  0.2049  0.1651
 3204W        W23484   5.625   4.299   2.192  0.1734 -0.1735  0.1566
 3205W        W23485  14.773  19.160   1.687 -0.0105  0.1155 -0.1820
 3206W        W23486  19.317   2.912   2.334 -0.0020  0.1096  0.2234
 3207W        W23487  16.184   4.089   1.967  0.2505  0.1421 -0.0464
 3208W        W23488  14.088  11.771   1.238 -0.0935  0.1273  0.1261
 3209W        W23489  18.748   7.277   1.519  0.3239 -0.2055 -0.2162
 3210W        W23490   5.156  11.633   3.444 -0.0004  0.2418  0.0107
 3211W        W23491  10.738   7.207   0.126 -0.1364  0.1885 -0.0294
 3212W        W23492  18.677  18.973  11.835 -0.2238  0.0201  0.1808
 3213W        W23493   4.233   4.318   2.007  0.0650  0.0763 -0.0280
 3214W        W23494  17.331   1.587   5.143  0.0692 -0.2399 -0.1151
 3215W        W23495  18.324   6.657   2.239  0.2959 -0.2655  0.2131
 3216W        W23496  11.947  15.098  12.121  0.5068  0.1183  0.3889
 3217W        W23497   4.499   6.355  13.393 -0.1661  0.1327  0.1909
 3218W        W23498  12.801  15.226   1.486  0.1202 -0.2819 -0.1986
 3219W        W23499  15.869  11.736  14.422  0.6304  0.3581 -0.0603
 3220W        W23500   7.382  15.876  11.407  0.1503  0.1620  0.0299
 3221W        W23501   1.799   9.652  11.575  0.2306  0.2455  0.1803
 3222W        W23502  11.143   1.453  11.072 -0.0101 -0.0000 -0.0596
 3223W        W23503  16.375   3.196   2.225  0.0019 -0.1378 -0.0253
 3224W        W23504  10.062   8.657   1.603  0.1570 -0.0800 -0.0341
 3225W        W23505  18.387   8.961   3.234  0.3079 -0.1871 -0.2106
 3226W        W23506  17.574  12.963  11.575 -0.1917  0.1572 -0.2276
 3227W        W23507  12.743  12.300   1.128 -0.0694 -0.2547  0.2364
 3228W        W23508   9.420   4.027  14.061  0.0884  0.0574  0.0482
 3229W        W23509   9.479  16.221   3.723  0.1802 -0.0576  0.3272
 3230W        W23510   5.663   7.025   2.546 -0.2628  0.0752  0.0688
 3231W        W23511  12.095  12.662  11.551  0.2527  0.0082  0.0018
 3232W        W23512   6.482   7.817  12.162 -0.0659  0.0088  0.1200
 3233W        W23513   0.193   5.862   1.107  0.3653 -0.1548 -0.1764
 3234W        W23514  18.269   8.646  10.775 -0.3626  0.0118 -0.0014
 3235W        W23515  12.218   2.454   5.561 -0.0008  0.0808  0.2917
 3236W        W23516   8.091  12.273   0.344  0.1106  0.1355 -0.3244
 3237W        W23517  17.141  17.406   2.467  0.1205 -0.0247  0.2468
 3238W        W23518   2.141   5.586   1.938  0.0521 -0.1522 -0.2296
 3239W        W23519  11.417   3.586   1.664  0.0236  0.1638  0.0352
 3240W        W23520   6.903  19.163  12.386  0.2719 -0.1382  0.0789
 3241W        W23521  12.017  10.089   1.507 -0.1176 -0.1026  0.1930
 3242W        W23522   4.315  12.548   3.044  0.0234 -0.0904  0.1112
 3243W        W23523  14.988   8.304  12.482 -0.1065  0.2816  0.1149
 3244W        W23524  14.589   6.020   3.247  0.1071 -0.2406 -0.5504
 3245W        W23525  17.435   0.936   1.259  0.1762  0.0738 -0.2974
 3246W        W23526   4.675  11.522   3.559 -0.1770  0.1494 -0.1238
 3247W        W23527  15.415   3.186   2.807  0.1744 -0.1402 -0.0150
 3248W        W23528   0.674  16.554   1.142  0.1530 -0.2305  0.1740
 3249W        W23529   4.296   0.303  12.832 -0.0585  0.1763  0.0316
 3250W        W23530  14.946  13.031  10.694  0.0481 -0.0618  0.2643
 3251W        W23531   9.309  18.476   3.222  0.0996  0.0488 -0.0287
 3252W        W23532   6.107   8.416  12.795 -0.0801  0.0326 -0.2823
 3253W        W23533   5.112   3.100   0.617 -0.1482  0.2369  0.0941
 3254W        W23534   0.325   5.592  10.213  0.2342  0.1461 -0.0308
 3255W        W23535  17.784   6.689   3.566 -0.0123 -0.1005 -0.0893
 3256W        W23536   2.427   3.026   3.865 -0.0849  0.2638  0.4338
 3257W        W23537  18.850  15.238   3.778  0.0895 -0.0129 -0.0020
 3258W        W23538  10.008  16.550   4.066 -0.5653 -0.0070 -0.0412
 3259W        W23539   8.466   5.811   3.954 -0.2209  0.0722  0.1566
 3260W        W23540  17.198  17.011  12.006  0.1192  0.2187 -0.2002
 3261W        W23541   4.046  10.247   2.612  0.0272 -0.0758 -0.2176
 3262W        W23542  13.769   4.763  11.096  0.2784 -0.0727  0.0573
 3263W        W23543   0.758  16.020   2.669  0.0390 -0.2045 -0.2070
 3264W        W23544   3.803  15.348  12.831 -0.2533  0.1133 -0.0632
 3265W        W23545   4.772   2.862  14.016  0.0654 -0.0797 -0.1116
 3266W        W23546  14.070  13.199   3.523  0.0972 -0.0059  0.1322
 3267W        W23547   5.758  16.213  11.451  0.0332 -0.0512 -0.2520
 3268W        W23548  16.350  19.226  11.763 -0.0420  0.0417 -0.1967
 3269W        W23549   8.558  17.412   3.044  0.3743 -0.0636 -0.1428
 3270W        W23550  18.157  11.904  13.456  0.0539 -0.2048  0.1116
 3271W        W23551   5.412   9.714   4.296  0.0039  0.2273 -0.1704
 3272W        W23552   5.995   4.108   4.075 -0.0759  0.2066 -0.0050
 3273W        W23553   4.641   5.169  13.104  0.3288  0.0872 -0.2925
 3274W        W23554   2.638   9.441   1.137  0.2391 -0.3264 -0.1128
 3275W        W23555   8.362   9.439   3.881  0.2564  0.1120  0.1899
 3276W        W23556   1.194  15.376   3.793 -0.2567  0.1321 -0.0027
 3277W        W23557   6.385  19.386  11.393 -0.0985  0.1518  0.1781
 3278W        W23558   5.305  14.758  11.166 -0.0438 -0.1401  0.0208
 3279W        W23559   1.169  10.369   0.445 -0.1194 -0.0191  0.0794
 3280W        W23560   6.647   7.848  10.643  0.1294 -0.0917 -0.2384
 3281W        W23561   6.610  10.233  10.407 -0.1404  0.0225  0.0094
 3282W        W23562  14.236   4.331  10.579  0.0660 -0.0119 -0.1444
 3283W        W23563  11.642  16.018   1.300  0.0678  0.0787  0.0813
 3284W        W23564  13.009  15.118   1.062  0.1995  0.1040 -0.0176
 3285W        W23565   0.813  12.734  10.330  0.1362  0.2364 -0.0858
 3286W        W23566   6.706  15.170  14.489 -0.1226 -0.0075  0.2246
 3287W        W23567  14.455   3.639  14.470  0.4687  0.1399  0.0334
 3288W        W23568   2.490   2.595  11.008 -0.1799  0.0661 -0.0969
 3289W        W23569   7.604   3.175   3.356  0.1794  0.0931  0.0180
 3290W        W23570  19.244   6.547   4.839  0.1449 -0.1750 -0.1343
 3291W        W23571  17.619  16.127   3.855  0.1439 -0.0939  0.0651
 3292W        W23572  18.819  13.123  10.839 -0.1965 -0.1286 -0.0930
 3293W        W23573   5.647   4.015   3.085  0.0490 -0.1598  0.1076
 3294W        W23574   1.323  13.297   2.200 -0.3065 -0.0802 -0.0631
 3295W        W23575  17.296   0.769   3.601 -0.0940  0.1512 -0.1643
 3296W        W23576  15.301   1.697   1.603 -0.0599  0.1822 -0.0675
 3297W        W23577  14.514  13.689   2.843  0.2720 -0.2033 -0.1630
 3298W        W23578  18.856   4.835   1.044 -0.1527  0.2454 -0.1664
 3299W        W23579  19.105   3.493  10.646 -0.3902 -0.0675 -0.0210
 3300W        W23580   6.001   1.829   0.166 -0.3806 -0.2650 -0.2861
 3301W        W23581  13.023   7.927   2.695  0.0307  0.3351 -0.0415
 3302W        W23582   4.940   7.816   2.869 -0.1620  0.2078 -0.0361
 3303W        W23583   8.221   0.359  12.321 -0.1101  0.1098  0.3413
 3304W        W23584   3.617   3.199   1.438  0.0010  0.0287 -0.1648
 3305W        W23585   9.133   2.840   0.083 -0.0202  0.1911  0.0833
 3306W        W23586  17.054   4.254  13.750  0.1779  0.2052 -0.2293
 3307W        W23587  10.902  15.015   1.755  0.2984  0.1150 -0.0118
 3308W        W23588   6.978   1.993   4.257  0.1523 -0.1615  0.1459
 3309W        W23589   3.131  14.758   1.326  0.1588  0.1412 -0.0598
 3310W        W23590  17.739  15.416   4.519 -0.0700  0.1032 -0.1611
 3311W        W23591  11.953   7.604  10.761  0.0264 -0.3045  0.0322
 3312W        W23592  16.273   6.658   3.935 -0.1293 -0.0366 -0.0972
 3313W        W23593  18.515  14.661  13.770 -0.1039 -0.0748  0.2732
 3314W        W23594   1.542  17.542   1.921  0.0774 -0.0257  0.2675
 3315W        W23595   3.507   0.666  13.807 -0.3347  0.0383 -0.0552
 3316W        W23596   6.124   7.112  10.701 -0.3064  0.2896  0.1796
 3317W        W23597  10.696  18.698  13.316  0.0893 -0.0531  0.0483
 3318W        W23598  17.065   3.955  12.002  0.1118 -0.2166 -0.0272
 3319W        W23599   8.620   1.672   2.425  0.1933  0.1557 -0.0718
 3320W        W23600  12.724  13.963   0.219 -0.2476  0.1046  0.2365
 3321W        W23601   6.101  14.420   2.759  0.6470 -0.1213 -0.0883
 3322W        W23602  17.157   4.221   4.540  0.0841 -0.2533  0.0034
 3323W        W23603   8.634  10.970  11.774  0.0506  0.1560  0.0722
 3324W        W23604  13.156  18.387  14.144 -0.2278  0.0602 -0.1487
 3325W        W23605   9.830  19.242   1.000 -0.1149  0.2610  0.3859
 3326W        W23606  14.137   1.862   0.309 -0.1679 -0.4846 -0.3004
 3327W        W23607   1.821  12.724   0.557  0.0220 -0.2449  0.2569
 3328W        W23608  15.511  13.835  11.993  0.0208  0.4572 -0.1850
 3329W        W23609  19.213  19.011  10.467 -0.2678  0.2972  0.2178
 3330W        W23610   3.383  18.568   3.470 -0.3242  0.1619 -0.0383
 3331W        W23611  10.042  11.112   2.827 -0.1215  0.1568 -0.0368
 3332W        W23612  16.414   1.821   1.222 -0.5994 -0.0939 -0.2665
 3333W        W23613   2.715   1.638   1.711  0.0303  0.3676 -0.1330
 3334W        W23614  13.050  15.538  11.557 -0.0944 -0.4025  0.3639
 3335W        W23615   0.914  17.022  11.982  0.0299 -0.0100  0.0134
 3336W        W23616  13.199  12.480   2.881  0.0304  0.1346  0.0483
 3337W        W23617  16.606  18.739  12.010 -0.0406  0.1362 -0.0569
 3338W        W23618  11.552  12.283  13.573  0.0925 -0.0664  0.0091
 3339W        W23619  11.376  13.953  12.415  0.2654  0.2961 -0.2221
 3340W        W23620   3.409  13.782  13.572 -0.2348 -0.0603 -0.0021
 3341W        W23621   7.650   8.172   1.656 -0.0142  0.0427  0.0860
 3342W        W23622  15.834  12.423   3.862 -0.0691  0.5970  0.2058
 3343W        W23623  10.456  14.203  12.455 -0.0544 -0.1508  0.0757
 3344W        W23624   0.524  15.141  14.356  0.0042 -0.4117  0.0735
 3345W        W23625   3.579   8.699   2.047  0.3512  0.0658 -0.0030
 3346W        W23626  16.757  19.328   0.397 -0.1939 -0.1331 -0.1132
 3347W        W23627  10.873   5.028  14.054 -0.2623  0.0477 -0.0304
 3348W        W23628   2.223  13.944  11.081  0.3700 -0.1888  0.0311
 3349W        W23629  13.702  10.410   9.426  0.0094 -0.0660 -0.1296
 3350W        W23630   5.173   5.417  12.811  0.0546  0.2822 -0.0702
 3351W        W23631  14.804  14.130  14.022 -0.1449  0.2485  0.1027
 3352W        W23632  15.413  18.919   0.435  0.0584  0.1517 -0.0610
 3353W        W23633  12.397   0.955   1.917 -0.1652 -0.1425 -0.2864
 3354W        W23634  13.223  18.528  13.615  0.3560 -0.1350  0.1511
 3355W        W23635   3.579   3.739   1.555 -0.0578  0.0828 -0.0165
 3356W        W23636   2.431  16.375  13.931  0.0919 -0.2660  0.2632
 3357W        W23637  13.681   0.841  14.138 -0.1740  0.2249  0.1156
 3358W        W23638  14.569  18.100  11.567 -0.0060  0.2165 -0.1400
 3359W        W23639  16.983  16.159  10.247 -0.1023  0.0902 -0.0092
 3360W        W23640   6.083  19.420  10.990  0.3782 -0.3335 -0.0261
 3361W        W23641   1.407   8.030   0.109  0.1520  0.0483 -0.1163
 3362W        W23642  12.918  16.016   1.296  0.2923 -0.1437 -0.3316
 3363W        W23643   2.263  13.521  12.633  0.1606  0.0500 -0.0394
 3364W        W23644   0.187  13.883   0.670 -0.1265 -0.0964  0.0140
 3365W        W23645   5.092  10.722   0.061  0.0148  0.1511  0.0233
 3366W        W23646   7.698  16.811   0.326 -0.0911  0.1049  0.0808
 3367W        W23647   8.429   1.742  13.716 -0.1462 -0.0251  0.0772
 3368W        W23648   7.470  16.138   0.976  0.2421  0.1443 -0.4139
 3369W        W23649   0.416   0.388  13.065 -0.4755 -0.0189  0.0135
 3370W        W23650   1.583   9.524   0.824 -0.0839 -0.0860 -0.0893
 3371W        W23651   3.930  15.039  13.255  0.2541  0.1759 -0.0660
 3372W        W23652   2.123   0.087  14.460 -0.3317  0.3280  0.0197
 3373W        W23653  11.878  16.956   1.316 -0.1362 -0.0511  0.1083
 3374W        W23654   2.883   8.457   2.531  0.1952  0.3241  0.2294
 3375W        W23655   8.374   9.234   4.319 -0.0570  0.0184 -0.1227
 3376W        W23656  11.954   5.422   0.430  0.2086 -0.1905  0.0732
 3377W        W23657   3.303  10.346   0.660  0.1938 -0.0572 -0.0360
 3378W        W23658   7.886  15.430   2.226  0.0023  0.0107 -0.1728
 3379W        W23659   1.116   3.398  13.052  0.3611  0.0346 -0.1661
 3380W        W23660  14.993  11.561   0.659 -0.1788 -0.0186  0.1769
 3381W        W23661   9.882   9.081   0.808  0.3525 -0.0037  0.1341
 3382W        W23662   3.591   7.052  12.367 -0.1016  0.1393  0.2350
 3383W        W23663  15.163   2.029   0.170 -0.1411 -0.0815 -0.0258
 3384W        W23664   5.907  17.367  14.125  0.0855  0.2074 -0.2207
 3385W        W23665  17.569  15.572   3.328 -0.0155  0.2992 -0.1134
 3386W        W23666  18.133  12.653  10.307 -0.0659 -0.1108 -0.0426
 3387W        W23667   2.511  17.302   0.220  0.1089  0.2868 -0.2661
 3388W        W23668   1.119   3.454   1.968  0.0380  0.2355 -0.0458
 3389W        W23669   4.314  15.871   4.462 -0.2172 -0.0680  0.1241
 3390W        W23670  10.390   2.732   0.592 -0.1593 -0.1727  0.1639
 3391W        W23671  10.799   6.967  11.367 -0.1119 -0.0229 -0.1943
 3392W        W23672   6.003  17.290   2.381 -0.0624 -0.2828 -0.2690
 3393W        W23673   7.017   5.031   3.667 -0.0876 -0.0189 -0.0813
 3394W        W23674   0.107   3.370  11.041  0.2963 -0.2155  0.0651
 3395W        W23675  12.497  13.595  12.824  0.0615 -0.0058  0.2096
 3396W        W23676  15.895   6.330   1.492  0.1711  0.2769 -0.3918
 3397W        W23677   6.261   8.159  10.500 -0.2612  0.1076  0.1363
 3398W        W23678   1.439   4.446   5.211  0.2274 -0.0476 -0.0726
 3399W        W23679   8.630   1.428   0.605 -0.0703 -0.2869 -0.1086
 3400W        W23680  17.448   1.470   1.235  0.1430  0.4153 -0.1614
 3401W        W23681  18.479  11.803  14.331  0.3811  0.1068 -0.0535
 3402W        W23682   5.390   0.929   2.124  0.0259 -0.2909  0.1025
 3403W        W23683   1.486  17.452  12.217 -0.0604  0.0381  0.2564
 3404W        W23684   5.404  16.997   0.379  0.1464 -0.1150  0.1058
 3405W        W23685   2.742   9.081   0.823  0.1150 -0.1058 -0.3121
 3406W        W23686  12.294  16.750   2.304  0.0169  0.0129 -0.0429
 3407W        W23687   1.382   6.065   4.857 -0.2142 -0.0140 -0.0360
 3408W        W23688   9.287   7.389   4.268  0.1500  0.1420 -0.0068
 3409W        W23689   4.468   1.198  12.317 -0.0557  0.1606 -0.1396
 3410W        W23690   5.519   5.807   5.174 -0.1333 -0.0066 -0.4144
 3411W        W23691   0.687   7.035   1.158 -0.1561 -0.2203 -0.1556
 3412W        W23692  14.883   2.793   2.681 -0.1640  0.1230 -0.1288
 3413W        W23693   5.689   4.203  12.477 -0.0282  0.2345 -0.2133
 3414W        W23694   6.952   5.088   2.786 -0.0770 -0.1075  0.2942
 3415W        W23695  14.520   3.588   0.534 -0.0538  0.2076 -0.1705
 3416W        W23696  17.391   9.408   0.000 -0.1368  0.0924 -0.0203
 3417W        W23697  11.662  18.089  11.343  0.1422 -0.3163 -0.0074
 3418W        W23698  10.356   1.306   1.279 -0.1629 -0.3372  0.1026
 3419W        W23699   7.944   3.531   0.637  0.2042 -0.3607 -0.2429
 3420W        W23700  15.597  12.872   3.990 -0.2564  0.2227 -0.1331
 3421W        W23701   5.391  15.467   3.224 -0.2596 -0.3503 -0.2045
 3422W        W23702  12.324  17.274   2.520 -0.2065  0.1104 -0.1769
 3423W        W23703   9.428  16.006   1.529  0.1067 -0.1001  0.0933
 3424W        W23704  18.178  15.676   0.650 -0.1032  0.3254 -0.2591
 3425W        W23705   0.923  13.732  12.579 -0.4016  0.1424  0.1143
 3426W        W23706   5.274  16.898  11.614 -0.2015 -0.3601  0.2621
 3427W        W23707   5.316  19.224   1.534 -0.0004 -0.2732  0.0102
 3428W        W23708   9.932  12.427  12.360  0.2819  0.2526 -0.2093
 3429W        W23709   5.783   9.610   3.865  0.0021  0.0558  0.0762
 3430W        W23710  17.838   0.704   1.016 -0.1595  0.2385 -0.0730
 3431W        W23711  13.359  11.044  14.030 -0.3822 -0.0614  0.2127
 3432W        W23712  18.778   8.493  14.393 -0.3833 -0.0449  0.0672
 3433W        W23713  19.406  16.996   0.260 -0.2306  0.0005 -0.2716
 3434W        W23714  17.255  18.823   3.106 -0.1648  0.1635 -0.0812
 3435W        W23715   2.354  11.201  11.128 -0.1873 -0.0805  0.1756
 3436W        W23716   0.642   7.330  13.500  0.1776  0.0575  0.1268
 3437W        W23717   5.822   2.911   1.458  0.0006  0.0861 -0.0984
 3438W        W23718   6.040   3.643   1.631  0.1997  0.0479 -0.0621
 3439W        W23719   9.139  17.055  10.766 -0.1328  0.0742 -0.0799
 3440W        W23720   3.902   0.302   0.709  0.0789  0.1105 -0.1248
 3441W        W23721  14.079  13.850   1.638 -0.1184 -0.1909 -0.3793
 3442W        W23722   4.594  15.493   3.378  0.0552 -0.2906 -0.1601
 3443W        W23723   9.607  12.514  14.044 -0.0129  0.1139 -0.0006
 3444W        W23724  10.126   1.934   3.956 -0.2596  0.0455  0.1239
 3445W        W23725  17.674  15.100  13.565  0.2428 -0.2307 -0.0429
 3446W        W23726  13.281  10.391   1.244  0.1235 -0.2507  0.1448
 3447W        W23727   3.096   2.835   2.617  0.1795  0.2246  0.0155
 3448W        W23728   6.437   9.865  10.720 -0.0266  0.0276  0.1699
 3449W        W23729   1.691  11.754   1.611 -0.2777  0.1726 -0.4771
 3450W        W23730  15.922  14.273   3.935  0.2827 -0.1236  0.2407
 3451W        W23731  10.938  11.390   2.137 -0.2427  0.0733  0.0353
 3452W        W23732   0.888   6.883  13.804 -0.1420 -0.1789  0.0180
 3453W        W23733   8.726  10.263   2.326  0.0225  0.2085  0.2479
 3454W        W23734  14.500  19.379   9.696 -0.1192 -0.2948  0.0129
 3455W        W23735   6.993  15.086   3.817 -0.1666 -0.1804  0.0194
 3456W        W23736  13.956  13.667  11.323  0.2196 -0.2921 -0.2610
 3457W        W23737  14.104  16.155   1.351  0.2214  0.0017 -0.0396
 3458W        W23738  15.685   5.627  14.061  0.0640 -0.1025 -0.0016
 3459W        W23739  12.252   6.597  10.825 -0.0657  0.1568  0.0890
 3460W        W23740  15.009  11.751   0.159 -0.2048 -0.2196 -0.2109
 3461W        W23741   6.027  13.202  10.891 -0.1702  0.4043  0.0223
 3462W        W23742   5.956  13.436  12.878 -0.2850  0.2350 -0.0463
 3463W        W23743  12.850   2.064   1.902  0.0704 -0.0025 -0.2772
 3464W        W23744   3.562   4.924   3.636  0.0873 -0.0156  0.2073
 3465W        W23745  13.056   1.730   2.282  0.2247 -0.1786  0.2161
 3466W        W23746   6.672  10.741   0.120  0.0627  0.4177 -0.0029
 3467W        W23747   9.319  10.477  10.667 -0.1079  0.1152 -0.3415
 3468W        W23748  14.671  16.908  12.532 -0.2018 -0.4883 -0.2966
 3469W        W23749  16.671   6.455  14.223 -0.2157 -0.0049 -0.2913
 3470W        W23750   8.396  15.177   2.089 -0.2568 -0.1990 -0.0555
 3471W        W23751  17.352   2.158   2.494  0.3298  0.3016  0.4290
 3472W        W23752  16.032   7.269  12.881 -0.0548  0.3226 -0.1328
 3473W        W23753  12.931  13.514  11.666 -0.0613  0.2943 -0.2591
 3474W        W23754   6.826   1.238   1.478 -0.1159 -0.0937  0.0767
 3475W        W23755   3.570  13.232  11.003 -0.2757 -0.0188 -0.1313
 3476W        W23756  18.971   1.426  12.534  0.0435  0.1001  0.0767
 3477W        W23757   6.206  18.987  11.170  0.0730  0.1013  0.1457
 3478W        W23758  12.477   1.924  12.033 -0.0139  0.0028  0.1614
 3479W        W23759   7.189  11.820   3.794 -0.0279  0.1197  0.0105
 3480W        W23760  15.102   4.557  11.879 -0.1970  0.0344 -0.1859
 3481W        W23761  11.373  11.833   3.821  0.0070 -0.3141 -0.0307
 3482W        W23762   1.627  16.600   2.955  0.1613 -0.0968  0.1605
 3483W        W23763   9.923   9.279  12.529 -0.1196  0.1452  0.3043
 3484W        W23764   0.019  15.739   1.992 -0.1698 -0.0718  0.0987
 3485W        W23765  19.103  10.388  11.567 -0.4414 -0.2200  0.1331
 3486W        W23766   2.475   6.420  10.700 -0.3005 -0.1214  0.3243
 3487W        W23767   6.737  11.008  12.625 -0.0825 -0.1858 -0.3546
 3488W        W23768  11.271  12.720  11.598 -0.2985  0.4649 -0.1933
 3489W        W23769   7.834   6.924   2.808 -0.2095  0.0703  0.2305
 3490W        W23770   8.159   0.396  13.370  0.0380 -0.2334  0.0765
 3491W        W23771  13.326   4.866   3.852 -0.1117 -0.0722 -0.1078
 3492W        W23772   0.711  13.189  14.175  0.0816 -0.1399  0.1794
 3493W        W23773  12.283   2.498  12.780 -0.3511  0.2046  0.0197
 3494W        W23774  13.413  15.334   3.996  0.0790  0.1256  0.0045
 3495W        W23775   3.649  15.622   0.276  0.1405  0.1292  0.0657
 3496W        W23776   4.120   5.150  11.978 -0.0097  0.2218  0.0414
 3497W        W23777   7.418   3.768   3.640 -0.0069 -0.1253 -0.1195
 3498W        W23778   3.123   3.101   2.141  0.2619  0.0497 -0.2578
 3499W        W23779  13.552  10.307   0.305  0.1135  0.2770  0.2545
 3500W        W23780   1.259  10.917   1.877 -0.0984  0.0968  0.0401
 3501W        W23781   3.138  13.306   3.229 -0.1138  0.1205 -0.1284
 3502W        W23782  10.579   7.897   1.584 -0.0861  0.0052  0.2428
 3503W        W23783  16.058   8.690  11.771  0.0665  0.1539  0.2749
 3504W        W23784  18.394   4.972   0.713  0.2384 -0.2116 -0.2020
 3505W        W23785   9.653   9.694   3.668  0.4116 -0.0107  0.3592
 3506W        W23786  11.486  10.266   3.154  0.1787  0.0874 -0.0798
 3507W        W23787  14.857  12.915  13.790  0.0967 -0.1431 -0.0285
 3508W        W23788   1.216   4.294  12.231  0.0090  0.2422  0.3132
 3509W        W23789  17.184  14.000  12.519  0.2246  0.0740 -0.0710
 3510W        W23790   0.899   5.131  12.182  0.0258  0.1667 -0.1730
 3511W        W23791   1.913  15.910   0.080 -0.1542  0.1085  0.1084
 3512W        W23792   7.966   1.589   1.482  0.0486 -0.3178 -0.1568
 3513W        W23793  11.484   3.060   1.964 -0.1688  0.3251 -0.2979
 3514W        W23794  11.434  10.571  14.320  0.1573 -0.1027  0.2922
 3515W        W23795   1.332  14.727   3.841 -0.0943  0.0527  0.1319
 3516W        W23796  13.655   0.562   1.845 -0.1505 -0.2474  0.0002
 3517W        W23797   1.186   0.790   0.900 -0.0668 -0.2260  0.0220
 3518W        W23798   4.864  16.518  13.695 -0.0417 -0.1657  0.1310
 3519W        W23799  18.048   3.050   5.009  0.2462  0.2374 -0.1513
 3520W        W23800   2.102  17.609   3.629  0.1694 -0.0078  0.1132
 3521W        W23801  14.163   0.555   1.131  0.0903  0.0255 -0.0328
 3522W        W23802   7.814   1.876   2.754 -0.2790  0.0723  0.1011
 3523W        W23803  11.506   4.905   1.439 -0.1390 -0.1083 -0.0366
 3524W        W23804  13.666   2.400   0.784 -0.1005 -0.1527 -0.0924
 3525W        W23805   9.831  15.375   3.334  0.2542  0.0931  0.0898
 3526W        W23806  15.204   7.243   0.774 -0.0526  0.2514 -0.1017
 3527W        W23807   4.666   4.805  13.873  0.3137  0.1812 -0.3053
 3528W        W23808  17.033   1.667  13.419 -0.1043  0.0566  0.1139
 3529W        W23809  16.514  14.355   1.769 -0.0275 -0.0897 -0.1041
 3530W        W23810  14.532  10.951   4.019 -0.0853  0.1705 -0.0904
 3531W        W23811  18.369   3.880  13.842 -0.0661 -0.0637  0.0913
 3532W        W23812   2.549  11.963  13.461 -0.1019  0.1962 -0.2124
 3533W        W23813   7.890   8.132   1.000 -0.1728  0.1037 -0.0754
 3534W        W23814  10.385   9.087   1.485 -0.1620  0.3275 -0.1188
 3535W        W23815   3.961  16.252  13.112  0.2687 -0.2350 -0.0799
 3536W        W23816   0.277   1.550  10.931  0.1761 -0.2401  0.1453
 3537W        W23817  18.928   8.747  10.068  0.0060 -0.1708  0.2904
 3538W        W23818   9.820   1.903  10.900 -0.2686  0.2342  0.0642
 3539W        W23819   6.658   4.044  12.427 -0.1327  0.0067 -0.1645
 3540W        W23820  11.243   3.841   2.451  0.0844 -0.0993 -0.0475
 3541W        W23821  14.654  16.824   4.703  0.1181 -0.1723  0.0659
 3542W        W23822  11.432   2.120  10.995 -0.2080 -0.2460 -0.1176
 3543W        W23823  15.490   9.372  14.347  0.2521 -0.0756 -0.1966
 3544W        W23824  18.730   7.423   3.327 -0.0615  0.2433 -0.1753
 3545W        W23825   4.945  10.825   3.947 -0.0654  0.0543 -0.0801
 3546W        W23826  18.567  18.687  14.243 -0.0235 -0.0324  0.0131
 3547W        W23827  16.322   2.658  12.850 -0.0694  0.2878 -0.1024
 3548W        W23828  17.641  14.469   3.180  0.1047 -0.0045  0.1391
 3549W        W23829  19.311   1.619  13.313 -0.0519 -0.0465 -0.2216
 3550W        W23830  13.886  14.725   1.401 -0.0808  0.0048 -0.0475
 3551W        W23831  16.267  11.063  13.106  0.0668 -0.2744 -0.0135
 3552W        W23832  16.382   6.476   1.315  0.3100  0.0932 -0.1355
 3553W        W23833   4.071  18.925  10.626 -0.4173 -0.0009 -0.0495
 3554W        W23834   1.898  18.177   1.218 -0.0029 -0.1779  0.4146
 3555W        W23835  11.981   3.590  13.944  0.2278 -0.1154  0.0084
 3556W        W23836  13.522  11.315  10.500 -0.0510 -0.4193 -0.1054
 3557W        W23837   5.787   9.619   2.430 -0.0332  0.1431 -0.0576
 3558W        W23838   2.605  18.296  11.060 -0.0580 -0.0290 -0.0531
 3559W        W23839   5.881   6.801  13.025 -0.0153 -0.0295  0.2115
 3560W        W23840   7.420  12.084   2.238  0.0226 -0.0505 -0.2084
 3561W        W23841  18.022  13.820   3.790  0.0038 -0.1757 -0.2874
 3562W        W23842  13.885   2.380  11.214 -0.0564  0.1044  0.1164
 3563W        W23843  11.592   6.568   1.156  0.1311 -0.1547 -0.0982
 3564W        W23844  13.739   7.882   3.811  0.1748  0.2025  0.2683
 3565W        W23845   5.093   3.308  14.288 -0.2732  0.0729  0.0301
 3566W        W23846  17.339  17.697   0.913 -0.4036 -0.1673  0.1556
 3567W        W23847  14.951  13.397   1.846 -0.2789  0.1225  0.4380
 3568W        W23848   0.699  12.597  12.394 -0.0998 -0.1831  0.0870
 3569W        W23849   9.015   0.097   0.559  0.3214  0.1012 -0.0162
 3570W        W23850   2.107   9.663  14.467 -0.0195 -0.1711  0.0100
 3571W        W23851   2.821  10.958   1.914 -0.0058 -0.1097  0.1234
 3572W        W23852   6.536  13.981   0.805  0.1112  0.2235 -0.1334
 3573W        W23853  11.979   4.172  11.796  0.1437  0.0583  0.1379
 3574W        W23854   0.220   3.321   5.047  0.1511 -0.0440  0.0847
 3575W        W23855   7.954  13.586  13.944 -0.2354  0.3060 -0.4100
 3576W        W23856   5.891  17.579  13.704 -0.0744 -0.0162  0.1440
 3577W        W23857   2.696  10.165  12.744 -0.1703 -0.1330 -0.1223
 3578W        W23858   4.925  15.406   3.025 -0.0996 -0.0825  0.0181
 3579W        W23859  15.676  15.319  12.354 -0.0456 -0.3523  0.0933
 3580W        W23860  14.037   9.054  11.915 -0.0421  0.0936 -0.0567
 3581W        W23861   1.388  18.218   2.361 -0.3033  0.0577 -0.0752
 3582W        W23862   0.383  19.155  14.295 -0.1367  0.0131  0.2428
 3583W        W23863   1.869  13.793  12.857 -0.1683 -0.2658 -0.0960
 3584W        W23864   6.118  14.059  12.684  0.0168 -0.2822  0.1053
 3585W        W23865  16.559  17.050   0.247  0.0728 -0.0516  0.0698
 3586W        W23866  11.197  10.155  14.227 -0.1786 -0.0639 -0.1859
 3587W        W23867   5.130  18.118  11.805  0.1359  0.0903  0.1008
 3588W        W23868   9.527  19.217  12.326 -0.0521  0.2291 -0.1035
 3589W        W23869  12.987   7.746  12.751  0.0815 -0.0017  0.0435
 3590W        W23870  15.705   0.215  12.412 -0.1946 -0.1532  0.0059
 3591W        W23871   0.534   2.503   0.529  0.2257  0.1285 -0.4485
 3592W        W23872   2.394  12.143   0.946  0.1213  0.0390 -0.1817
 3593W        W23873  18.154   5.281   2.024 -0.3546 -0.1617 -0.0460
 3594W        W23874   0.070  16.295  10.289  0.1766  0.4853  0.3450
 3595W        W23875  11.192  19.423   2.412 -0.2799  0.1178 -0.2372
 3596W        W23876  18.120   6.208   3.400  0.2153  0.0905 -0.0044
 3597W        W23877  10.324   2.995  13.752  0.1476  0.0928  0.0273
 3598W        W23878  14.798  18.903  11.636  0.4666  0.1960  0.1044
 3599W        W23879  16.657  11.583  10.093 -0.1358 -0.4589  0.2338
 3600W        W23880   4.037  12.601   4.649 -0.2533  0.0038 -0.0839
 3601W        W23881   8.978   5.158  10.617  0.0022  0.2919 -0.2295
 3602W        W23882  19.110  10.196   1.275  0.0173  0.2370  0.0417
 3603W        W23883  18.303   4.157  12.427 -0.0681 -0.5557 -0.2308
 3604W        W23884  19.127   7.259  10.897 -0.2191 -0.1036 -0.1073
 3605W        W23885  10.401   3.329  13.327  0.0685  0.2673  0.0332
 3606W        W23886   2.902  12.926   4.927  0.0576  0.2195 -0.0889
 3607W        W23887  14.182  14.869  13.676 -0.0501 -0.0108  0.1253
 3608W        W23888  16.387  16.111   2.779 -0.3845  0.3807  0.1469
 3609W        W23889  13.443   4.435   0.116 -0.1861 -0.2175  0.3044
 3610W        W23890   8.919  14.510   4.299  0.3308 -0.0096  0.0736
 3611W        W23891   2.027   5.738  10.949 -0.1462  0.1203  0.1890
 3612W        W23892   1.216   4.609  13.208 -0.0121 -0.0652  0.2878
 3613W        W23893   5.151   1.433   0.856 -0.0839 -0.1106 -0.3571
 3614W        W23894   9.563   4.221   3.078 -0.0596 -0.0246 -0.3590
 3615W        W23895  13.078  15.487  13.352  0.1359 -0.0208 -0.3443
 3616W        W23896  13.089  18.330  11.345 -0.1556 -0.4508 -0.1197
 3617W        W23897  11.432   2.731   2.751 -0.1285 -0.0556 -0.0197
 3618W        W23898   4.643  12.544   1.779  0.3078 -0.1281 -0.0977
 3619W        W23899   4.180  13.542   9.905  0.1275  0.1461  0.2086
 3620W        W23900   7.642   3.574  14.137 -0.1067 -0.0757  0.0892
 3621W        W23901  10.034   3.922  12.238  0.2462 -0.0832  0.3102
 3622W        W23902  18.294   0.111  11.248  0.0482 -0.1259 -0.3689
 3623W        W23903  13.736   1.967   3.686  0.1244 -0.1294  0.1219
 3624W        W23904  11.559  17.172   1.975 -0.0222  0.1340  0.0203
 3625W        W23905   0.926   1.087  10.418  0.2195 -0.4192 -0.5978
 3626W        W23906  18.640  10.865  13.559  0.1933 -0.0257 -0.2329
 3627W        W23907   7.888   7.081  11.984  0.0699 -0.0008 -0.3131
 3628W        W23908  17.648   8.589  12.814 -0.1541  0.3042  0.2644
 3629W        W23909   4.887   0.852   1.164 -0.1940  0.3297  0.0894
 3630W        W23910  16.360   3.972   2.930 -0.3093 -0.1512 -0.0272
 3631W        W23911  10.085   0.797   0.528 -0.0110 -0.1112  0.3753
 3632W        W23912  12.775   8.587   1.355 -0.4271  0.1678  0.2698
 3633W        W23913   0.772   1.619  11.182  0.0687 -0.2677 -0.3338
 3634W        W23914   1.966   5.457  13.363  0.0648  0.1458 -0.0030
 3635W        W23915   8.551  15.412  12.708 -0.1661 -0.0199 -0.3624
 3636W        W23916  18.904   8.534   4.673  0.2653  0.2147  0.0084
 3637W        W23917  14.056  17.861   4.037 -0.0265  0.1356 -0.1614
 3638W        W23918   0.694  11.037  13.524  0.1301 -0.1258 -0.0166
 3639W        W23919   6.543   1.867   4.588 -0.2106  0.1668  0.2813
 3640W        W23920  10.736  15.536  11.086  0.2123 -0.1082  0.1230
 3641W        W23921  16.688   6.515  13.381 -0.1238  0.0763  0.1828
 3642W        W23922   1.404   5.857  10.905 -0.0234  0.2554  0.0484
 3643W        W23923  18.453   2.469  12.285 -0.0630 -0.0662  0.0250
 3644W        W23924  17.679  18.370   4.112 -0.1184  0.1637 -0.2088
 3645W        W23925  15.382  11.448   9.381  0.0727  0.1652 -0.0485
 3646W        W23926  16.023   3.554   5.200 -0.3391 -0.0013  0.2001
 3647W        W23927  16.076   9.032  13.077 -0.0450  0.1956  0.4000
 3648W        W23928  18.919  13.032   0.285  0.1157  0.0820 -0.1855
 3649W        W23929   5.781  15.603  11.460  0.0071 -0.1179  0.0490
 3650W        W23930   2.524   3.691   3.565  0.1899  0.2041 -0.0340
 3651W        W23931   2.618   3.328   2.096 -0.0943 -0.3807  0.0703
 3652W        W23932   8.617   0.888  11.122 -0.2359  0.1149  0.0162
 3653W        W23933   6.527  15.454  12.555  0.0906 -0.1780 -0.2162
 3654W        W23934   0.399  18.404  11.054 -0.0982 -0.3469  0.0731
 3655W        W23935   4.789   9.519  10.120  0.0288 -0.2634  0.0155
 3656W        W23936  10.369  11.330   0.448  0.3098  0.0093  0.3211
 3657W        W23937  16.284   0.068  10.939  0.1535  0.2202  0.0016
 3658W        W23938   6.513  13.300  10.728 -0.1216  0.0099 -0.0800
 3659W        W23939  10.657   1.863  14.458 -0.0383 -0.1435 -0.1121
 3660W        W23940  12.649  18.287   3.688  0.1816 -0.3518 -0.1312
 3661W        W23941  15.512  17.770  14.386  0.2301  0.0509 -0.2019
 3662W        W23942   0.048  18.148   0.704  0.0327  0.1291  0.3372
 3663W        W23943  13.584  18.796  14.186 -0.1236 -0.0915 -0.1523
 3664W        W23944  10.775  11.819  13.604 -0.0481  0.0828 -0.0656
 3665W        W23945   9.905   8.871  10.907 -0.0792 -0.2548  0.0671
 3666W        W23946  19.110   3.631  12.743 -0.0097 -0.1699 -0.4554
 3667W        W23947  15.484   8.383  12.567  0.0458  0.2486 -0.2136
 3668W        W23948  11.596  14.060   4.110  0.2627  0.1729  0.2335
 3669W        W23949   3.895  16.615  12.573 -0.1462 -0.1173 -0.0765
 3670W        W23950  16.356   4.857  11.268  0.0437  0.0362 -0.0470
 3671W        W23951   7.795   3.617  11.030 -0.1746 -0.0084 -0.1356
 3672W        W23952   8.924   9.840   1.700 -0.0992  0.1482 -0.0387
 3673W        W23953   4.947  14.135   2.004 -0.1620 -0.1342 -0.1112
 3674W        W23954   5.272   7.293   2.382  0.0204  0.1407 -0.1692
 3675W        W23955   4.190   8.167   2.733 -0.3426 -0.0006 -0.0234
 3676W        W23956   0.332  12.653   1.467  0.1590 -0.2317 -0.2325
 3677W        W23957  11.830   6.633   2.400 -0.3081  0.0231 -0.0516
 3678W        W23958   0.511   9.005  10.812  0.0565  0.0372  0.0414
 3679W        W23959   8.853  13.468   2.481 -0.1307 -0.2077 -0.0745
 3680W        W23960  10.305  12.081   2.978 -0.0029  0.4123 -0.3067
 3681W        W23961  16.477  12.522   0.423  0.3578 -0.0111 -0.0998
 3682W        W23962   1.934   0.783   0.287 -0.3520 -0.2407 -0.0661
 3683W        W23963  15.217   1.095   0.671 -0.3579  0.2056 -0.0995
 3684W        W23964   3.533  15.912  11.033 -0.1284 -0.0009 -0.2351
 3685W        W23965   3.990  10.524  14.169  0.0678 -0.2890  0.4605
 3686W        W23966  14.515  16.421   1.442  0.2546  0.2194  0.1119
 3687W        W23967   1.240  12.433  12.180 -0.0322  0.1314  0.1075
 3688W        W23968  12.310   4.875  10.548  0.2729 -0.0689  0.1053
 3689W        W23969  19.308   3.280   3.521  0.1275 -0.0714 -0.2446
 3690W        W23970   4.195   8.253  13.793 -0.1132  0.1838 -0.2482
 3691W        W23971   0.564   1.545   9.969  0.1019 -0.1326  0.1071
 3692W        W23972   1.047  17.317   5.414 -0.0416 -0.0189  0.1031
 3693W        W23973   3.597   4.888  12.294 -0.0884  0.1929  0.2740
 3694W        W23974  12.665  13.135  10.913 -0.0600  0.1344 -0.2958
 3695W        W23975   5.132  18.149  13.375 -0.0476  0.0123  0.2394
 3696W        W23976   7.286  12.750  14.150  0.3104  0.0212  0.0988
 3697W        W23977  12.448  16.940   1.091 -0.1045  0.1189  0.2726
 3698W        W23978   8.472  12.335   1.627 -0.1250  0.0091  0.0690
 3699W        W23979  19.296  13.593  12.346  0.0997  0.0545 -0.0606
 3700W        W23980   7.321  16.197   1.461  0.4613  0.2420 -0.0195
 3701W        W23981  15.755  10.192  11.044 -0.0691  0.3108 -0.0654
 3702W        W23982  13.736  16.393   3.172 -0.1180  0.2270 -0.0025
 3703W        W23983   2.299  15.979   0.614  0.0251  0.1658 -0.0239
 3704W        W23984   6.564   3.516   0.676  0.0747  0.1504 -0.1255
 3705W        W23985   7.154   4.249   3.396  0.0908  0.0799  0.0192
 3706W        W23986  11.162   4.648   0.445  0.0310  0.1094 -0.2342
 3707W        W23987   7.289   2.429  14.494 -0.2203  0.0764  0.0404
 3708W        W23988   9.418   7.905   3.894 -0.3867  0.0605  0.0616
 3709W        W23989   3.969  13.981  14.267 -0.2286 -0.1136  0.0008
 3710W        W23990  18.216   1.586   1.632  0.2658 -0.1700  0.0086
 3711W        W23991   3.165   3.933  12.692 -0.2673 -0.1998  0.0141
 3712W        W23992   3.534   9.086  13.826 -0.2282  0.0713 -0.0087
 3713W        W23993   0.390   9.938  13.684  0.0125 -0.2683 -0.1481
 3714W        W23994   6.642   0.999  11.366 -0.1329 -0.0586  0.2637
 3715W        W23995  12.783  13.633  12.169 -0.1903  0.0001  0.2116
 3716W        W23996   4.218  17.180   2.035 -0.0729  0.0197 -0.2886
 3717W        W23997  15.623   8.382  10.833  0.0015 -0.0897  0.0282
 3718W        W23998   7.708  14.295  13.341  0.1653 -0.1813 -0.1720
 3719W        W23999   7.094  10.705  10.818 -0.0417 -0.0046  0.1051
 3720W        W24000  17.750  13.759  11.008  0.0734 -0.1338 -0.2695
 3721W        W24001  14.487   6.098  13.107  0.1522  0.2020  0.0997
 3722W        W24002   9.998   3.289   1.309  0.0665  0.2281 -0.1281
 3723W        W24003  16.843  14.081  11.230 -0.4799 -0.1632 -0.1013
 3724W        W24004   2.027   3.294  12.001 -0.1157  0.1174 -0.0266
 3725W        W24005   7.386  12.134   0.297 -0.4673 -0.3738  0.3793
 3726W        W24006   6.660   9.834   4.194  0.0889  0.0750 -0.0860
 3727W        W24007   3.487  18.736   0.963 -0.1962 -0.1547  0.1409
 3728W        W24008  10.203   7.342   3.772  0.1353 -0.1365  0.1552
 3729W        W24009  16.405   0.174  11.421 -0.1769  0.0248  0.0270
 3730W        W24010  11.246  16.440  11.727  0.2270 -0.0661 -0.2146
 3731W        W24011  14.055  19.139  13.473 -0.3776  0.0680 -0.1058
 3732W        W24012   2.631  16.311   3.614  0.0782  0.4397  0.2580
 3733W        W24013  10.935  10.731   0.448  0.2303 -0.0061  0.3853
 3734W        W24014   4.685  18.444   1.088 -0.2895  0.1917  0.1022
 3735W        W24015  15.118   2.668  10.575 -0.3502  0.0034 -0.0148
 3736W        W24016   6.718  14.130   3.852  0.0242 -0.1276 -0.1040
 3737W        W24017   8.672  18.922   3.715  0.1425  0.0395 -0.0247
 3738W        W24018   3.824  17.987  13.142 -0.0506  0.2599  0.1606
 3739W        W24019   6.113   6.468  13.289  0.1894  0.1991 -0.4904
 3740W        W24020  13.303  15.010   3.053  0.0459  0.1576 -0.3129
 3741W        W24021  12.204  13.018  13.515 -0.1634  0.3150 -0.0269
 3742W        W24022  15.032   5.661   4.015  0.1163 -0.3680 -0.0370
 3743W        W24023  15.800  11.988   1.351  0.0217  0.0233 -0.2502
 3744W        W24024   4.768   2.300  11.431  0.0530  0.0527  0.1781
 3745W        W24025  14.202  15.250   2.733 -0.0018 -0.2652 -0.2279
 3746W        W24026   5.562   9.583   2.871 -0.3599 -0.0299 -0.2801
 3747W        W24027  12.415   3.196   2.878  0.2559  0.1058  0.0084
 3748W        W24028   4.846  11.397   1.387 -0.0542 -0.0766  0.0885
 3749W        W24029   3.848   0.825   2.399  0.3741  0.2733 -0.2518
 3750W        W24030   5.841  12.654   0.182  0.0390 -0.0066 -0.0352
 3751W        W24031   6.212   1.906  11.793 -0.0395 -0.0735 -0.0491
 3752W        W24032   6.572   9.401  12.184  0.1079 -0.2337 -0.1522
 3753W        W24033   0.432  11.312  13.181  0.0276 -0.1875 -0.0464
 3754W        W24034  11.566   9.602   1.178  0.2593  0.1144 -0.1883
 3755W        W24035  17.528   1.219   0.775 -0.1450 -0.2211 -0.0446
 3756W        W24036   7.055   6.482  11.217  0.0826  0.1001 -0.0759
 3757W        W24037  14.087   7.461   0.872 -0.2552 -0.1425  0.1131
 3758W        W24038  18.308   4.218   3.184 -0.1061  0.1128  0.2335
 3759W        W24039  15.865   9.157  10.300  0.1267  0.2030  0.2249
 3760W        W24040  15.458  14.914   3.631 -0.2194 -0.1249  0.1326
 3761W        W24041  13.112   4.319  12.732  0.3279  0.0081 -0.1161
 3762W        W24042   2.809   4.874  11.967 -0.0013  0.3247  0.1612
 3763W        W24043  15.694   0.544   2.554  0.2593 -0.0578  0.1181
 3764W        W24044  14.113   3.070   3.679  0.3842  0.2669 -0.2825
 3765W        W24045  12.606   6.809  12.611 -0.1215  0.1576 -0.2218
 3766W        W24046   2.404   6.444  11.647 -0.0832 -0.1235  0.0331
 3767W        W24047   1.232   8.941  11.026  0.3677  0.2870 -0.1440
 3768W        W24048  13.511  13.413   1.441 -0.0510 -0.0175 -0.0727
 3769W        W24049   1.491   1.815  11.745 -0.1508 -0.5913  0.1433
 3770W        W24050   0.981   2.733   1.606  0.0398 -0.1644 -0.0759
 3771W        W24051   8.968  18.898   2.306  0.2009  0.3880  0.0056
 3772W        W24052   0.194   3.696   2.824  0.3156  0.0116 -0.2946
 3773W        W24053  18.248   6.896  11.704  0.2165  0.0451  0.3275
 3774W        W24054   5.203  14.143   2.973  0.1742 -0.2479 -0.2335
 3775W        W24055   9.811  18.568  13.799  0.1084  0.0198  0.0333
 3776W        W24056   4.698   8.154   1.596  0.1168  0.2724  0.4795
 3777W        W24057  16.413   7.835   0.497 -0.3408  0.0348  0.0771
 3778W        W24058   9.893  14.331   1.255  0.0012  0.5110  0.2699
 3779W        W24059  11.066   0.200  11.623 -0.0142  0.0296  0.2148
 3780W        W24060   4.919   6.521  12.686  0.1164  0.2173 -0.0649
 3781W        W24061  10.953  13.376  10.464  0.1236 -0.0427  0.0976
 3782W        W24062  18.430  19.334   1.765 -0.0085  0.2386 -0.0883
 3783W        W24063   6.375   9.445  12.762  0.1170 -0.2499  0.3594
 3784W        W24064   1.498   7.556   9.243  0.0200  0.0377  0.1132
 3785W        W24065  11.262  11.438   4.209  0.2869 -0.0825 -0.0549
 3786W        W24066   7.488   4.372   9.264  0.1198  0.1245 -0.1621
 3787W        W24067  17.031   9.870  13.871  0.1939  0.0278 -0.0389
 3788W        W24068  12.470   1.185   0.336  0.1720  0.0113 -0.1070
 3789W        W24069  15.708   4.853  13.995  0.0939 -0.0660  0.3668
 3790W        W24070  10.936   3.717   3.707 -0.0341 -0.2278 -0.2929
 3791W        W24071  16.353   5.599  12.921 -0.2559  0.2547  0.0085
 3792W        W24072  16.327   7.226   0.566  0.0741  0.0969  0.0203
 3793W        W24073  13.429  12.981  13.277 -0.0629 -0.1065 -0.0750
 3794W        W24074   6.617   3.846   5.075 -0.0578  0.1069  0.0329
 3795W        W24075  14.264   9.080  12.853  0.2825  0.1856  0.2561
 3796W        W24076   9.157   1.797   4.215 -0.0155  0.2516  0.1858
 3797W        W24077   9.587   5.477  12.099  0.1329  0.3596  0.0485
 3798W        W24078  16.744   9.443  13.713  0.1310  0.0712  0.1550
 3799W        W24079   4.394   2.358   3.600  0.0686 -0.2207 -0.0383
 3800W        W24080   7.422  14.587  12.223 -0.0536  0.1464 -0.0340
 3801W        W24081  15.420   0.128  14.332  0.0414 -0.1253 -0.0277
 3802W        W24082   8.624   8.503   3.627 -0.1419 -0.1077  0.3075
 3803W        W24083  12.066  14.378  12.275 -0.1594  0.0098 -0.2752
 3804W        W24084   4.037   1.856   3.285 -0.1992 -0.0093  0.0411
 3805W        W24085   2.976  10.279   0.252 -0.0127 -0.3102  0.1432
 3806W        W24086  11.323   1.869  11.426  0.0049 -0.0154 -0.1368
 3807W        W24087  13.209   3.406   2.468  0.0085  0.2871  0.2336
 3808W        W24088   0.110   0.816   2.702 -0.1450 -0.0704  0.2061
 3809W        W24089  11.002  16.700   1.668  0.2430  0.0498  0.0139
 3810W        W24090  10.954  18.681  10.904 -0.1412  0.1427  0.2081
 3811W        W24091  18.350   6.173   2.953 -0.1486  0.1197  0.0045
 3812W        W24092  17.984   8.930   2.906  0.0061  0.1078 -0.3881
 3813W        W24093  13.589  12.180   3.094  0.1335 -0.2307 -0.1247
 3814W        W24094   4.722  12.475  12.859  0.1734 -0.0637  0.1248
 3815W        W24095  12.145   3.144  11.630 -0.0290  0.1709 -0.0878
 3816W        W24096   9.874   0.634  13.274 -0.1194  0.2049  0.2342
 3817W        W24097   3.109  15.326  13.891  0.1085 -0.1260 -0.1885
 3818W        W24098   2.186   8.335   2.399  0.0672  0.2620 -0.2549
 3819W        W24099  16.782   1.751  11.583 -0.0938 -0.2271  0.2155
 3820W        W24100  19.129  11.198   3.040 -0.1313 -0.1269 -0.0056
 3821W        W24101   1.491  13.142  11.407 -0.3079  0.2444  0.0015
 3822W        W24102   5.814   9.752  14.071 -0.0140  0.0486 -0.0786
 3823W        W24103   6.981  16.254  12.830  0.0914  0.0705 -0.0497
 3824W        W24104   1.740  16.117   3.105  0.0530  0.2653 -0.0136
 3825W        W24105   9.260  13.923   0.238  0.1768 -0.0988 -0.0384
 3826W        W24106   6.503  11.465  13.502 -0.2493  0.0766  0.0221
 3827W        W24107   2.896  13.872   1.298  0.0770  0.2473  0.3606
 3828W        W24108  18.116   2.698  11.595  0.2384 -0.0191  0.2926
 3829W        W24109  15.553   2.387   0.326 -0.0967  0.2829 -0.3215
 3830W        W24110   4.639  17.235   3.921 -0.1145 -0.1888 -0.3244
 3831W        W24111   4.009   0.773  11.249 -0.2437 -0.2715 -0.1862
 3832W        W24112  11.187  18.223   0.057 -0.0680 -0.0590 -0.0660
 3833W        W24113  13.686  14.567   0.958  0.2038  0.2877  0.0736
 3834W        W24114   3.161   5.462  11.419 -0.0986  0.1339 -0.5163
 3835W        W24115   1.950   6.016  12.416  0.4245  0.0609  0.4324
 3836W        W24116   6.765  16.405   0.060  0.0169  0.1714 -0.0127
 3837W        W24117   4.369  12.013   1.878  0.2680 -0.0150  0.2518
 3838W        W24118   7.097   5.958  14.062  0.0718  0.0728  0.2235
 3839W        W24119   0.755   1.778   3.115  0.0908 -0.0130 -0.2545
 3840W        W24120  10.789  13.051  11.626 -0.0462  0.0296  0.2679
 3841W        W24121   3.849   0.064   3.155 -0.1584 -0.0688 -0.1280
 3842W        W24122  10.183   1.776  12.572  0.1927 -0.0675 -0.2141
 3843W        W24123  19.361  12.785  11.245  0.1419  0.5159  0.2675
 3844W        W24124  10.931   0.618  13.238  0.2502 -0.0083  0.2744
 3845W        W24125   2.245   6.471   2.148  0.3121 -0.3819  0.4015
 3846W        W24126   0.366  11.639   1.724 -0.2823 -0.1892  0.0655
 3847W        W24127  14.013   5.996  12.886 -0.1465  0.0862 -0.3136
 3848W        W24128  18.339   7.630  13.636 -0.0812  0.3834 -0.2753
 3849W        W24129  18.262   7.224  13.974 -0.0935  0.1366  0.0622
 3850W        W24130  15.454  18.308  12.500 -0.0270 -0.4419 -0.0475
 3851W        W24131   7.014  10.959   3.406 -0.0378  0.2319 -0.0968
 3852W        W24132  18.936  12.648  14.401  0.1341 -0.0583  0.0873
 3853W        W24133   7.481   9.806  14.033 -0.1652 -0.0447  0.0798
 3854W        W24134  18.645  18.534  12.161  0.0707  0.1574 -0.2363
 3855W        W24135  15.195  11.169   0.932 -0.0174  0.1829  0.1482
 3856W        W24136   5.359  10.377  13.573 -0.0496 -0.1159 -0.1262
 3857W        W24137   7.180   7.401  10.941 -0.1369 -0.0975 -0.1031
 3858W        W24138  11.656   3.643   0.878  0.1529 -0.2000  0.0634
 3859W        W24139   0.346  14.300  13.731 -0.0120  0.0523 -0.2330
 3860W        W24140  18.317   1.656   9.846  0.3516  0.1777  0.1386
 3861W        W24141   8.514   5.738  13.459 -0.1073 -0.1954 -0.0121
 3862W        W24142   6.204  18.440  14.419  0.0955 -0.3573 -0.0906
 3863W        W24143   7.046  16.856  14.393 -0.0656 -0.0263  0.1370
 3864W        W24144   3.015  16.277   2.404 -0.1559  0.1463 -0.0685
 3865W        W24145  13.428   2.849  14.021  0.0147 -0.2012 -0.1824
 3866W        W24146  13.788   3.719   3.890 -0.0612 -0.1238 -0.0207
 3867W        W24147  14.688   4.788  11.094 -0.0727  0.1953 -0.1907
 3868W        W24148   5.167  17.588  13.105  0.4129  0.0775  0.1564
 3869W        W24149   2.452   0.816   2.404 -0.2152 -0.2094  0.0218
 3870W        W24150  16.459   1.779   3.489 -0.1223 -0.2808 -0.1903
 3871W        W24151  15.776   4.864  11.847  0.0063 -0.0564 -0.0375
 3872W        W24152  17.876  10.681  12.429  0.2891  0.0725  0.2890
 3873W        W24153  19.328   0.080  13.972  0.1346 -0.1016 -0.0121
 3874W        W24154  15.131   6.257   2.428  0.0879 -0.0745  0.0003
 3875W        W24155  12.259  11.489   0.305  0.1891 -0.0787 -0.0261
 3876W        W24156   0.638  12.714   2.800  0.1516  0.0508  0.0206
 3877W        W24157  17.093   8.593   3.613 -0.1876  0.1736 -0.1319
 3878W        W24158  15.492  15.504  10.982 -0.2733  0.0606 -0.0436
 3879W        W24159   8.819   2.353   3.377  0.2516 -0.3289 -0.2160
 3880W        W24160  16.876  15.173  11.395 -0.0723  0.0565  0.1641
 3881W        W24161   0.752   9.092  12.129 -0.1779 -0.3703 -0.3962
 3882W        W24162   9.588   6.327   1.612 -0.0895 -0.2848  0.1931
 3883W        W24163   3.082  18.426   2.318  0.0470  0.0327 -0.0365
 3884W        W24164   8.146  18.130  11.659  0.0680 -0.0042  0.5814
 3885W        W24165   3.963   6.430   2.628  0.0137 -0.0272  0.2667
 3886W        W24166   5.170  12.177  12.818 -0.0754 -0.2937 -0.0063
 3887W        W24167  18.129   4.916   4.110 -0.0700 -0.1817 -0.1203
 3888W        W24168  10.186   1.192   0.822  0.4422 -0.2609 -0.1548
 3889W        W24169   5.198   5.597   1.029 -0.1512 -0.1640  0.0877
 3890W        W24170  11.943   9.913   1.071 -0.2967 -0.1231 -0.0698
 3891W        W24171  18.393   8.199   0.789  0.2550 -0.3785 -0.0212
 3892W        W24172   2.781  18.102  12.722 -0.1344  0.0107  0.1564
 3893W        W24173  14.846   2.707  11.461  0.1322 -0.3535 -0.0198
 3894W        W24174   9.005  11.071  13.343  0.0489 -0.1961  0.0164
 3895W        W24175   9.695   1.493   0.719 -0.0037  0.0384  0.0551
 3896W        W24176   8.858   9.857   0.745  0.1121 -0.3129 -0.1361
 3897W        W24177  17.275   5.712   0.376  0.0183 -0.3859 -0.0999
 3898W        W24178  10.334  10.821   2.373 -0.1194 -0.4363 -0.1784
 3899W        W24179   3.023   5.940  12.308  0.1083 -0.1531  0.1648
 3900W        W24180  12.878  14.484  12.583  0.0196  0.0607 -0.4292
 3901W        W24181   4.022   8.088   3.178 -0.3916 -0.1592  0.0931
 3902W        W24182  12.750   0.985   4.386  0.2006  0.0815 -0.1719
 3903W        W24183  12.323   3.282   4.118 -0.2278 -0.4421 -0.1113
 3904W        W24184   1.187  17.727  14.341  0.0325 -0.0499  0.1195
 3905W        W24185  15.439  12.859   1.389 -0.1907  0.3237  0.1494
 3906W        W24186  12.911   6.903  11.627  0.0201  0.0805  0.3115
 3907W        W24187  14.691  10.196   3.435  0.2941  0.1035  0.0911
 3908W        W24188   4.658   6.966   0.604  0.3621  0.0954 -0.0493
 3909W        W24189  17.342  16.896   3.295  0.1283  0.0867 -0.2849
 3910W        W24190   5.352  11.094   3.799  0.0040  0.2542  0.0436
 3911W        W24191  19.064   2.413  12.112  0.3649  0.1011  0.2476
 3912W        W24192   1.334  18.349  11.287  0.0414 -0.0728  0.1184
 3913W        W24193  13.081  17.143  13.150 -0.1061  0.1249  0.0148
 3914W        W24194  10.437   6.424   0.496 -0.2492 -0.0263 -0.2814
 3915W        W24195   7.630  19.055   1.614 -0.0776 -0.2808 -0.0549
 3916W        W24196   3.101  17.552   0.309 -0.0826 -0.0941  0.2075
 3917W        W24197  14.831  12.916   5.018  0.1219 -0.1189  0.0261
 3918W        W24198  18.869  17.543   3.222 -0.0385  0.0760 -0.1898
 3919W        W24199  11.713  15.119  13.427 -0.0685  0.1696  0.0183
 3920W        W24200  11.438  16.040   1.799  0.0087  0.1684  0.0696
 3921W        W24201  16.207   3.606  14.337  0.4543 -0.0696  0.2140
 3922W        W24202  11.649   3.707  13.174 -0.2335  0.0162 -0.0672
 3923W        W24203  16.473   6.057   2.791  0.1171  0.0679 -0.4066
 3924W        W24204  16.602   0.690  12.581  0.1918 -0.0568  0.0759
 3925W        W24205   2.787  15.147   2.196  0.1982  0.4413  0.2463
 3926W        W24206  18.387  12.147  13.887  0.1256  0.1412 -0.1774
 3927W        W24207   4.664   8.703  10.775  0.0997 -0.0661  0.2176
 3928W        W24208  11.094  18.664   5.157 -0.0332 -0.1040  0.2484
 3929W        W24209  11.496   1.842   3.581 -0.2561  0.0061 -0.0554
 3930W        W24210   0.415   1.461   2.743  0.0439  0.0833 -0.1069
 3931W        W24211   7.664   6.992   4.525 -0.0660  0.2296 -0.3290
 3932W        W24212   9.566  18.837   0.026  0.1307  0.1532 -0.0179
 3933W        W24213  14.867   1.418   3.815  0.2338 -0.1232 -0.0856
 3934W        W24214  12.222   6.317  13.279  0.0539 -0.3829  0.2559
 3935W        W24215   0.017  17.570   1.965 -0.2383  0.1467  0.0692
 3936W        W24216  16.820   3.168  13.690  0.0907 -0.1131 -0.0282
 3937W        W24217   0.827   7.834  12.020  0.0549  0.4035  0.0525
 3938W        W24218  13.621  18.461  12.566  0.2144  0.0558  0.1046
 3939W        W24219  13.570   5.510   2.614  0.3282 -0.1848  0.0769
 3940W        W24220   3.914   1.115  11.989 -0.2753 -0.3637 -0.1504
 3941W        W24221  18.767   2.041   3.884 -0.1182 -0.0814  0.0419
 3942W        W24222   3.765  13.284   1.772  0.1300 -0.1309  0.1757
 3943W        W24223   4.046   5.729  11.833  0.0084 -0.2966 -0.2432
 3944W        W24224  10.760  13.489  11.252  0.2708  0.2682  0.0837
 3945W        W24225   2.329   3.547  10.706 -0.1037  0.0970  0.0742
 3946W        W24226  12.352   7.660   3.516 -0.0310  0.0318 -0.1816
 3947W        W24227  10.401   4.696   3.095 -0.2549 -0.0179  0.1326
 3948W        W24228   7.736   3.756  12.761  0.1501  0.0862  0.0811
 3949W        W24229   4.742   9.411   3.315 -0.0781  0.2012  0.1323
 3950W        W24230   1.500   3.799  12.823 -0.1064 -0.2106 -0.1675
 3951W        W24231   6.905  19.296  12.929  0.0999 -0.2565  0.2922
 3952W        W24232  10.216  10.182   0.679 -0.2729 -0.2791 -0.2412
 3953W        W24233  17.443   6.645   0.517  0.0056  0.1448  0.1637
 3954W        W24234  10.313  12.321  13.241  0.1159 -0.0975 -0.0355
 3955W        W24235  15.359   2.736   3.454 -0.2386  0.0556  0.3061
 3956W        W24236   2.699  17.221   2.162 -0.0593 -0.0414  0.0231
 3957W        W24237  13.223  11.389  12.276  0.2895 -0.0504 -0.0799
 3958W        W24238   3.408   8.748   0.168 -0.1028  0.3081  0.1176
 3959W        W24239   1.197  13.446   0.839 -0.2456 -0.1395 -0.2027
 3960W        W24240  18.616  14.305  11.408 -0.1660 -0.0366 -0.1283
 3961W        W24241  16.681   2.848   0.549 -0.1603  0.2595  0.1936
 3962W        W24242  17.488  12.485  11.841 -0.0098 -0.0215 -0.2050
 3963W        W24243   3.776   5.454  10.973  0.0875  0.1236  0.2955
 3964W        W24244   6.259  13.972   4.754 -0.0309  0.1287 -0.0098
 3965W        W24245   1.231  16.096   0.773  0.3045 -0.0676  0.3286
 3966W        W24246   4.489   7.403   2.332 -0.1922 -0.0302  0.0828
 3967W        W24247  15.487   3.921  13.261  0.0166 -0.4235 -0.0054
 3968W        W24248   1.164  15.079  13.862  0.2577 -0.0231  0.3821
 3969W        W24249   1.498   1.114   2.600 -0.1262 -0.2115  0.2026
 3970W        W24250   2.108  10.802  13.205  0.1263 -0.1188 -0.0515
 3971W        W24251   5.318  11.895  13.235  0.1825  0.0885 -0.0435
 3972W        W24252  15.277   2.179   4.087 -0.2579  0.0312  0.1701
 3973W        W24253  13.877  12.305  10.612 -0.1308 -0.4168  0.0820
 3974W        W24254  10.778  18.689   1.442  0.0375  0.0610 -0.3170
 3975W        W24255  12.691  11.838  11.218  0.0816  0.0829 -0.1929
 3976W        W24256   7.323  15.068  11.505  0.1240  0.1085 -0.2038
 3977W        W24257   5.634   5.066   3.190  0.1780 -0.1264  0.2553
 3978W        W24258  12.933  11.766   3.758 -0.1075 -0.2348  0.2273
 3979W        W24259   6.215   4.943  11.106 -0.2614  0.4052  0.1154
 3980W        W24260  14.462   9.385  13.843  0.2242  0.1040 -0.0192
 3981W        W24261   5.123  19.108   3.697  0.2009  0.4258 -0.2104
 3982W        W24262   6.977   9.417  11.870 -0.1271 -0.1980 -0.1551
 3983W        W24263  16.523   5.708   3.872 -0.0300 -0.0846  0.0919
 3984W        W24264   4.391  17.425  11.806 -0.1076 -0.0991  0.1672
 3985W        W24265  10.502   1.651   0.856 -0.0670  0.0777  0.1843
 3986W        W24266  18.678   2.249   3.442  0.1384  0.2061  0.0627
 3987W        W24267   3.091   2.401   1.928  0.2405  0.0373  0.0517
 3988W        W24268  15.824  16.301  12.585 -0.1551  0.1074  0.1547
 3989W        W24269   1.432  16.601   3.963  0.0954 -0.2242  0.2168
 3990W        W24270   7.214  16.389  11.831 -0.0488 -0.3814  0.0958
 3991W        W24271   9.811   2.472  11.743 -0.1305 -0.2047 -0.1266
 3992W        W24272  10.745   9.728  14.059  0.1781  0.2521 -0.2227
 3993W        W24273   0.714  17.106   1.369  0.0095  0.0580 -0.1228
 3994W        W24274  15.953   8.176  13.440  0.1160  0.1229 -0.0365
 3995W        W24275  12.529   0.514  13.024 -0.0290 -0.0679 -0.0764
 3996W        W24276  12.955  11.351  10.494  0.0019  0.1491  0.2076
 3997W        W24277  15.742   1.300  12.206  0.1210  0.1417 -0.0149
 3998W        W24278   0.801   6.625  14.425  0.4294 -0.0103  0.2216
 3999W        W24279   0.401  15.922   2.288  0.1228  0.0673 -0.0374
 4000W        W24280  18.237   2.260   4.348 -0.2058 -0.0980  0.1763
 4001W        W24281  10.850   6.926  14.175  0.2714  0.0898  0.4786
 4002W        W24282  16.426   8.223   3.047  0.2589  0.0612 -0.0207
 4003W        W24283   4.528  14.808   2.614  0.0868 -0.1569 -0.0773
 4004W        W24284   8.872   7.099   3.819 -0.0753 -0.0538 -0.1578
 4005W        W24285   9.629   3.734  14.458  0.0968  0.0348  0.0656
 4006W        W24286  12.445   8.968   3.299 -0.6590  0.2114  0.2345
 4007W        W24287   2.919  18.795   1.837  0.0504 -0.0561 -0.2956
 4008W        W24288   2.131   9.250  13.465 -0.1236 -0.1687  0.1953
 4009W        W24289   6.223  13.081   2.884  0.1324  0.0959 -0.0218
 4010W        W24290   3.617   3.496   2.009  0.0721 -0.0906  0.0156
 4011W        W24291  10.478   9.346  12.676  0.0146 -0.0932  0.1282
 4012W        W24292   7.115   5.605  13.750  0.0301 -0.0485  0.0205
 4013W        W24293  10.721   5.649  11.266  0.0981  0.2610 -0.3439
 4014W        W24294   7.944   1.076  10.851  0.0325  0.2316 -0.0615
 4015W        W24295   0.709   9.664   2.931  0.2162  0.1715  0.2782
 4016W        W24296   9.543   1.275   3.197  0.0372 -0.0556  0.2178
 4017W        W24297  15.836  18.355  13.911  0.1132 -0.3529 -0.0312
 4018W        W24298   8.631   7.447  13.459  0.1631 -0.3892  0.2025
 4019W        W24299  17.503   1.619   2.131 -0.3100 -0.1206  0.2198
 4020W        W24300  10.770   7.487   2.326 -0.0025  0.0593 -0.0950
 4021W        W24301   8.971  12.806   3.182 -0.3269 -0.1432  0.1373
 4022W        W24302  15.273  11.465  14.368 -0.2222 -0.1654 -0.2098
 4023W        W24303  17.351   9.969  10.401  0.2237  0.0119 -0.0425
 4024W        W24304   3.352   3.155  12.367  0.0702  0.0706 -0.2734
 4025W        W24305  14.514  17.733   4.219 -0.3999  0.0755 -0.0330
 4026W        W24306  10.325  13.268  11.617 -0.1297 -0.0718  0.3258
 4027W        W24307   1.935   2.055   0.044  0.1272 -0.2189 -0.0682
 4028W        W24308  15.913  18.334  12.326 -0.0374 -0.1629 -0.3829
 4029W        W24309   7.117   0.817  11.385 -0.0689  0.1343  0.0730
 4030W        W24310   0.615   1.687   5.151 -0.0184 -0.0363  0.2231
 4031W        W24311   5.481  17.202   2.330 -0.1965 -0.1153  0.1173
 4032W        W24312   8.877   1.234   1.782  0.0224  0.0130 -0.2926
 4033W        W24313   6.686   4.200  11.798 -0.0296 -0.1318  0.1681
 4034W        W24314  16.889   2.325  10.275 -0.2151 -0.0289 -0.1252
 4035W        W24315   3.387  18.844   2.440  0.4606 -0.1022  0.1010
 4036W        W24316  16.591   0.843   2.146 -0.0512  0.0603  0.0192
 4037W        W24317   9.192   6.864   3.505 -0.3309  0.0944 -0.1009
 4038W        W24318  15.879  15.521  10.071  0.1598 -0.2235  0.2042
 4039W        W24319   8.028   4.554  12.258  0.0665 -0.1475  0.1345
 4040W        W24320   4.073   9.905  12.573 -0.0323 -0.2442 -0.0494
 4041W        W24321   7.500  16.273  12.701  0.1342  0.1892 -0.0575
 4042W        W24322  17.623   6.437  11.709 -0.1618  0.0929  0.0314
 4043W        W24323   9.819   4.825   3.265  0.0000 -0.0088  0.0815
 4044W        W24324  17.879   2.401   2.016 -0.1026  0.0973 -0.0790
 4045W        W24325   5.457   5.902   1.473 -0.0297  0.1491 -0.1488
 4046W        W24326   8.001  17.405   0.794 -0.0069  0.0446  0.2838
 4047W        W24327  13.919   0.550  12.105 -0.1925 -0.0624 -0.0718
 4048W        W24328  16.897  16.620   3.305  0.2594 -0.0034 -0.0962
 4049W        W24329  10.361   9.056  12.193  0.1392 -0.0442  0.1166
 4050W        W24330  10.934   9.233  10.093  0.0805 -0.0540  0.1063
 4051W        W24331   7.295   0.180   0.458 -0.1750 -0.2231  0.1203
 4052W        W24332   8.527  10.636   9.417 -0.1183  0.1579  0.0979
 4053W        W24333   5.076  12.174  14.460  0.4169  0.1577  0.3014
 4054W        W24334   1.825   7.212  11.736  0.0590 -0.2483  0.1603
 4055W        W24335   5.566  10.203   3.142  0.3617  0.1761  0.0386
 4056W        W24336  11.858   0.524   4.431  0.1502 -0.0920 -0.0234
 4057W        W24337   5.911   5.652  10.766 -0.1429  0.3884 -0.1039
 4058W        W24338   0.338   0.101  12.669  0.2725 -0.1637  0.0533
 4059W        W24339   9.697   7.892  14.481 -0.2540 -0.1684  0.2188
 4060W        W24340   0.501   4.402  11.414  0.3304  0.0626  0.2860
 4061W        W24341   6.635  13.791   3.367  0.1775  0.1655  0.0109
 4062W        W24342  13.030  16.525   3.579 -0.1077 -0.1575  0.3060
 4063W        W24343  11.743  11.293   1.710  0.0826  0.0753  0.0833
 4064W        W24344  12.764   4.102  13.958 -0.2709 -0.2222  0.4080
 4065W        W24345  13.800  12.512   0.637 -0.0894 -0.3756  0.2186
 4066W        W24346  11.402   4.847  14.072  0.0950 -0.0338  0.4536
 4067W        W24347   4.612   1.955  14.192  0.4390  0.1583  0.2089
 4068W        W24348  18.368   8.390  13.447 -0.2105 -0.0098  0.0328
 4069W        W24349  15.120  18.780  11.176 -0.2393 -0.1520 -0.6849
 4070W        W24350  11.356   8.310  11.324 -0.3084  0.0159 -0.1075
 4071W        W24351  18.853   8.778  13.056  0.0965 -0.3318 -0.0772
 4072W        W24352   7.188   1.625   3.173 -0.3348  0.0342  0.0514
 4073W        W24353  12.991   0.622   3.577  0.0107  0.5387 -0.0296
 4074W        W24354   7.989   4.166  11.929  0.4884  0.3804 -0.4905
 4075W        W24355   1.318   4.914  13.552  0.0056  0.2193 -0.2514
 4076W        W24356  13.321   8.802   2.842  0.3920  0.2853 -0.0120
 4077W        W24357   9.778   6.266  12.053 -0.0780  0.1508  0.1230
 4078W        W24358   1.325  16.446  13.225  0.2801 -0.3233 -0.0082
 4079W        W24359  16.606   3.315   4.066 -0.4638 -0.1794 -0.1916
 4080W        W24360   0.071   0.339   0.394  0.0661 -0.2553 -0.0640
 4081W        W24361   0.394  18.808  12.564  0.2355  0.3064  0.2065
 4082W        W24362  13.280   0.107   0.982 -0.0577  0.0429 -0.2303
 4083W        W24363   2.340  14.361  11.390  0.1789  0.1254 -0.0746
 4084W        W24364  15.965   9.939  11.360  0.1952 -0.0333  0.1876
 4085W        W24365  16.383  16.493   5.222  0.1734 -0.0956  0.2499
 4086W        W24366  16.010  14.098   1.036  0.0583  0.0953 -0.2678
 4087W        W24367   7.270   9.972  12.501 -0.1644 -0.3098 -0.2348
 4088W        W24368   1.949  13.481  11.190  0.0756  0.1092 -0.0494
 4089W        W24369   7.118   7.936   3.014  0.1059  0.1654  0.1986
 4090W        W24370   9.468   1.812   1.068 -0.2759 -0.0312  0.2427
 4091W        W24371  10.963   9.726   2.461 -0.1674  0.0823  0.0128
 4092W        W24372   9.663   2.873  12.145  0.0810  0.0962  0.1155
 4093W        W24373   9.893  14.403   2.496 -0.0854  0.1162 -0.1611
 4094W        W24374  17.563  15.232   3.715 -0.1432  0.1537  0.0269
 4095W        W24375   9.678   8.985  14.269  0.0172  0.1098  0.3073
 4096W        W24376  15.213  13.502  13.314 -0.1750 -0.0261 -0.0847
 4097W        W24377  18.347   0.758  12.215 -0.0725  0.1342  0.2014
 4098W        W24378  16.159  11.954  13.739  0.4502  0.0136  0.1086
 4099W        W24379   9.772   3.846   3.460  0.0128  0.0152 -0.0045
 4100W        W24380  15.949   3.133   1.768  0.0851  0.0518 -0.1982
 4101W        W24381   0.026   4.089   3.369  0.0862 -0.1995  0.1540
 4102W        W24382   5.081   2.353  13.291  0.1565  0.3434  0.0348
 4103W        W24383  11.168   2.902   2.341  0.0246 -0.0806 -0.0381
 4104W        W24384  14.966   6.339  13.120 -0.2895  0.0407 -0.0659
 4105W        W24385   0.115   6.406   0.160 -0.2589  0.2397  0.0675
 4106W        W24386   1.009  14.514  12.860 -0.1610 -0.0564 -0.2499
 4107W        W24387  17.138  16.804  12.620 -0.1609  0.1063 -0.2091
 4108W        W24388  19.133   0.291   2.550 -0.2177 -0.0238 -0.0736
 4109W        W24389  19.146  12.254  12.160  0.0901 -0.1374 -0.3798
 4110W        W24390  11.121   9.889   1.099  0.1803 -0.2286  0.3059
 4111W        W24391   1.563   9.122   2.826 -0.0892  0.0039 -0.0310
 4112W        W24392   0.413   3.053  11.397 -0.2226  0.0307  0.1914
 4113W        W24393  11.538  15.592  10.626  0.0911 -0.2644  0.1205
 4114W        W24394  17.829   3.463  11.631 -0.0566 -0.1579  0.0162
 4115W        W24395  14.342   2.481  12.592  0.1489 -0.0034 -0.1881
 4116W        W24396   7.414  12.091  14.073 -0.1365 -0.0067 -0.0280
 4117W        W24397   6.017   5.475   9.530  0.0906  0.0572  0.0870
 4118W        W24398  15.022   6.058   3.655  0.1890 -0.0531 -0.0224
 4119W        W24399   5.714  19.014  11.643  0.0545 -0.2604  0.1121
 4120W        W24400  17.290   0.712  10.583 -0.2248  0.2624  0.2936
 4121W        W24401  12.224   0.382  13.357 -0.0702 -0.1579 -0.3905
 4122W        W24402  10.239  12.427   4.190 -0.1398  0.0333 -0.3661
 4123W        W24403  13.177   8.388   3.396  0.1309 -0.0458  0.2574
 4124W        W24404   6.873   0.197  14.371  0.3449  0.2432 -0.3119
 4125W        W24405   2.836  17.969  14.285  0.1181  0.2053 -0.3162
 4126W        W24406   4.046   7.474   1.220 -0.1653 -0.0696  0.2071
 4127W        W24407  14.564  17.953   2.675 -0.2886  0.0456  0.2071
 4128W        W24408   4.326  10.624  12.294 -0.0514 -0.1058 -0.1456
 4129W        W24409  11.175  13.944   0.793  0.2878 -0.1297 -0.0586
 4130W        W24410  13.916  14.421   3.090  0.0178  0.1428  0.0469
 4131W        W24411   8.858  11.240   3.872  0.0576 -0.0913 -0.2637
 4132W        W24412  11.064  17.031  11.370  0.2006  0.0240  0.1208
 4133W        W24413   8.640   2.447   2.929 -0.1216  0.4545  0.0770
 4134W        W24414   9.888  11.197   0.551  0.2629  0.2027 -0.2815
 4135W        W24415  18.219  10.864   0.685 -0.3552  0.1313  0.2261
 4136W        W24416  18.728  13.404   2.841  0.1383  0.0368  0.0698
 4137W        W24417  18.607   5.970   0.810 -0.1058 -0.1473  0.0204
 4138W        W24418  15.824   4.940   1.879 -0.2211  0.3367 -0.0176
 4139W        W24419  15.988  14.637   0.911 -0.1284 -0.1020  0.2118
 4140W        W24420  17.039  12.004   1.469 -0.1260  0.3001  0.2244
 4141W        W24421  16.155  17.695   1.555 -0.1964 -0.0666  0.0637
 4142W        W24422  10.139   3.641  11.379  0.2605 -0.0599  0.0208
 4143W        W24423   9.114  12.120  12.388 -0.0612  0.2967  0.1578
 4144W        W24424  18.732  17.194   1.217  0.0626  0.1240  0.2082
 4145W        W24425   8.801   8.279   1.053  0.1762  0.1554 -0.2773
 4146W        W24426   7.892  10.880   1.020 -0.2391 -0.1238  0.2638
 4147W        W24427  12.826   8.500   3.844  0.4511  0.0625  0.0072
 4148W        W24428   2.438   7.896  13.702 -0.1816 -0.0077 -0.0192
 4149W        W24429  16.080  18.946  14.448 -0.3981  0.0361 -0.0404
 4150W        W24430  14.272   0.076   2.357  0.0211 -0.2433  0.0574
 4151W        W24431  11.376   0.441  10.786  0.2124  0.0722 -0.0595
 4152W        W24432   7.822   4.248   5.019  0.0681 -0.2322  0.0537
 4153W        W24433   2.581   1.721  13.790 -0.0519 -0.3293 -0.2865
 4154W        W24434   4.322   0.871   1.992  0.0698 -0.2486  0.0091
 4155W        W24435   5.211   9.965  13.936  0.0862  0.2857  0.0680
 4156W        W24436  15.144  16.643   1.156 -0.0967  0.2996 -0.0159
 4157W        W24437  14.632   3.642  11.827  0.1336  0.0325  0.1014
 4158W        W24438   5.459  16.167  14.374 -0.1721 -0.4311  0.1301
 4159W        W24439  12.640  15.952   4.983 -0.0605 -0.0976  0.3872
 4160W        W24440   3.101   5.325   3.057 -0.1573  0.1738  0.1607
 4161W        W24441  11.994  10.907  10.472  0.2470  0.2174 -0.2786
 4162W        W24442  13.770   0.049   0.231 -0.1007  0.0896 -0.1074
 4163W        W24443   6.463   8.363  12.139  0.2822  0.1097 -0.0652
 4164W        W24444   2.345   4.741   3.296  0.2637  0.2225 -0.0924
 4165W        W24445  18.046  16.495  12.364  0.2164  0.3316 -0.0916
 4166W        W24446  17.524  14.011   0.265  0.3688  0.1962 -0.0679
 4167W        W24447  13.652  11.905  12.142 -0.0640 -0.1155  0.0792
 4168W        W24448  19.376  10.255  10.664  0.1269  0.4124 -0.1221
 4169W        W24449  14.045  17.375   2.505  0.2440  0.1408 -0.0087
 4170W        W24450   1.565  14.200   0.487 -0.0029 -0.0348 -0.0140
 4171W        W24451   1.144  10.859   1.392  0.1996 -0.1057 -0.1590
 4172W        W24452   6.407  12.806   1.677  0.2056  0.1453  0.0823
 4173W        W24453  14.194  11.181  13.967 -0.3188 -0.0046  0.2601
 4174W        W24454   7.858  19.252   2.049  0.3820 -0.3059  0.2251
 4175W        W24455  17.573   4.296   1.926  0.0792  0.4230  0.0405
 4176W        W24456  12.320  18.159   2.038  0.1536 -0.1031  0.0516
 4177W        W24457   0.038  12.935   1.875  0.0474  0.2220  0.0916
 4178W        W24458   2.613  15.114   0.860 -0.3038  0.1873  0.1369
 4179W        W24459  16.031   4.182  13.731 -0.1204  0.3232  0.0403
 4180W        W24460  18.433  14.797  10.912  0.0225  0.0660 -0.0132
 4181W        W24461  11.747  15.991  11.298  0.1883 -0.1498 -0.0502
 4182W        W24462  11.076  14.372  10.298 -0.3018  0.3753 -0.0325
 4183W        W24463   3.286  17.374  12.670  0.0561  0.1801 -0.0399
 4184W        W24464   6.578   8.627   1.159 -0.1035  0.0350  0.0734
 4185W        W24465   1.792   4.643   3.381  0.1532  0.0299 -0.2215
 4186W        W24466   3.880  15.459   2.687 -0.1928 -0.2994 -0.0288
 4187W        W24467   4.985  16.532  12.412  0.5805 -0.1357 -0.0664
 4188W        W24468  10.038  16.749   1.291  0.0962  0.2886  0.1505
 4189W        W24469   8.971   8.480   2.640  0.0978 -0.0895  0.1787
 4190W        W24470  13.709   6.648  11.578  0.2543 -0.0480  0.2318
 4191W        W24471  19.128   6.751   3.470  0.3581 -0.0163 -0.5112
 4192W        W24472   2.456  15.537   1.677  0.0889  0.0826 -0.2083
 4193W        W24473   5.549   5.829  11.033  0.0304 -0.1474 -0.0643
 4194W        W24474  10.805   5.313   1.267  0.1285  0.0967 -0.1716
 4195W        W24475   9.449   4.990   1.345  0.2418 -0.2694 -0.1335
 4196W        W24476   1.399   6.852   2.223  0.0684 -0.0302 -0.0359
 4197W        W24477   5.217  12.574  14.165 -0.3122 -0.2104  0.2566
 4198W        W24478  11.827  17.546  12.754  0.0661  0.0414 -0.1556
 4199W        W24479   7.476  14.422   4.048 -0.0637 -0.0726  0.1537
 4200W        W24480   6.723   0.873  13.511  0.3385 -0.0335  0.2892
 4201W        W24481   9.200  16.758   0.503 -0.3132  0.2359  0.2125
 4202W        W24482   8.416  13.625  11.793 -0.2527  0.0776  0.1549
 4203W        W24483  11.856   8.767   2.107  0.0043 -0.2610  0.0920
 4204W        W24484  16.311   2.768   0.919  0.3441  0.3580 -0.0093
 4205W        W24485  10.934  14.599   2.551 -0.1322 -0.0098 -0.5153
 4206W        W24486  17.815   0.290  11.145  0.0664  0.0587 -0.0454
 4207W        W24487   0.458   5.403  13.780 -0.3039  0.2230 -0.0645
 4208W        W24488  16.460  14.468  12.080  0.2894 -0.1874 -0.1139
 4209W        W24489   5.805  12.719  11.602  0.1030  0.0418 -0.1933
 4210W        W24490  16.163   1.157  13.806  0.2636  0.0358 -0.0311
 4211W        W24491   5.475  11.032  12.525  0.0824 -0.1651 -0.0756
 4212W        W24492  12.705   3.254  13.595  0.0955  0.0575 -0.2354
 4213W        W24493  18.222  16.549  11.932 -0.0554  0.1016  0.0428
 4214W        W24494   8.232  15.781   0.858  0.0324 -0.0972  0.0639
 4215W        W24495  12.751  18.063  10.956  0.0705 -0.1958 -0.1061
 4216W        W24496   5.849   5.124   1.656 -0.1931  0.1348 -0.2832
 4217W        W24497   0.462  16.127   3.606  0.2922 -0.1221 -0.1982
 4218W        W24498  18.255   7.489   1.330  0.1321  0.0662 -0.0942
 4219W        W24499   6.539  16.469  11.108  0.1301  0.0664 -0.1791
 4220W        W24500   9.631  17.871   0.775  0.2113  0.0073 -0.0192
 4221W        W24501   9.933  11.200  11.102  0.1631 -0.1022  0.0463
 4222W        W24502  18.659   4.489  10.675 -0.0508  0.0914 -0.2741
 4223W        W24503  19.037  12.019  11.703  0.1453 -0.0886 -0.2295
 4224W        W24504   8.130   7.714  11.331  0.1526  0.0005  0.1809
 4225W        W24505  15.507  18.665   2.898 -0.1841  0.5725  0.2012
 4226W        W24506   0.998  12.049   2.274  0.1397  0.1041 -0.0264
 4227W        W24507   0.506   4.968   3.597 -0.4620 -0.1166  0.0101
 4228W        W24508   8.635   1.312   3.728  0.4277 -0.0183  0.2850
 4229W        W24509  13.823  16.518  10.771 -0.3114 -0.0310  0.2439
 4230W        W24510  19.109   6.216  11.658 -0.0392  0.0708 -0.2911
 4231W        W24511  18.761  17.161  12.508 -0.2475  0.3910  0.2832
 4232W        W24512   2.700  17.842   4.260  0.0208 -0.0931 -0.2470
 4233W        W24513   9.936  13.792   3.773 -0.2604 -0.0139  0.1397
 4234W        W24514  19.257  10.146   0.313 -0.3741 -0.1535  0.3173
 4235W        W24515  18.571  12.031   0.778 -0.3255  0.3057  0.2241
 4236W        W24516   6.505   8.715  11.788  0.1406 -0.2977  0.2560
 4237W        W24517   2.090  11.286  10.708 -0.0172 -0.0537  0.2361
 4238W        W24518  11.890  11.573  13.417 -0.2204 -0.1930  0.0694
 4239W        W24519   3.676  13.697   9.972  0.2208  0.3478 -0.2986
 4240W        W24520  17.468  11.738   4.549  0.0282 -0.0940  0.2825
 4241W        W24521   2.027  10.296   0.444  0.4542 -0.2193  0.0648
 4242W        W24522   9.441  17.875  11.073 -0.0171 -0.1015 -0.1174
 4243W        W24523   7.313   1.941   0.315  0.2039  0.0618 -0.3107
 4244W        W24524   6.267   1.699   4.991 -0.0003  0.0390  0.1437
 4245W        W24525   4.641  12.037   4.088  0.0286 -0.3557  0.1132
 4246W        W24526   8.473   5.360   2.825  0.1877  0.1157  0.1262
 4247W        W24527  14.021   9.373   0.094  0.0468  0.1416 -0.0841
 4248W        W24528   3.820   4.034   2.793 -0.0389 -0.1414 -0.1759
 4249W        W24529   9.763  17.874   3.960 -0.0352 -0.0901 -0.0277
 4250W        W24530   8.492   4.218  12.017 -0.2123 -0.1107 -0.0411
 4251W        W24531   1.611  13.973  11.973  0.2860 -0.2585 -0.1777
 4252W        W24532   1.444   1.505   4.229  0.1583 -0.1329  0.0519
 4253W        W24533  14.926  16.785  11.074 -0.0742 -0.0237 -0.0755
 4254W        W24534   6.088   9.267  13.720 -0.2747 -0.2832  0.1760
 4255W        W24535  16.660  16.795  12.271 -0.1000 -0.0791  0.2020
 4256W        W24536   7.304   0.582  12.161 -0.4232  0.2290 -0.0429
 4257W        W24537  16.296  18.753  10.647  0.1590  0.0264  0.0996
 4258W        W24538   4.272   0.050   2.681  0.0979  0.0976  0.2243
 4259W        W24539  10.562  11.780   0.799 -0.1797 -0.2136  0.1720
 4260W        W24540  10.683   7.949   2.424  0.0620 -0.3979 -0.1041
 4261W        W24541  12.269   7.821   1.575  0.1366  0.1330 -0.4319
 4262W        W24542  16.400   2.652   1.382 -0.1417  0.1652  0.1712
 4263W        W24543  11.441   9.653   3.757  0.1330 -0.2565  0.1947
 4264W        W24544   4.937   2.346   2.985 -0.0384 -0.0297  0.0923
 4265W        W24545   4.353  13.755   4.144  0.0122 -0.2798 -0.0396
 4266W        W24546  14.642   0.675  11.718 -0.1952  0.3280  0.3218
 4267W        W24547   0.268   3.636   2.317 -0.1334 -0.1975 -0.0025
 4268W        W24548   7.698   9.154   0.785  0.2046  0.1171  0.3841
 4269W        W24549   2.145   7.871  10.834  0.3119  0.3118  0.0759
 4270W        W24550  15.850  14.763   4.612  0.1918  0.2046  0.0662
 4271W        W24551  17.543  12.679   2.979 -0.2449 -0.2389 -0.2406
 4272W        W24552  13.153   3.636  12.198 -0.0628 -0.0308 -0.1562
 4273W        W24553  16.831  10.075  12.824  0.1655 -0.1282 -0.1719
 4274W        W24554  17.174  11.713  13.938 -0.1163  0.3488  0.1511
 4275W        W24555   8.549  18.786   0.274 -0.1160 -0.0812 -0.1389
 4276W        W24556   5.736   7.453  14.035  0.1380 -0.2127 -0.3044
 4277W        W24557  13.700   2.120  12.131  0.0819 -0.1343 -0.0262
 4278W        W24558   8.006  12.816   4.032 -0.0382 -0.2202  0.3198
 4279W        W24559   8.078  13.836  10.492 -0.1713 -0.0453 -0.1082
 4280W        W24560  14.830  14.373  10.554  0.0565  0.0838 -0.2110
 4281W        W24561   7.132   9.768  11.552 -0.4336 -0.0543 -0.2109
 4282W        W24562   1.548  17.102  11.372  0.2157 -0.2761 -0.0136
 4283W        W24563  18.586   2.944  11.597 -0.1549 -0.0152 -0.2502
 4284W        W24564  13.479  15.247  13.547 -0.1939 -0.3886  0.3226
 4285W        W24565  12.864   7.454   1.358  0.0432 -0.2482 -0.1371
 4286W        W24566  18.086   6.056   1.886 -0.0625  0.0686  0.1156
 4287W        W24567  12.120  11.318   2.077 -0.2112 -0.3010  0.0385
 4288W        W24568   0.309  10.938   0.774  0.0034  0.0173  0.3194
 4289W        W24569  18.799   7.488   0.656 -0.0376 -0.2076 -0.0974
 4290W        W24570   8.773  11.522   1.415 -0.0387 -0.1478  0.1039
 4291W        W24571   7.461  14.356  13.816 -0.1588  0.1937 -0.2241
 4292W        W24572   5.760  10.817   3.674 -0.2923 -0.0144 -0.2209
 4293W        W24573   1.116  14.328   0.695 -0.0758 -0.0487 -0.1933
 4294W        W24574   7.002   1.686   1.782 -0.1542 -0.0711  0.0354
 4295W        W24575  11.127   1.214  12.025 -0.0069  0.0139 -0.0355
 4296W        W24576  14.686   5.576  14.165  0.0428  0.0716 -0.0633
 4297W        W24577  16.916   3.822  13.852  0.2276  0.2554  0.3509
 4298W        W24578   0.990  12.694   1.488 -0.0804  0.1233 -0.1166
 4299W        W24579  14.427  15.430   0.884 -0.1573 -0.0487 -0.0644
 4300W        W24580  17.438   5.150   1.438 -0.2537 -0.1232  0.1318
 4301W        W24581   2.912   9.968  14.372 -0.2223 -0.2540  0.3542
 4302W        W24582  11.389  10.761   3.172 -0.0390  0.2071 -0.0814
 4303W        W24583  19.323  12.715  13.404  0.0684  0.0579  0.0106
 4304W        W24584  15.243   7.514  10.080  0.1117 -0.0036  0.0180
 4305W        W24585   0.279  10.753  11.567 -0.1868  0.0512  0.0279
 4306W        W24586   7.932   0.949   0.241  0.2064  0.2299 -0.0286
 4307W        W24587  10.651  18.113  11.693 -0.0445  0.2929 -0.0494
 4308W        W24588   8.898  18.578  11.336 -0.0938  0.1309 -0.3135
 4309W        W24589   0.833   6.549  10.591 -0.0871 -0.1676 -0.0034
 4310W        W24590  18.875   5.210   1.464 -0.0648 -0.0984 -0.1740
 4311W        W24591  11.172  13.307   3.611 -0.2650  0.0595 -0.0409
 4312W        W24592   5.700   1.901   3.110 -0.2218 -0.1332 -0.0233
 4313W        W24593   0.818   7.452  10.839 -0.0986  0.3103  0.2615
 4314W        W24594   5.749   0.757  12.081 -0.1270  0.1718 -0.1498
 4315W        W24595  10.457   3.344   2.081 -0.1535  0.0918  0.0232
 4316W        W24596   0.435  15.306  12.050 -0.1368 -0.1368  0.0345
 4317W        W24597  19.086   0.659  13.017 -0.0376 -0.4799  0.1985
 4318W        W24598  14.575   8.697   1.536  0.3557  0.0303  0.1325
 4319W        W24599   6.763  12.912   3.759  0.1040  0.2227 -0.0339
 4320W        W24600  15.436  11.662  13.415 -0.0250  0.1354  0.0054
 4321W        W24601   2.973   8.958   3.271 -0.0196 -0.0133  0.2174
 4322W        W24602   9.248   7.143   0.615 -0.1335  0.2230  0.1233
 4323W        W24603  19.401   6.512  12.480  0.2124 -0.0583  0.0557
 4324W        W24604  14.363   4.552   0.079 -0.1214  0.1493  0.0374
 4325W        W24605  11.923   2.402   4.293 -0.1748 -0.0039  0.1349
 4326W        W24606  12.342  19.264   0.023 -0.3387  0.2569 -0.1935
 4327W        W24607   9.936   5.364  11.717  0.0141 -0.1417 -0.6556
 4328W        W24608   5.592   5.241  11.751  0.0973  0.1993 -0.1765
 4329W        W24609  13.142   4.477   1.535 -0.1846  0.0067  0.0528
 4330W        W24610   1.616  16.845   0.309 -0.0057 -0.0361 -0.3488
 4331W        W24611  16.510   4.849   2.673  0.0762  0.1577  0.0153
 4332W        W24612  14.982   7.079   2.888 -0.3600 -0.0768  0.1463
 4333W        W24613   0.992   1.159   0.146  0.1922  0.0680  0.2184
 4334W        W24614   4.338   9.627  10.819  0.1111 -0.3737 -0.0506
 4335W        W24615  18.984   3.610   0.948  0.1729 -0.1265 -0.0768
 4336W        W24616  12.187   6.334   1.698  0.2724  0.1357  0.3098
 4337W        W24617   3.948  17.197   1.615  0.1234 -0.1101  0.0947
 4338W        W24618  12.978  17.425   3.749 -0.1709 -0.1070  0.0153
 4339W        W24619   3.833  17.566   1.992  0.0955 -0.0472 -0.1545
 4340W        W24620   1.372   1.897   2.056 -0.1646 -0.0337 -0.0980
 4341W        W24621   2.577   6.470   5.399 -0.1012 -0.2885 -0.2359
 4342W        W24622  17.664   6.396  12.214  0.3571  0.1277  0.2273
 4343W        W24623  13.112   5.972   3.619  0.2183  0.0148  0.0312
 4344W        W24624  17.931  13.558  13.628  0.1280 -0.2257  0.0324
 4345W        W24625   2.471  16.186   1.548 -0.2232  0.0956 -0.0027
 4346W        W24626  15.085  10.467  10.530  0.1424 -0.2224 -0.1862
 4347W        W24627  15.366   9.316  13.863 -0.1314  0.0643  0.0843
 4348W        W24628  15.239   1.273   3.470 -0.1180  0.1972 -0.1074
 4349W        W24629   9.248   6.612  14.131 -0.1416 -0.0237  0.1988
 4350W        W24630  18.052   6.717  13.765 -0.1093  0.2518 -0.1438
 4351W        W24631  10.309   2.134   0.222  0.0269 -0.0506  0.1429
 4352W        W24632  17.388   2.937  13.033 -0.1271  0.0606 -0.2904
 4353W        W24633   4.818  19.123   1.557 -0.3597 -0.1732 -0.1914
 4354W        W24634  13.460  12.067  10.979  0.3201  0.1448  0.0186
 4355W        W24635  12.243   5.444  14.448 -0.1204 -0.0389 -0.0292
 4356W        W24636  16.095  11.538   3.198  0.2606 -0.1114  0.3965
 4357W        W24637  12.356   3.047   0.136 -0.1161  0.2544 -0.3413
 4358W        W24638  17.355  12.731   2.432  0.1505  0.0390  0.2184
 4359W        W24639   9.599  14.721   2.657 -0.0044 -0.0726  0.0562
 4360W        W24640  15.006   5.483  12.879 -0.1605  0.6017  0.2945
 4361W        W24641  16.753   4.779   1.864 -0.2597  0.0232  0.0164
 4362W        W24642  12.840   7.023  13.479 -0.0864 -0.0206 -0.1508
 4363W        W24643   3.163  16.705   0.734 -0.1324  0.3984  0.1136
 4364W        W24644   1.655  18.315   0.411 -0.0494  0.1422  0.1375
 4365W        W24645   0.014   0.767  11.447 -0.2521 -0.0763  0.0698
 4366W        W24646  12.162  17.011  13.405 -0.1763  0.0922  0.1842
 4367W        W24647  10.195  15.741   3.176  0.0614  0.4446 -0.0734
 4368W        W24648  19.013   4.686  10.975 -0.2618  0.2005  0.1267
 4369W        W24649   8.386   6.924  13.318  0.0806 -0.0142  0.0177
 4370W        W24650  12.554  17.128   4.090  0.1150  0.2026 -0.0684
 4371W        W24651   8.433  12.714   2.958 -0.1818  0.1563 -0.2200
 4372W        W24652   2.120   4.613  12.500  0.2191 -0.2023 -0.0291
 4373W        W24653  17.020  12.744  12.503  0.0189 -0.0974  0.2239
 4374W        W24654   4.802   8.089  12.901  0.0193  0.1157 -0.2513
 4375W        W24655   1.371   8.326  13.425  0.0588  0.0929  0.1359
 4376W        W24656   3.391  13.949   1.034  0.1183  0.0362  0.0640
 4377W        W24657   1.082   2.279   3.897  0.0455  0.2505  0.0908
 4378W        W24658  12.562   5.028  13.127 -0.0595 -0.2188 -0.2341
 4379W        W24659  13.122  12.590  13.176 -0.1371 -0.2062 -0.0978
 4380W        W24660  19.001   5.637   2.518  0.1712 -0.1275 -0.3391
 4381W        W24661  17.092  16.377   1.914 -0.2276  0.2928 -0.0889
 4382W        W24662  13.650  11.903  13.641 -0.1187 -0.4810  0.0759
 4383W        W24663  13.164  17.614  11.294  0.2718  0.0114  0.3189
 4384W        W24664   1.839  14.373   3.291  0.5481  0.4168 -0.0925
 4385W        W24665   6.021  12.149  11.912  0.3190  0.0118  0.0442
 4386W        W24666   2.174   5.837   3.057 -0.0963 -0.0236  0.1973
 4387W        W24667  11.216  12.370   2.515  0.0129  0.1353  0.1632
 4388W        W24668  13.220   1.672   1.804 -0.2172  0.0566  0.1378
 4389W        W24669   1.649  13.754   0.814 -0.0210  0.1418 -0.0954
 4390W        W24670  19.189  11.652  12.939 -0.0943  0.0870  0.0582
 4391W        W24671   0.804  16.980  14.368  0.1868 -0.0700  0.2532
 4392W        W24672  18.681   7.067   2.330  0.3705 -0.1890  0.3453
 4393W        W24673  15.905  16.255   2.867  0.2734 -0.0604  0.2551
 4394W        W24674   1.988   1.246  12.541 -0.1898 -0.2509 -0.0606
 4395W        W24675   9.283  17.585  12.996  0.0595 -0.0232  0.0811
 4396W        W24676   1.108  18.530   3.310 -0.1882  0.0391 -0.0401
 4397W        W24677   7.914   9.650   9.199 -0.0141 -0.0669  0.3251
 4398W        W24678   4.745   4.729   4.106 -0.1796  0.1326 -0.0205
 4399W        W24679  11.800   2.820   3.495  0.0105  0.0138 -0.0869
 4400W        W24680   8.164   0.962   3.438  0.0601 -0.4430  0.3009
 4401W        W24681   0.390   8.164  10.119 -0.2523 -0.2664 -0.1818
 4402W        W24682   4.257  16.838   1.487  0.0767 -0.4662 -0.0856
 4403W        W24683   6.497  17.310   2.159 -0.2016 -0.2355  0.2181
 4404W        W24684  13.312   3.314  13.955  0.1343 -0.0426  0.1023
 4405W        W24685   0.781   7.761  13.767 -0.0684 -0.3634  0.1261
 4406W        W24686  13.445  16.903  12.197 -0.0755  0.1734 -0.2689
 4407W        W24687  17.784   2.449   4.127 -0.0849 -0.0478 -0.0479
 4408W        W24688  13.195  15.639  14.378  0.0556 -0.3560  0.2226
 4409W        W24689  15.043   3.190  13.694 -0.0164  0.3031 -0.0807
 4410W        W24690  15.575   4.382   1.080 -0.1828 -0.0973  0.0236
 4411W        W24691  14.786  16.443  12.518  0.2602 -0.0072 -0.1892
 4412W        W24692   7.828   5.113  14.231 -0.0516 -0.1526 -0.0141
 4413W        W24693  15.228   9.475  12.211  0.2286  0.2156  0.0687
 4414W        W24694   1.313  14.425  11.979  0.1921 -0.2502 -0.0730
 4415W        W24695   4.739  11.348  10.398 -0.0412 -0.1075 -0.0061
 4416W        W24696  16.334   7.698  12.705  0.3944  0.0067  0.0748
 4417W        W24697   9.488  17.110  12.204  0.1920  0.0792  0.0908
 4418W        W24698  13.564  15.576  10.727  0.2585 -0.0421 -0.2105
 4419W        W24699   5.033   6.413   2.434  0.3016 -0.0942 -0.1185
 4420W        W24700   4.994  19.015  14.093  0.2245  0.1118  0.1844
 4421W        W24701  12.892  16.577  10.636  0.2141  0.1949  0.1654
 4422W        W24702   1.732  12.732   1.068  0.1440  0.3466 -0.3623
 4423W        W24703   0.449  16.424   2.472 -0.2116  0.0803  0.0371
 4424W        W24704  18.686  16.019  11.913 -0.3347  0.2303 -0.0639
 4425W        W24705   3.315   4.181   4.117  0.1642 -0.3099 -0.0749
 4426W        W24706   5.874  11.679   1.544 -0.1615  0.0883  0.1383
 4427W        W24707  16.368  10.060   3.792  0.0907  0.1845 -0.0699
 4428W        W24708   3.095  18.067   4.060  0.2068  0.3302  0.1291
 4429W        W24709   4.570   2.664   1.785  0.0479  0.0053  0.0262
 4430W        W24710  19.046   0.355  12.621  0.1838 -0.2493  0.0687
 4431W        W24711   4.394  12.654  11.404  0.2631 -0.2353  0.2258
 4432W        W24712   5.902  18.338   3.785  0.0835  0.1713 -0.1564
 4433W        W24713   8.292   5.100  14.046  0.2183 -0.0533 -0.1238
 4434W        W24714  15.722  17.010   1.808  0.0680  0.1515 -0.5058
 4435W        W24715   9.072   9.537  10.782  0.0220 -0.2111 -0.0748
 4436W        W24716  17.354  14.996   1.850  0.0994  0.0549  0.0846
 4437W        W24717   0.357   8.035  12.172  0.0632  0.2223 -0.0059
 4438W        W24718  13.779   3.502  13.800 -0.0246 -0.3939  0.1042
 4439W        W24719  17.172  17.107   1.506 -0.3926 -0.2218  0.1290
 4440W        W24720   6.507  13.147  13.660  0.1937  0.1986 -0.3404
 4441W        W24721  11.263  14.608   9.874 -0.0238 -0.1686 -0.1000
 4442W        W24722   8.407   4.497  12.845 -0.1357 -0.1829  0.0602
 4443W        W24723  12.974  17.519   0.032 -0.2887  0.0408 -0.2591
 4444W        W24724   9.626  13.941   1.522  0.1507 -0.1117 -0.1909
 4445W        W24725  10.984   2.266  10.715 -0.3470 -0.1045 -0.0958
 4446W        W24726  11.478   0.984   0.596  0.0167  0.1444 -0.2229
 4447W        W24727  17.053  12.736  14.273 -0.0858 -0.1958 -0.1193
 4448W        W24728   8.749  17.338  10.834 -0.3268 -0.0482  0.2807
 4449W        W24729   0.712  17.077  13.820 -0.0085 -0.0346 -0.2068
 4450W        W24730  14.004  16.346  13.379  0.2431 -0.1107  0.3075
 4451W        W24731  10.984   1.317   1.893 -0.0015  0.2133  0.0719
 4452W        W24732   8.870  12.253  11.949  0.0677 -0.0509 -0.3772
 4453W        W24733  12.471  16.579   0.167 -0.3234  0.0106  0.0528
 4454W        W24734  14.784  13.700   0.928  0.2348 -0.1189  0.0177
 4455W        W24735  13.723   4.043   0.643 -0.0923  0.0744 -0.1768
 4456W        W24736   4.754  16.027   2.282 -0.0006 -0.0962 -0.0830
 4457W        W24737  15.033   8.609  11.965 -0.3864 -0.3020  0.1100
 4458W        W24738   9.124  12.413  14.078  0.1064 -0.1579 -0.4482
 4459W        W24739   2.691  17.808  13.868 -0.1028 -0.1093  0.1594
 4460W        W24740   7.089  10.326   2.761 -0.1607  0.1712 -0.3320
 4461W        W24741  13.043   5.490   2.561  0.3900  0.2954 -0.0395
 4462W        W24742  18.154  17.496  13.949 -0.1581 -0.2440 -0.0195
 4463W        W24743   2.835   8.694  13.483  0.0508  0.0297  0.0254
 4464W        W24744  12.451  14.402  11.329 -0.3633 -0.1122 -0.3167
 4465W        W24745  13.659  18.727   0.493 -0.0809  0.3364 -0.3268
 4466W        W24746  12.713  18.836  11.681  0.1098  0.1182  0.0257
 4467W        W24747  14.659  17.186   0.732 -0.0381 -0.2890 -0.0344
 4468W        W24748   4.377  15.337  11.411  0.4827  0.0383  0.0509
 4469W        W24749  16.702   6.558   1.772  0.0258 -0.1189 -0.1215
 4470W        W24750  11.182   9.171  10.693 -0.0939 -0.1223 -0.0080
 4471W        W24751   7.400  12.078   2.761  0.0270 -0.0341 -0.0393
 4472W        W24752   0.782  13.510   1.513 -0.0606 -0.3266 -0.0992
 4473W        W24753  11.419   3.084   3.724  0.2466 -0.1833  0.1919
 4474W        W24754   9.425   7.022  13.914 -0.2246 -0.0946  0.0652
 4475W        W24755   9.606  16.262  10.561  0.1254  0.0255  0.3546
 4476W        W24756  16.305  12.140   0.658  0.0067 -0.0797  0.1375
 4477W        W24757   3.315  15.853   0.532 -0.0089 -0.3954 -0.1866
 4478W        W24758   2.323  16.445   3.211  0.2244  0.0446  0.0721
 4479W        W24759   1.139   0.151   2.293 -0.1867 -0.1419  0.1720
 4480W        W24760   9.811  17.359   3.730  0.3944 -0.1515 -0.3174
 4481W        W24761   9.954   5.597   3.541 -0.1949 -0.0420 -0.3038
 4482W        W24762   2.049   0.941   2.120  0.0279 -0.2116 -0.0786
 4483W        W24763  11.593  11.299  13.713  0.2369  0.3162  0.2842
 4484W        W24764  19.076  13.945   0.907 -0.1881  0.0919  0.1356
 4485W        W24765  13.943   2.163   4.966  0.1372 -0.0015 -0.1131
 4486W        W24766   8.977  17.301  12.114 -0.2178  0.0420 -0.1276
 4487W        W24767  13.153  16.679  13.003  0.1137 -0.1717 -0.0873
 4488W        W24768  12.879   8.382  10.670 -0.2824 -0.1624 -0.2155
 4489W        W24769  15.738   1.385  13.925  0.2927 -0.0845  0.0335
 4490W        W24770   2.608  16.979  13.293  0.1932 -0.2511  0.0397
 4491W        W24771  14.358   4.645  10.180 -0.0137  0.1163 -0.1074
 4492W        W24772  11.402   8.702   3.370 -0.1874 -0.0317 -0.0812
 4493W        W24773   7.529   1.029  11.219  0.2430 -0.1879  0.0652
 4494W        W24774   6.245  15.908   2.348  0.0376 -0.2370  0.0550
 4495W        W24775  17.446  16.848  14.309 -0.2157  0.2026 -0.0485
 4496W        W24776  18.309   4.602  14.450 -0.0406 -0.0438  0.2744
 4497W        W24777  18.123   4.313  11.341  0.2352  0.0828 -0.0244
 4498W        W24778  11.864  10.457  11.663 -0.0163  0.1049  0.0402
 4499W        W24779  10.631  13.431   1.204  0.1998  0.4371 -0.1237
 4500W        W24780   3.613  18.675  14.496  0.1837 -0.1796  0.0151
 4501W        W24781   0.140  16.839   2.224  0.2092 -0.3300  0.2902
 4502W        W24782  12.155  17.207   4.338 -0.1410  0.1137  0.0611
 4503W        W24783  15.314  10.676  11.613 -0.1292  0.1184 -0.3368
 4504W        W24784  16.035  10.155   2.409  0.0338  0.0472  0.0470
 4505W        W24785  17.968   4.440  12.134  0.0717 -0.0390 -0.1870
 4506W        W24786  14.479  12.522   3.601  0.2109 -0.0924  0.2038
 4507W        W24787  19.078  17.800   2.773 -0.4157 -0.1580 -0.1076
 4508W        W24788   8.183  14.688  12.729 -0.3315  0.2144 -0.3106
 4509W        W24789   4.064  11.002   1.567  0.3639 -0.0195  0.0013
 4510W        W24790   5.911   5.897  12.712 -0.3662  0.1784 -0.0188
 4511W        W24791   2.189   2.493  13.418 -0.0620  0.2248 -0.2566
 4512W        W24792   5.019   9.098  10.950  0.2903 -0.1947  0.2748
 4513W        W24793   7.124   0.505   4.126 -0.1680  0.0439 -0.3888
 4514W        W24794  18.976   2.507  11.602  0.0124 -0.2158  0.1238
 4515W        W24795  17.994   8.488  14.464  0.1366  0.0129 -0.1642
 4516W        W24796  12.952  16.731   2.107  0.2212  0.0946 -0.1055
 4517W        W24797   0.000   3.287   0.901 -0.2177  0.1773  0.0199
 4518W        W24798   8.045  13.139  13.751  0.1025  0.1056 -0.1169
 4519W        W24799   7.947   1.700   4.050  0.0842  0.0923  0.2653
 4520W        W24800   5.162   8.802   3.354 -0.2043 -0.2573 -0.1835
 4521W        W24801   0.384   9.541  10.252  0.1017  0.0038  0.0323
 4522W        W24802  14.576  14.959   2.740  0.0525  0.0315 -0.2855
 4523W        W24803  17.107   8.234  13.255  0.0800  0.2114  0.2915
 4524W        W24804   0.826  13.583  10.078 -0.1071 -0.0696  0.1006
 4525W        W24805  11.962  11.090   0.109 -0.0358  0.1335 -0.2143
 4526W        W24806   4.742   5.235  12.673  0.0997 -0.0788  0.2324
 4527W        W24807   1.931  19.259   4.303 -0.0907  0.0100 -0.0165
 4528W        W24808   6.038   2.063   2.729 -0.0467  0.0035 -0.3565
 4529W        W24809   0.802  10.693  11.601  0.1531 -0.2527  0.1262
 4530W        W24810   3.045  14.140  12.814  0.2372 -0.3674 -0.0432
 4531W        W24811   6.298  12.684  11.766 -0.0304  0.1191  0.1500
 4532W        W24812   7.066  17.690   4.297 -0.2398 -0.1613 -0.0408
 4533W        W24813  13.119  11.883   0.390 -0.0439 -0.0035  0.1934
 4534W        W24814  17.986   3.734  10.939  0.3521 -0.1210 -0.0419
 4535W        W24815   5.837  14.655  14.400  0.0425 -0.1196  0.2636
 4536W        W24816   5.847   9.871  12.123  0.0064  0.0353 -0.2295
 4537W        W24817  17.690  14.509  13.526 -0.0896  0.1389  0.2013
 4538W        W24818   0.025   9.027  12.776  0.2867 -0.2168 -0.0944
 4539W        W24819   8.307   8.507   0.457 -0.1102  0.0646  0.0449
 4540W        W24820   1.449  18.404  11.793 -0.1328  0.0051  0.2836
 4541W        W24821  15.779  19.342  13.611  0.1276 -0.0976 -0.1751
 4542W        W24822   2.251  17.782   2.521  0.1614 -0.0827 -0.3777
 4543W        W24823   1.442   4.732   2.827  0.2201 -0.1203  0.1719
 4544W        W24824  16.696   8.423  10.972 -0.2833 -0.0337  0.1408
 4545W        W24825   0.669  15.714   3.055 -0.2167  0.0580 -0.0917
 4546W        W24826  16.849  17.837   1.005 -0.1534 -0.1388 -0.1339
 4547W        W24827   6.177   8.955  12.755 -0.1754  0.2711 -0.1375
 4548W        W24828  13.390   5.346  11.922 -0.4072 -0.1237 -0.0011
 4549W        W24829  11.138   4.117  13.949 -0.1377  0.0380 -0.2723
 4550W        W24830   4.702  13.016  12.726  0.1409 -0.0130  0.0473
 4551W        W24831  14.849   0.587   0.413  0.1271 -0.0495 -0.0949
 4552W        W24832   7.116  15.845  11.862  0.1789  0.1436  0.1600
 4553W        W24833  14.467  14.890  11.092  0.1010  0.1442 -0.0986
 4554W        W24834   2.642   5.548   3.181  0.0067 -0.1313 -0.0561
 4555W        W24835   6.950   8.445   2.930 -0.1113  0.0526  0.0299
 4556W        W24836  16.001  16.366   3.488 -0.0161  0.1239  0.1544
 4557W        W24837   9.756  15.760   3.669  0.1145  0.0747  0.2846
 4558W        W24838   6.700  10.690  11.101 -0.0247  0.0709 -0.1708
 4559W        W24839   2.538  16.626  11.294 -0.0185 -0.0346  0.0111
 4560W        W24840  18.079  13.548  11.360 -0.1372  0.1190  0.1621
 4561W        W24841  15.403  18.036   4.399 -0.1019  0.2518  0.0374
 4562W        W24842  17.458  19.385  10.859 -0.0417 -0.1432 -0.0254
 4563W        W24843  11.448   8.427  13.602 -0.1671  0.0348  0.1337
 4564W        W24844  10.791  16.027   5.032 -0.1789  0.2591  0.0597
 4565W        W24845   4.916   7.656   2.346 -0.0341 -0.2777 -0.0167
 4566W        W24846   8.123   0.657   0.793  0.1933  0.0454  0.0958
 4567W        W24847   9.750  19.417  11.015 -0.2496  0.0168 -0.0753
 4568W        W24848   0.053  18.229   3.502  0.0960 -0.0122  0.0244
 4569W        W24849   7.372  10.990  13.834 -0.2404 -0.0134 -0.0139
 4570W        W24850   1.225   1.190  12.367  0.1188  0.0926  0.3589
 4571W        W24851   0.039   8.067   0.928 -0.0546 -0.1210  0.0599
 4572W        W24852   2.693   9.281   2.492  0.3828 -0.0990  0.1597
 4573W        W24853  14.105   6.378  13.807  0.1413  0.4598 -0.3407
 4574W        W24854  17.720   2.613  11.911 -0.4655  0.1478 -0.1324
 4575W        W24855  10.375   2.918  10.978 -0.2058  0.3190 -0.0463
 4576W        W24856  17.617  12.584  12.374 -0.2424 -0.0374 -0.2225
 4577W        W24857   3.183  12.390   3.170  0.3990  0.3087 -0.1628
 4578W        W24858  14.671  13.906   0.462  0.2931  0.3159 -0.0060
 4579W        W24859  10.608   9.141   3.343  0.0686 -0.1509  0.1241
 4580W        W24860   4.781  12.434  11.671 -0.0858 -0.0972 -0.2076
 4581W        W24861  19.216  11.375  10.106 -0.3321  0.1326 -0.0954
 4582W        W24862   0.746  14.345  13.296  0.0979 -0.0318 -0.4269
 4583W        W24863  14.219   8.629   3.445  0.0346 -0.1023 -0.1257
 4584W        W24864   3.011   2.680   1.012 -0.0530 -0.1002  0.2840
 4585W        W24865  15.299  19.054   1.776  0.0676 -0.1784 -0.0506
 4586W        W24866   1.464   2.462  12.291  0.0625 -0.1107 -0.0755
 4587W        W24867  10.311  17.413  12.052  0.1334  0.0252  0.2118
 4588W        W24868   2.266   8.133  12.091 -0.3135  0.1994  0.1855
 4589W        W24869   8.390  13.216   1.064  0.1890  0.1221  0.0792
 4590W        W24870   8.858  18.342   1.173 -0.0486 -0.1118  0.0402
 4591W        W24871  11.267  17.969  12.222 -0.0072 -0.2881 -0.3469
 4592W        W24872   2.169   0.461  11.351 -0.0024 -0.2633  0.0321
 4593W        W24873   7.605   5.512   2.600 -0.2254 -0.0850  0.0857
 4594W        W24874   7.805   4.231   1.965 -0.2812 -0.0358  0.0756
 4595W        W24875   8.767   1.621  13.306  0.1109 -0.2321 -0.1043
 4596W        W24876  15.548   1.434   1.064  0.1654 -0.0836 -0.1636
 4597W        W24877  19.295  17.627  11.131  0.1293 -0.0494  0.1166
 4598W        W24878   4.647  15.305   2.509 -0.1192  0.1026  0.1722
 4599W        W24879  16.815   5.152   2.221 -0.2393  0.2415 -0.0181
 4600W        W24880   4.807  12.374   4.446 -0.2014  0.2151 -0.0394
 4601W        W24881   6.057  10.286   1.943  0.0131 -0.1167  0.0115
 4602W        W24882   8.387  15.292  10.406  0.0350 -0.0079 -0.0894
 4603W        W24883   0.537   2.164   3.726  0.0355  0.3612 -0.1841
 4604W        W24884   6.181   7.632  10.467 -0.2200  0.0056  0.0074
 4605W        W24885  12.749  10.658   3.026  0.0508 -0.1209 -0.1391
 4606W        W24886   0.316  10.030  11.070 -0.0829 -0.1918 -0.4207
 4607W        W24887  15.805  16.881  12.812  0.1499  0.0682  0.3433
 4608W        W24888  10.318  15.372   3.467  0.0983  0.0211  0.3025
 4609W        W24889   3.708   7.814   1.262 -0.1427  0.1964  0.1750
 4610W        W24890   4.008  13.419   2.165 -0.0713 -0.2410 -0.1164
 4611W        W24891   2.376   2.851   5.292 -0.1418  0.0467 -0.1556
 4612W        W24892   4.017   2.560  12.803  0.2330 -0.2341  0.0921
 4613W        W24893   2.761  11.046   3.413 -0.2271  0.1259  0.3077
 4614W        W24894   8.783   1.165  11.569 -0.2435  0.0661  0.1054
 4615W        W24895  15.208  19.190  13.396  0.2305  0.1025 -0.2762
 4616W        W24896  10.860   1.298  10.663 -0.2884 -0.1335  0.1463
 4617W        W24897  16.103   4.384   2.727  0.3943 -0.2408 -0.2293
 4618W        W24898  11.544  18.243  11.799  0.1534  0.4467  0.0981
 4619W        W24899  11.676   0.964  11.570 -0.1413 -0.1182  0.4272
 4620W        W24900   9.482  11.335  13.344  0.0047  0.2201 -0.1166
 4621W        W24901   2.608   8.926  12.570  0.1247 -0.1749  0.2702
 4622W        W24902  14.261  16.278  12.062 -0.1440 -0.1199 -0.2705
 4623W        W24903  17.211   9.319  10.147 -0.1500  0.2102 -0.0940
 4624W        W24904   4.281   4.255  13.484 -0.0594  0.3119  0.1457
 4625W        W24905  14.712   6.517   4.022 -0.0209 -0.1947 -0.1771
 4626W        W24906  17.195   4.311   5.009 -0.0667  0.1181 -0.1014
 4627W        W24907  15.756  12.068  13.384 -0.2387 -0.0172 -0.1187
 4628W        W24908   2.845  15.299   2.659  0.1263  0.0009 -0.0753
 4629W        W24909   8.356  16.564  14.275 -0.1944  0.3295  0.3083
 4630W        W24910   1.223   9.533  13.470 -0.0636  0.0877 -0.0162
 4631W        W24911  18.645   0.818   0.300 -0.0043 -0.0486 -0.1281
 4632W        W24912   6.325   0.116   0.669 -0.2480  0.0025  0.1444
 4633W        W24913   7.837   6.572   2.151 -0.2061  0.2568 -0.0009
 4634W        W24914   8.449   8.579   2.726 -0.1037  0.0651 -0.1826
 4635W        W24915   6.631   1.833   3.893  0.0256  0.0669  0.0612
 4636W        W24916   9.204  15.783   3.649 -0.1277  0.1253  0.0539
 4637W        W24917   7.183   0.807  13.104  0.0883  0.1986  0.2599
 4638W        W24918  12.467  17.747   2.270  0.2420  0.3071  0.1066
 4639W        W24919   3.062  10.598   1.574  0.2662 -0.1968 -0.2326
 4640W        W24920   8.981  13.928   2.623  0.1444 -0.3526 -0.1871
 4641W        W24921  11.591  10.671  11.278  0.4086  0.0772  0.0579
 4642W        W24922  16.541  16.270   3.268 -0.1016  0.0170 -0.1054
 4643W        W24923   5.136  13.389  13.973  0.1916  0.0188 -0.1992
 4644W        W24924  17.080  18.416   1.808  0.1922 -0.1664 -0.3190
 4645W        W24925  16.593   6.786  12.547 -0.0318  0.0327 -0.0815
 4646W        W24926   5.629  16.707   3.611 -0.1328 -0.0068  0.1064
 4647W        W24927  13.690  15.651   1.462  0.1461  0.1550 -0.0732
 4648W        W24928  17.715   1.431   3.045  0.0880 -0.0845  0.0935
 4649W        W24929   7.667   2.721  13.754  0.0600 -0.0437 -0.3879
 4650W        W24930   2.734   1.839  13.202  0.0100  0.0862  0.1351
 4651W        W24931  12.300  14.419   2.590 -0.1464 -0.0340  0.3632
 4652W        W24932   8.207  16.028   2.240 -0.4912  0.1716  0.0395
 4653W        W24933  15.963  15.359   0.666  0.1575  0.1128  0.0684
 4654W        W24934   1.461   3.233   4.447 -0.1477 -0.1558  0.0186
 4655W        W24935   6.457   8.551  11.216 -0.1022 -0.2218  0.0743
 4656W        W24936  15.342   8.186   1.517 -0.0278 -0.0527 -0.2015
 4657W        W24937  15.709   1.923   2.440  0.3372  0.1672  0.0536
 4658W        W24938   5.676   7.635   2.814  0.2604 -0.2019  0.3873
 4659W        W24939  15.243  17.130  11.838  0.3131  0.2789 -0.2393
 4660W        W24940   8.730   1.331  13.773 -0.1121  0.1422  0.0682
 4661W        W24941   7.576  10.119   1.025  0.2200  0.2672  0.0198
 4662W        W24942  14.430  19.370   0.908  0.0491 -0.0704  0.1711
 4663W        W24943  15.703  16.969  11.747  0.1401 -0.1883  0.1025
 4664W        W24944  11.474   1.421  11.540 -0.4826  0.0474 -0.1220
 4665W        W24945   1.722  15.390   1.403  0.1594 -0.0792 -0.0539
 4666W        W24946  14.966  14.167   2.685  0.3237  0.2929  0.2284
 4667W        W24947   6.226  10.936   4.035 -0.1226  0.0657 -0.1584
 4668W        W24948  17.466  18.193  11.068  0.0230  0.0328 -0.0337
 4669W        W24949  13.337  13.519   4.273  0.3229 -0.4475  0.0274
 4670W        W24950  10.444  16.227   3.284 -0.1075  0.2711  0.1038
 4671W        W24951   2.240   1.228   1.303  0.1781  0.0101 -0.1781
 4672W        W24952  12.959   7.465  13.243 -0.0373 -0.2587  0.0008
 4673W        W24953  13.979  14.313   0.150 -0.0622 -0.1409 -0.0441
 4674W        W24954   8.801   8.976   2.585  0.0674 -0.0200 -0.1570
 4675W        W24955   8.674  18.481   4.012 -0.0689 -0.0316 -0.0537
 4676W        W24956   0.754  15.262  11.195 -0.0931 -0.2558 -0.0530
 4677W        W24957   8.651   9.776   0.235 -0.0828  0.0322 -0.0310
 4678W        W24958   0.787  16.179   3.247  0.1425  0.1121  0.3323
 4679W        W24959   5.374   2.129   2.756  0.0496 -0.2819  0.1475
 4680W        W24960   1.651  18.975  13.740  0.1987 -0.1335 -0.1991
 4681W        W24961  11.378  10.439   3.589 -0.0004  0.3597  0.0400
 4682W        W24962   6.802   8.129  13.525  0.1066  0.3135 -0.0796
 4683W        W24963   9.030  17.459  10.313  0.0554 -0.1417 -0.0884
 4684W        W24964   0.461   2.000   1.278  0.0289 -0.1059  0.0941
 4685W        W24965   2.643   0.310  11.473 -0.2003  0.2053 -0.0077
 4686W        W24966   9.228   7.974  12.225  0.0918  0.0347  0.2379
 4687W        W24967  14.364   2.486  10.963 -0.0494  0.1982 -0.0365
 4688W        W24968  10.658  11.467   1.174  0.0970 -0.0522 -0.0024
 4689W        W24969  12.795   6.729  12.089 -0.0284 -0.1451  0.0595
 4690W        W24970   3.947   9.807   0.804 -0.1131  0.3854 -0.0158
 4691W        W24971   3.002  15.674   3.028  0.0712 -0.4996  0.0335
 4692W        W24972  11.195   0.271   1.933  0.3043  0.0902 -0.1076
 4693W        W24973  15.094   2.405  12.977 -0.1298 -0.2336  0.1109
 4694W        W24974   6.890   9.968   5.053 -0.2976  0.0236 -0.2378
 4695W        W24975   1.960   4.240  14.089 -0.0924  0.1244 -0.0458
 4696W        W24976   2.713   1.410   1.244 -0.1295  0.0297 -0.2633
 4697W        W24977   8.764  16.901  13.457 -0.2466 -0.2336 -0.0053
 4698W        W24978  15.863  16.783   3.675 -0.2114  0.1140 -0.3068
 4699W        W24979  16.077   1.067  11.836  0.2543  0.1385  0.0923
 4700W        W24980   3.220  17.942  11.604 -0.2285  0.0153  0.2107
 4701W        W24981   2.903   5.470   3.663 -0.1984 -0.2720  0.0367
 4702W        W24982   0.167  15.280  13.284  0.1563  0.1158  0.1734
 4703W        W24983   5.826   1.082  13.201 -0.0009 -0.1276 -0.3077
 4704W        W24984   5.901   8.058   2.211  0.4060  0.2117  0.0299
 4705W        W24985   2.918   4.370   1.353  0.1407 -0.0354 -0.0601
 4706W        W24986  18.553  12.959  10.410 -0.1167  0.2321 -0.0066
 4707W        W24987   3.410   7.657  10.941 -0.1287 -0.0972  0.1107
 4708W        W24988   4.530  14.120   1.445  0.2118 -0.1200 -0.2104
 4709W        W24989  10.659  10.680   3.325  0.0447  0.1000 -0.3978
 4710W        W24990   3.906  10.136  13.256 -0.3934  0.0912 -0.2045
 4711W        W24991   2.942  13.225  12.759  0.1152  0.0606 -0.1274
 4712W        W24992   4.318   6.644  11.909  0.0800 -0.2125 -0.0241
 4713W        W24993   7.719   7.128  13.276  0.0403 -0.3419  0.2110
 4714W        W24994   3.639  14.038   3.088 -0.1208 -0.0982  0.2173
 4715W        W24995  16.553  17.504   3.264 -0.0922 -0.0048 -0.1637
 4716W        W24996  16.157  11.059   2.836 -0.0864  0.1810 -0.1514
 4717W        W24997  11.082  11.936   4.948  0.2498 -0.1564 -0.2427
 4718W        W24998  13.632  17.719   2.938 -0.2249 -0.0204 -0.0310
 4719W        W24999   3.024   8.127   2.889 -0.1221 -0.1064 -0.0294
 4720W        W25000   2.248  13.874   3.216  0.1308  0.2133 -0.2097
 4721W        W25001  11.191  18.030  11.524 -0.3028  0.3023  0.2534
 4722W        W25002  11.063  16.817  14.262  0.0581 -0.2114 -0.0969
 4723W        W25003  18.366   6.407   1.464 -0.4026 -0.0168 -0.1377
 4724W        W25004   0.565  11.305  11.414  0.2929 -0.0151  0.0066
 4725W        W25005  14.217   1.067  11.256 -0.0145 -0.1087  0.3171
 4726W        W25006   2.969   6.955   0.354  0.0147 -0.0177 -0.2240
 4727W        W25007  17.454  11.486   3.661 -0.1465 -0.1974  0.1023
 4728W        W25008   8.912  18.292  12.216 -0.0023 -0.0110  0.0878
 4729W        W25009  12.022   2.053  14.479 -0.3506  0.2033 -0.3407
 4730W        W25010  18.034  15.752  12.943 -0.0359  0.1756 -0.0352
 4731W        W25011   8.579   2.786   4.686  0.2167 -0.1760 -0.5734
 4732W        W25012   2.182  18.195  10.779 -0.1550 -0.0720  0.1393
 4733W        W25013  18.537  17.596   2.298  0.1847  0.2639 -0.1242
 4734W        W25014   9.813   5.585   2.728  0.0133 -0.1401 -0.1087
 4735W        W25015   1.874   2.850  12.411 -0.1683 -0.0518 -0.0149
 4736W        W25016  19.269  13.769   3.005  0.1755 -0.5785 -0.0931
 4737W        W25017  10.334  14.732   3.047 -0.0029 -0.2398 -0.3614
 4738W        W25018   8.750  12.682   2.356  0.4450 -0.1710 -0.2091
 4739W        W25019   1.449  12.854  11.004  0.0266 -0.0938  0.3032
 4740W        W25020   6.673   7.354  10.638 -0.0620 -0.1636  0.1422
 4741W        W25021   3.249  14.986   9.386 -0.0699  0.1611  0.1389
 4742W        W25022  16.714  19.219  13.845 -0.1142  0.1870 -0.1880
 4743W        W25023   2.596  19.050  13.205  0.3920  0.0976  0.0382
 4744W        W25024   8.801   9.057  12.098  0.0882 -0.2842  0.4441
 4745W        W25025  16.606  14.790   4.006 -0.3512  0.0965 -0.0042
 4746W        W25026  14.248  10.026   3.347 -0.1381 -0.0803  0.0165
 4747W        W25027  13.201  18.004  10.855 -0.0423  0.0917  0.0278
 4748W        W25028   2.668   1.125  13.959 -0.0032 -0.1076  0.0489
 4749W        W25029   7.711   8.703   0.466 -0.2143 -0.0073  0.1381
 4750W        W25030  19.362   9.526  12.646 -0.2621  0.1626  0.1163
 4751W        W25031  18.876  13.873  10.619 -0.0509  0.0553 -0.2097
 4752W        W25032   6.671   1.372   0.963  0.1818 -0.1641 -0.1076
 4753W        W25033   8.867  12.156  14.389  0.0034  0.2696  0.0740
 4754W        W25034   6.100  17.292  12.208 -0.3110 -0.0202 -0.0276
 4755W        W25035  11.810  11.818  12.499  0.2052 -0.0395  0.4146
 4756W        W25036  16.916  15.761  11.194 -0.1530  0.1677 -0.1367
 4757W        W25037   1.889   5.995  14.291 -0.2556  0.2489 -0.0581
 4758W        W25038   8.422  10.944  10.726  0.2508  0.2752  0.1389
 4759W        W25039  13.292  12.898  12.247  0.1465 -0.0966  0.0198
 4760W        W25040  17.039  18.983   0.595 -0.2487 -0.1287  0.2056
 4761W        W25041  16.199   6.779  11.598 -0.1622 -0.0683  0.0741
 4762W        W25042  14.644  11.581   1.894 -0.1042  0.2802 -0.3884
 4763W        W25043  11.757   9.582  11.767  0.0551  0.0029  0.1022
 4764W        W25044  13.356   1.379   9.655 -0.1390 -0.0192 -0.2974
 4765W        W25045  12.100   8.384  11.539 -0.0185 -0.0407 -0.0813
 4766W        W25046   1.514   5.114   2.470 -0.0286 -0.0754  0.1382
 4767W        W25047   3.722  10.133  13.903  0.0373  0.0198 -0.2589
 4768W        W25048  12.848   5.981  12.489  0.3076  0.0990  0.2511
 4769W        W25049  11.012  13.260   2.238  0.2240  0.0393 -0.0719
 4770W        W25050   7.947  12.980   1.204 -0.1097  0.0533 -0.2075
 4771W        W25051   4.050   8.696   4.135  0.0479 -0.3150 -0.2388
 4772W        W25052  12.741  19.279  11.987  0.0029  0.4430 -0.1696
 4773W        W25053  16.029  18.259   0.324  0.0004  0.1887  0.0152
 4774W        W25054  12.725   7.247   0.928 -0.1785  0.0332  0.1409
 4775W        W25055   7.357  13.040   1.972  0.2198  0.0270 -0.1791
 4776W        W25056   1.610  11.652  11.654 -0.2285  0.1563 -0.1243
 4777W        W25057   0.659   9.469   9.569 -0.0606 -0.1368  0.4508
 4778W        W25058  12.090  11.894   2.648  0.2106 -0.1741 -0.2585
 4779W        W25059   0.609   0.280  12.341  0.0957 -0.1107 -0.0627
 4780W        W25060   7.456  12.505  10.738 -0.2580 -0.1948  0.0399
 4781W        W25061  15.420   6.484   1.613 -0.1562  0.0713  0.0998
 4782W        W25062  17.637   8.026   2.829  0.1913 -0.1040 -0.2387
 4783W        W25063   6.789  18.040   1.283  0.2294  0.2126 -0.0823
 4784W        W25064  11.070  14.917   4.041 -0.1564 -0.0071 -0.1923
 4785W        W25065   3.123   1.697  12.883  0.0315 -0.0265  0.1125
 4786W        W25066   1.591  14.291  13.717  0.0504  0.0190  0.0574
 4787W        W25067   3.311   1.788  14.356  0.1323  0.3530 -0.0562
 4788W        W25068  17.355   2.161   0.500  0.2439  0.0580  0.0111
 4789W        W25069  13.129  15.791   0.339 -0.4969  0.0344 -0.3018
 4790W        W25070   8.046  12.538  11.529 -0.4461  0.0463  0.0060
 4791W        W25071   5.759   0.952   4.013  0.1234  0.1012 -0.2202
 4792W        W25072   1.581  11.701  10.367 -0.0086 -0.0457  0.1054
 4793W        W25073   9.375   9.998  14.156 -0.1092 -0.3507 -0.0687
 4794W        W25074  17.389  14.670  11.284  0.0351 -0.1421  0.2259
 4795W        W25075  16.706   7.492   3.634 -0.0788  0.1311 -0.0081
 4796W        W25076  12.785   5.608   3.618  0.0433  0.0459  0.0306
 4797W        W25077  17.015   9.884   3.356  0.0801 -0.2183  0.2065
 4798W        W25078  11.024   2.733   3.694  0.0327  0.0134 -0.0664
 4799W        W25079   3.459   1.710   9.839  0.0585 -0.3317  0.0173
 4800W        W25080   6.555   5.612  12.124 -0.2347  0.0317 -0.2461
 4801W        W25081   7.230  11.244   4.871  0.0881  0.1851 -0.2913
 4802W        W25082  14.000  13.065  14.177  0.0486  0.1142  0.0958
 4803W        W25083  14.347   3.480  11.146 -0.2557  0.0539 -0.1540
 4804W        W25084  17.165  10.234  13.428  0.0995  0.1192  0.2080
 4805W        W25085   4.867   4.808   0.348  0.1969 -0.2435  0.1221
 4806W        W25086  10.376   5.223  12.697 -0.3647  0.0628  0.1254
 4807W        W25087   1.930  19.218  11.062 -0.0508  0.1647 -0.1477
 4808W        W25088  18.197  10.873  10.626  0.0800 -0.3241 -0.1746
 4809W        W25089  12.205  10.871  10.914  0.0035 -0.2251 -0.0485
 4810W        W25090  15.371   3.464  12.378 -0.2118 -0.0812 -0.0831
 4811W        W25091   7.334   5.003  13.960 -0.1889  0.1923 -0.0160
 4812W        W25092  11.275  14.109  13.502 -0.1498  0.3205  0.0461
 4813W        W25093  15.381  16.406  12.892  0.0312  0.4769 -0.2407
 4814W        W25094   6.687   6.735   0.578 -0.1397 -0.1184 -0.0290
 4815W        W25095   8.731  18.093  13.599 -0.0163 -0.3032 -0.0849
 4816W        W25096   9.912   6.639   4.982  0.0432 -0.0002  0.2396
 4817W        W25097  19.282   3.340   2.612 -0.1034  0.1900 -0.0321
 4818W        W25098  17.988   5.355   3.394 -0.3543  0.2999 -0.3177
 4819W        W25099   4.370   3.730  12.086 -0.1696 -0.1683  0.1281
 4820W        W25100   9.411  14.696  10.720 -0.0132  0.1758  0.0945
 4821W        W25101  10.949   4.361  10.877 -0.1455  0.3742 -0.1287
 4822W        W25102  14.885   3.895   3.211 -0.2841  0.0503 -0.4266
 4823W        W25103   2.067  18.740  10.333 -0.0151  0.0337  0.1017
 4824W        W25104  14.040  10.791   1.643 -0.0955 -0.3135 -0.1242
 4825W        W25105   9.159  14.581   1.830  0.1263  0.4535 -0.0091
 4826W        W25106   9.178  18.832   0.427  0.1929 -0.2175 -0.0140
 4827W        W25107   8.679  15.768  13.036  0.0837 -0.2480 -0.1320
 4828W        W25108  18.173   1.555   4.097 -0.1112 -0.0986 -0.1216
 4829W        W25109   2.732   0.252   5.490 -0.0392  0.2073  0.1084
 4830W        W25110  19.196   0.286   3.501 -0.1862  0.0992  0.1599
 4831W        W25111   7.398  16.883  12.027 -0.0432 -0.1292 -0.0196
 4832W        W25112   8.683   8.207  12.878  0.2775  0.0539 -0.2158
 4833W        W25113  14.255  13.105   4.041 -0.1710 -0.5797 -0.0929
 4834W        W25114  11.357   5.985  11.344  0.0231  0.2355  0.0747
 4835W        W25115   9.498   9.850  13.727 -0.3364  0.0511  0.5670
 4836W        W25116  10.814  18.992   1.047  0.2491  0.2468  0.1493
 4837W        W25117   1.833   2.049   2.129 -0.5230 -0.1643  0.2647
 4838W        W25118  14.580  16.633   1.003 -0.0091  0.0551  0.1497
 4839W        W25119  10.964   2.022  12.927  0.2492 -0.3572  0.1430
 4840W        W25120   4.545   4.123   2.379 -0.0582  0.1496  0.3146
 4841W        W25121  14.587   3.443   2.187 -0.0415  0.0335 -0.2238
 4842W        W25122  18.020   4.462   2.300 -0.0606  0.2451  0.2675
 4843W        W25123   3.625   2.118   0.620  0.0599 -0.0425  0.1884
 4844W        W25124  13.311   3.817  14.153  0.0155 -0.1556  0.2341
 4845W        W25125  19.374   6.861  10.710  0.3978  0.3011  0.2381
 4846W        W25126   0.335   3.709  11.832 -0.0268  0.1662 -0.0618
 4847W        W25127  11.961  12.534  13.498 -0.0662 -0.0685  0.1733
 4848W        W25128   5.722   9.418   1.643 -0.1340  0.4367 -0.0132
 4849W        W25129  10.073  13.070   3.242  0.2104  0.0756  0.0356
 4850W        W25130  16.967   7.347   2.718 -0.0943 -0.0711  0.1405
 4851W        W25131   3.357   2.068   3.418 -0.1731  0.0995 -0.0569
 4852W        W25132  19.159  18.951   0.920 -0.0505  0.1351 -0.3847
 4853W        W25133  12.160   0.862  13.109  0.4292  0.0371 -0.0149
 4854W        W25134   2.546   6.167  13.653  0.1009 -0.0788  0.2726
 4855W        W25135   8.433   2.956  10.695 -0.1542 -0.1082  0.2236
 4856W        W25136  10.209  17.570   1.886 -0.2244 -0.2353 -0.0370
 4857W        W25137  12.571  12.330  11.498  0.0578 -0.0276 -0.4297
 4858W        W25138  16.315  10.955  10.617 -0.0390 -0.0625  0.0391
 4859W        W25139   6.642   6.109   2.792 -0.1589 -0.3904 -0.1442
 4860W        W25140  18.022  16.357  12.927  0.0009  0.0040  0.1089
 4861W        W25141  15.940  18.501  14.350 -0.4946  0.0676  0.0103
 4862W        W25142   8.291   8.711   3.278 -0.2024  0.3330  0.1045
 4863W        W25143   5.260  18.997  12.232  0.0968  0.1957  0.1764
 4864W        W25144  13.190  18.749  12.523  0.0903  0.0198 -0.2005
 4865W        W25145  17.116  17.940  13.557 -0.1276 -0.3079  0.0413
 4866W        W25146   0.145   5.738  12.423  0.0479 -0.0287 -0.0208
 4867W        W25147   6.741  12.099  13.500 -0.2477  0.0057  0.0759
 4868W        W25148   6.721  17.373  13.612 -0.1134  0.2611 -0.1676
 4869W        W25149   8.082  15.156   0.162  0.2244  0.1411 -0.0039
 4870W        W25150   6.038   9.438  11.824  0.2739 -0.0801  0.1088
 4871W        W25151   0.909   8.848   1.697 -0.4669 -0.0920 -0.1347
 4872W        W25152  16.914  17.907   3.435 -0.1457 -0.2152  0.1327
 4873W        W25153  12.904   2.546   2.776  0.2476 -0.2325 -0.2425
 4874W        W25154  16.783   2.696  11.751  0.0262 -0.3647  0.0722
 4875W        W25155  14.672  11.098   2.647  0.0407 -0.1172 -0.1046
 4876W        W25156   7.522  13.314  10.435 -0.1807 -0.2764  0.1881
 4877W        W25157   6.904  12.817  13.740 -0.2056 -0.1987 -0.0412
 4878W        W25158   1.867  18.461   2.892 -0.2279 -0.2391 -0.3473
 4879W        W25159   2.407  13.834  10.465  0.1990  0.1882  0.2438
 4880W        W25160  17.393   0.679  13.112  0.0738  0.3288  0.1578
 4881W        W25161   4.694  11.854  13.365 -0.1993 -0.1084 -0.0980
 4882W        W25162  17.910   7.889  12.117  0.6220 -0.0795 -0.0774
 4883W        W25163  16.540  12.011   1.672 -0.0238  0.2909  0.0990
 4884W        W25164   3.712  12.716   2.288 -0.0678  0.2867  0.1591
 4885W        W25165   0.720  11.762   1.285  0.1670  0.3868 -0.1084
 4886W        W25166   6.103  17.782   2.517  0.3617  0.0587  0.0736
 4887W        W25167  18.684   9.419  14.351 -0.2265  0.2996 -0.0689
 4888W        W25168   7.364   5.475  14.217 -0.2496  0.2616 -0.0638
 4889W        W25169  13.024   7.054  12.384 -0.1213  0.0120  0.0223
 4890W        W25170   7.345   2.829  11.553  0.2029 -0.0789  0.1881
 4891W        W25171  18.106   3.234  10.364 -0.0365  0.3037 -0.2487
 4892W        W25172   2.167  18.719   3.225  0.3641  0.0120  0.2990
 4893W        W25173  11.917   3.307   2.103  0.1740  0.1593  0.0303
 4894W        W25174  11.283  14.233   2.448 -0.2335  0.0694  0.0558
 4895W        W25175   3.861  18.864   0.660  0.0082 -0.2493  0.0506
 4896W        W25176   3.359  10.072   2.615 -0.0104  0.0347  0.2692
 4897W        W25177   2.378  15.351   2.561  0.0268 -0.2772 -0.0679
 4898W        W25178  12.865   2.628  10.661  0.2749 -0.0729 -0.0821
 4899W        W25179  19.341  15.889  12.768 -0.0841 -0.0524  0.2148
 4900W        W25180   3.075   4.077  10.343  0.0381 -0.0434  0.0621
 4901W        W25181   1.644  16.293   0.146 -0.0290 -0.2244  0.1320
 4902W        W25182  13.054   8.932   3.484 -0.0733  0.1041 -0.0670
 4903W        W25183   2.778   6.885  13.818  0.1757 -0.1548 -0.1055
 4904W        W25184   0.789   9.043   4.469  0.0418 -0.0564 -0.2405
 4905W        W25185  15.962   8.924   0.812  0.1480 -0.0603  0.2909
 4906W        W25186   7.171  12.589   2.110  0.0666  0.1123 -0.2639
 4907W        W25187   7.365   7.921  12.260 -0.1251 -0.0061  0.0552
 4908W        W25188   7.205  15.345   3.008  0.2095 -0.2302  0.2159
 4909W        W25189  19.366   2.404   1.910 -0.0815  0.3526  0.0407
 4910W        W25190   0.521   3.590  13.177 -0.1386 -0.1493 -0.2997
 4911W        W25191  16.485   8.991  11.700  0.2546  0.1878  0.3072
 4912W        W25192  14.105   5.164  12.865 -0.0320 -0.1304  0.0719
 4913W        W25193   5.487  18.381  11.587 -0.0732 -0.0035  0.2427
 4914W        W25194  14.915   2.957  11.012  0.2975 -0.1786 -0.0601
 4915W        W25195  13.609   6.241  11.950 -0.0273 -0.0924  0.0780
 4916W        W25196   8.387   1.865   0.538  0.2891 -0.4047  0.1153
 4917W        W25197  18.395   3.600   3.334 -0.2272 -0.0135  0.0951
 4918W        W25198  11.254   6.307  13.091 -0.0813  0.0128 -0.2800
 4919W        W25199  17.823  13.213  11.072  0.0112  0.1074 -0.2497
 4920W        W25200   7.624  15.584   3.252  0.1442  0.1732  0.3502
 4921W        W25201  16.687  16.828  14.302 -0.2590 -0.0154 -0.3151
 4922W        W25202   7.424   6.866  13.607  0.3374 -0.3172 -0.0322
 4923W        W25203   3.010  18.847  13.030  0.0231 -0.0654 -0.1120
 4924W        W25204   2.388  11.061   0.733  0.1159  0.1001 -0.2009
 4925W        W25205  13.287  13.654  12.016 -0.4153  0.2425  0.6446
 4926W        W25206  16.962   5.654  10.735 -0.0178 -0.1355  0.0394
 4927W        W25207  14.925   3.060  10.094 -0.0248 -0.0064 -0.1358
 4928W        W25208  14.373   5.987  12.505  0.3345  0.3893  0.0609
 4929W        W25209  15.121   1.775   3.428 -0.1000  0.0772  0.2346
 4930W        W25210  12.264   9.794  13.529 -0.2932 -0.1127 -0.2682
 4931W        W25211   0.625  14.850   3.467 -0.2690  0.1512  0.0707
 4932W        W25212   3.660   8.474  10.981  0.3713  0.1132 -0.1061
 4933W        W25213   5.909  10.172  13.540 -0.1747 -0.3837 -0.2587
 4934W        W25214   5.777   6.707   3.406  0.0922  0.0717 -0.4059
 4935W        W25215  15.240  13.886  13.723 -0.0628 -0.2822 -0.1249
 4936W        W25216   2.622   8.960   1.657  0.2635 -0.1864  0.2189
 4937W        W25217  19.133  16.466   0.205  0.0419  0.0168 -0.1297
 4938W        W25218  13.819  11.250   0.282 -0.1861 -0.1002 -0.1799
 4939W        W25219   5.908   8.498   2.021  0.0548  0.0209 -0.1310
 4940W        W25220   1.514  18.485  10.848  0.5113 -0.3087 -0.0635
 4941W        W25221   3.664   9.599   3.344 -0.0683 -0.2696 -0.1397
 4942W        W25222  19.290   6.399  11.233 -0.2827 -0.4756 -0.2148
 4943W        W25223   9.724   3.750  13.070 -0.2981  0.2467 -0.0380
 4944W        W25224   1.532   6.801  11.634  0.1537  0.0319 -0.0066
 4945W        W25225   7.544  11.888  12.825  0.0961 -0.1930 -0.1969
 4946W        W25226   0.573   9.258   2.667 -0.0178 -0.3655 -0.1759
 4947W        W25227   1.441   7.139  11.052 -0.0657 -0.1938 -0.4875
 4948W        W25228   0.008   5.159  13.838 -0.1239 -0.1006  0.1100
 4949W        W25229  18.796   3.461   3.641 -0.2035 -0.0838 -0.5846
 4950W        W25230   1.684  19.036   3.136 -0.2911 -0.1115  0.0803
 4951W        W25231  10.467   8.552  11.169  0.1103 -0.0224  0.2095
 4952W        W25232   2.093   2.975   0.675  0.0983  0.4113 -0.1918
 4953W        W25233   4.960   6.937  12.299  0.0924 -0.5164 -0.0064
 4954W        W25234  13.386   6.619  11.084 -0.0956 -0.0842 -0.2303
 4955W        W25235  10.997   0.515   4.084 -0.3371 -0.0164 -0.2040
 4956W        W25236  11.800   3.520  11.476 -0.2399 -0.0780 -0.0264
 4957W        W25237  11.907   8.295  13.337  0.0122  0.2483 -0.2901
 4958W        W25238  10.194   6.030   3.232  0.1364  0.2772 -0.2738
 4959W        W25239  14.035  10.143  12.196  0.2046 -0.0743  0.1048
 4960W        W25240  18.150  11.387  12.596 -0.0072  0.3590  0.0637
 4961W        W25241  10.565  15.499   2.110  0.1145  0.0558  0.0291
 4962W        W25242   0.807   4.388   2.241 -0.1103  0.0420 -0.0008
 4963W        W25243   3.516  17.161   1.881  0.0815  0.0216  0.1264
 4964W        W25244   1.682   9.753  10.173  0.2875  0.0637 -0.2738
 4965W        W25245   5.423  13.219   2.975  0.2283  0.0790  0.2484
 4966W        W25246  11.236   4.228   3.181 -0.2384  0.2693 -0.0509
 4967W        W25247   2.269  11.807  12.140 -0.0763  0.1573 -0.1355
 4968W        W25248   4.756  18.669   2.865 -0.2810  0.1278 -0.1662
 4969W        W25249   3.527   3.438   3.741 -0.2368  0.0104 -0.0331
 4970W        W25250   2.600   2.268   2.318  0.1814 -0.0688 -0.3400
 4971W        W25251   1.212   6.351  12.031  0.2419 -0.2260 -0.0140
 4972W        W25252   1.404  18.228   2.920 -0.0677  0.3991  0.1345
 4973W        W25253  15.222  10.432   4.700  0.3122 -0.0239 -0.2816
 4974W        W25254  11.854   8.019  11.278  0.0191  0.1186 -0.2013
 4975W        W25255   1.291   1.936   0.535  0.0793 -0.0300 -0.0072
 4976W        W25256  17.466   0.105   1.423 -0.0390  0.0089  0.1971
 4977W        W25257  11.724  14.751   9.533 -0.2476 -0.0701  0.0695
 4978W        W25258  17.144   7.074   0.443  0.1115  0.1509  0.1578
 4979W        W25259  10.207  10.276  14.077 -0.0870  0.0248 -0.3085
 4980W        W25260   3.774  11.331  13.981  0.1856  0.2444  0.0752
 4981W        W25261   1.623  10.911  13.037 -0.0698 -0.3035  0.1678
 4982W        W25262  11.983  18.805   4.262  0.1224  0.0621 -0.0196
 4983W        W25263  14.550   2.534   2.413 -0.3589  0.0385 -0.4625
 4984W        W25264   7.088  11.199  13.443  0.2835  0.0257  0.1815
 4985W        W25265   4.139  17.675  11.475  0.0556  0.2702 -0.1471
 4986W        W25266  12.744   9.276  11.965 -0.0734  0.1492 -0.1423
 4987W        W25267   7.189   9.799  14.469 -0.2704  0.0440 -0.0350
 4988W        W25268   3.180   0.303  13.934  0.2054  0.1956 -0.1013
 4989W        W25269  14.272  15.039  12.520 -0.2608 -0.1350  0.2381
 4990W        W25270  10.018   4.440  10.007  0.1592  0.0448 -0.3861
 4991W        W25271   8.768  18.390   2.487  0.0161 -0.0028  0.0554
 4992W        W25272   5.449   3.387  13.955 -0.0003 -0.3853  0.3029
 4993W        W25273   5.719  19.232  13.014 -0.0238 -0.0637  0.0942
 4994W        W25274   0.770  17.486   1.913  0.1796  0.0512  0.1281
 4995W        W25275  16.010   7.135  14.331  0.0457 -0.0318 -0.1957
 4996W        W25276  13.981  18.007   2.008  0.0016 -0.1515 -0.0650
 4997W        W25277   7.288   4.369   0.027 -0.3620 -0.0956  0.0682
 4998W        W25278  17.252  10.974   1.544 -0.0153 -0.0139  0.1330
 4999W        W25279   8.578   3.755  13.292  0.0945  0.1518 -0.2893
 5000W        W25280   6.170  18.439  13.774 -0.3954  0.2443  0.2080
 5001W        W25281  17.378  11.985   3.661  0.2016  0.1881 -0.1797
 5002W        W25282  14.531  15.317  10.745  0.1696 -0.3189 -0.2693
 5003W        W25283   7.860   0.081   3.044 -0.0787 -0.2898 -0.0886
 5004W        W25284   1.112   1.661   0.122  0.2274 -0.0213  0.1339
 5005W        W25285  14.042   5.360   4.462  0.1609 -0.0738  0.0001
 5006W        W25286  15.779  16.154  11.559  0.0254  0.0188 -0.1173
 5007W        W25287  18.548   9.038  14.013 -0.1512  0.1710  0.3276
 5008W        W25288  14.826   9.860  13.716 -0.2731  0.1512  0.2369
 5009W        W25289  13.155   8.667   1.625 -0.4208  0.0923 -0.2027
 5010W        W25290   5.939  17.780   0.196 -0.0111 -0.1851  0.0541
 5011W        W25291   9.163   8.381   0.539 -0.2430 -0.1606 -0.3237
 5012W        W25292   1.338   8.558  12.982  0.0454  0.1251  0.2245
 5013W        W25293   7.424   6.505   2.415  0.5989  0.0047  0.0597
 5014W        W25294  12.139  18.296   0.547 -0.0945  0.0426  0.2987
 5015W        W25295   4.348   9.987  12.953  0.0377  0.1577 -0.0153
 5016W        W25296   1.927  18.972   1.190  0.2242  0.1394 -0.0515
 5017W        W25297  10.697   7.725   1.126  0.0178  0.0115 -0.2383
 5018W        W25298   5.326   9.037   0.008  0.3448 -0.0305 -0.0342
 5019W        W25299   5.311   6.393   3.669 -0.2122  0.0296  0.0225
 5020W        W25300   9.949   5.090   2.819  0.0334  0.3834 -0.0421
 5021W        W25301   7.770  11.607  11.041 -0.1666  0.1252 -0.0061
 5022W        W25302   8.522   8.547  11.530 -0.0185  0.3148 -0.0940
 5023W        W25303  12.475   7.292   4.970 -0.1811 -0.3251 -0.0845
 5024W        W25304   8.569  15.073   0.076  0.2559 -0.0452 -0.1834
 5025W        W25305  13.931   8.299  12.414 -0.2726  0.0657 -0.0090
 5026W        W25306   0.768  17.077  10.900  0.0667 -0.0876  0.1343
 5027W        W25307  11.548  16.300   3.178  0.3217  0.2174 -0.2422
 5028W        W25308   5.100  16.243   2.874  0.2190 -0.2133  0.0132
 5029W        W25309   6.794  17.190   0.197  0.2261  0.2797  0.2558
 5030W        W25310  15.178   8.856   9.637  0.2252  0.1981 -0.3603
 5031W        W25311   0.174   6.254  11.634  0.0059  0.1535  0.1258
 5032W        W25312   7.984  16.262   1.544  0.2567 -0.1686 -0.0548
 5033W        W25313  16.399  15.483   0.915  0.0236  0.2348  0.2107
 5034W        W25314   3.383  10.551   0.222 -0.2763  0.0564  0.0749
 5035W        W25315   3.419   5.127  10.802 -0.3524  0.3133  0.2565
 5036W        W25316  10.491  12.362  11.460  0.1273 -0.2790  0.1731
 5037W        W25317  12.834  12.140   0.000  0.1669 -0.0320  0.0238
 5038W        W25318   1.063   7.120   4.824 -0.1698 -0.3199  0.1526
 5039W        W25319  13.788  12.996   0.160  0.3240  0.2912 -0.1238
 5040W        W25320  10.233   7.114  11.265 -0.3124  0.2493  0.2020
 5041W        W25321  12.877  17.787  13.574  0.3397  0.0646 -0.0563
 5042W        W25322   3.848  18.912   2.201  0.0750  0.0019  0.2038
 5043W        W25323  16.981   1.297  10.995 -0.2509 -0.1327  0.0049
 5044W        W25324  19.342   4.881  12.337  0.3921 -0.2583  0.2542
 5045W        W25325   7.063  17.064  13.806  0.0509 -0.1132 -0.0091
 5046W        W25326  10.056   9.923   2.304  0.1772  0.1695 -0.0068
 5047W        W25327   8.434   7.055   2.874 -0.2218 -0.1965  0.2675
 5048W        W25328  14.169  17.990   0.539  0.2141 -0.0356 -0.1621
 5049W        W25329   8.659  13.347  10.962  0.1978  0.1734  0.2594
 5050W        W25330  12.532  13.423  13.941 -0.1796 -0.2282 -0.2113
 5051W        W25331   3.830  16.840   3.899  0.1735 -0.0513  0.1107
 5052W        W25332  17.118   7.883   3.543  0.1495  0.0751 -0.1550
 5053W        W25333   4.571  15.255  14.219 -0.0168 -0.0109  0.0453
 5054W        W25334  12.190  17.126   0.477  0.3932  0.0220 -0.0412
 5055W        W25335  16.350  14.014  11.063  0.2849  0.1079 -0.0324
 5056W        W25336  18.265  10.280  12.708 -0.0176 -0.1794  0.3280
 5057W        W25337  11.653   3.317  12.863 -0.1012 -0.1553 -0.0290
 5058W        W25338  11.685   6.142   2.476  0.2459  0.2273  0.2106
 5059W        W25339  16.142  13.151   3.130  0.2099  0.1009 -0.1727
 5060W        W25340   8.965   7.617  11.523 -0.0628  0.0476 -0.3969
 5061W        W25341  15.923   6.111   2.723  0.0407  0.1876 -0.0306
 5062W        W25342   2.131   2.418  12.200  0.2792 -0.1291 -0.1870
 5063W        W25343  18.815  10.085  10.059  0.2214 -0.0976 -0.2971
 5064W        W25344   3.903  17.484   4.986  0.3172  0.1069 -0.3552
 5065W        W25345   3.173  15.008  14.283 -0.2000  0.1891  0.1963
 5066W        W25346  10.101   1.728   1.592 -0.0995 -0.2312  0.1509
 5067W        W25347   7.816   6.814   3.672  0.2372  0.4324 -0.3103
 5068W        W25348  16.380  15.589   2.706  0.2209  0.0279  0.2087
 5069W        W25349  16.712   9.336   0.108  0.2049  0.2417  0.0494
 5070W        W25350   1.049  10.003   2.841 -0.1079  0.1363 -0.0293
 5071W        W25351   3.393   1.674  11.920  0.1834  0.0289  0.0934
 5072W        W25352   0.467   2.558   1.112 -0.0497 -0.1716  0.3128
 5073W        W25353  19.362  12.910  10.732 -0.0068 -0.1155 -0.1945
 5074W        W25354  16.488   1.060  10.938  0.2919  0.0938 -0.0492
 5075W        W25355   3.853  15.258  11.259 -0.2354  0.0702 -0.0512
 5076W        W25356   4.985   3.503   2.045  0.1302  0.0422 -0.0305
 5077W        W25357   9.893  17.779  13.583  0.1541  0.0307 -0.2038
 5078W        W25358  18.464  11.811   9.875 -0.2216 -0.0292  0.0328
 5079W        W25359  10.195   5.546   0.246  0.2807  0.1224  0.0178
 5080W        W25360  13.425   6.281   1.633  0.1164 -0.0497 -0.0535
 5081W        W25361  14.100   6.080   1.142 -0.3076 -0.2034  0.0875
 5082W        W25362   4.481   2.460  12.955 -0.0029  0.2725 -0.2839
 5083W        W25363  12.578  13.645  11.199 -0.3954  0.0349 -0.1762
 5084W        W25364   4.999   5.721  14.019 -0.2280 -0.3342  0.0347
 5085W        W25365  18.775   2.795   4.300 -0.2746 -0.2238 -0.0076
 5086W        W25366   7.163   7.755  11.464 -0.5278  0.0252  0.0948
 5087W        W25367   1.843   7.441   4.537 -0.1436  0.2140 -0.1658
 5088W        W25368   6.645   1.388   2.731 -0.1476 -0.0549  0.0358
 5089W        W25369   7.884   5.705   1.890 -0.0061  0.0199  0.0829
 5090W        W25370   3.757   0.184  12.918 -0.3508 -0.0658  0.1852
 5091W        W25371   2.880  19.291  11.255  0.0391 -0.0139  0.2218
 5092W        W25372  11.032  18.244   4.040  0.1745 -0.0334 -0.1757
 5093W        W25373   0.876  15.974   2.158  0.0916 -0.1018 -0.0815
 5094W        W25374  15.830   8.485  11.302 -0.1011 -0.2037 -0.1345
 5095W        W25375  17.976   3.917   2.884  0.0371 -0.0531 -0.3275
 5096W        W25376   0.040  16.254   3.295 -0.1742  0.2347 -0.2063
 5097W        W25377   9.035  16.004   1.177  0.2248 -0.2027  0.1608
 5098W        W25378   4.355   3.128   0.933 -0.0429  0.2001  0.0532
 5099W        W25379   0.260  13.885  11.890  0.1565 -0.1478  0.0193
 5100W        W25380   3.133   8.902  12.519 -0.3071  0.2508 -0.1316
 5101W        W25381   6.790   2.747  12.907  0.1363  0.1933 -0.1690
 5102W        W25382  18.419  12.245   3.159 -0.0495 -0.5197 -0.4944
 5103W        W25383   8.382   7.072  11.789 -0.2794 -0.3374 -0.0742
 5104W        W25384  15.944  15.451   9.620 -0.2995 -0.0585  0.2206
 5105W        W25385  14.137   8.492  13.615  0.0208  0.1652 -0.1097
 5106W        W25386  19.378  10.181   2.738  0.1413  0.2492 -0.1874
 5107W        W25387  10.485  11.860  11.442  0.1558 -0.1607 -0.0096
 5108W        W25388   8.164   0.414  11.541 -0.1761  0.3889 -0.0871
 5109W        W25389  12.566   5.871  11.977 -0.1263  0.0475  0.0303
 5110W        W25390  18.477  13.003   0.926 -0.0546 -0.1945 -0.2246
 5111W        W25391   8.803  18.552  13.260  0.1333  0.2190 -0.0706
 5112W        W25392  18.077   2.722   3.185 -0.0262 -0.2399  0.0497
 5113W        W25393  14.602   7.660   1.733  0.5462  0.0005  0.1515
 5114W        W25394   9.598   1.030   1.155  0.1427 -0.1071  0.0170
 5115W        W25395   3.777   9.125   0.766  0.0351 -0.1391 -0.1271
 5116W        W25396   3.279   2.823   1.692 -0.3255 -0.2630  0.1175
 5117W        W25397   5.047   9.063  13.285 -0.1130 -0.0183  0.2770
 5118W        W25398   4.966  16.432  14.475  0.0161  0.1760 -0.1885
 5119W        W25399  14.105   6.414  14.313  0.0201  0.0469  0.3087
 5120W        W25400  14.508  19.280  11.827 -0.4017 -0.1843  0.3101
 5121W        W25401   4.847   6.476   3.011  0.2313  0.2916  0.2159
 5122W        W25402  13.112  13.302   3.109 -0.0155  0.1558 -0.0242
 5123W        W25403  10.725   0.737   2.447 -0.1684 -0.1573  0.1101
 5124W        W25404  13.720  13.495  14.352  0.0623  0.2233  0.0490
 5125W        W25405   1.087  17.391   1.149 -0.0636  0.0185 -0.0528
 5126W        W25406  17.345  10.883  12.403  0.0183  0.0040 -0.2642
 5127W        W25407   6.070  12.312  11.417  0.0118 -0.1762  0.0786
 5128W        W25408  11.365   9.617   5.190  0.0337  0.3696  0.1637
 5129W        W25409  16.381   1.546   2.595  0.0524  0.1991  0.3177
 5130W        W25410   8.389  13.760  14.179  0.0299  0.0233  0.0571
 5131W        W25411   0.778   0.430  13.906  0.5534 -0.0669  0.0137
 5132W        W25412   6.200   4.424   3.127  0.0135 -0.3468  0.0926
 5133W        W25413   6.439   7.201   4.783 -0.2067  0.0299 -0.0401
 5134W        W25414   6.662   4.658   3.495 -0.1481 -0.0172 -0.1319
 5135W        W25415  18.082  17.980  12.471 -0.1882  0.2102 -0.2131
 5136W        W25416  17.585  18.523   5.100 -0.0822  0.3147  0.3745
 5137W        W25417   8.187  13.845   0.410  0.5526 -0.0955 -0.1098
 5138W        W25418   0.616  14.219   1.884  0.2883 -0.1643  0.2364
 5139W        W25419  19.088  18.684   4.095 -0.1200  0.4251 -0.1694
 5140W        W25420  18.908   5.529   1.918 -0.1361  0.2834 -0.0784
 5141W        W25421   8.951  12.616   3.798  0.0262 -0.0095  0.2195
 5142W        W25422   8.550   7.272   0.692 -0.3776  0.1861 -0.0425
 5143W        W25423  16.932  12.597   2.226 -0.2213 -0.4035 -0.0186
 5144W        W25424   0.787  18.089  11.176 -0.0554 -0.2491  0.1279
 5145W        W25425   0.491   6.893  10.762 -0.0160  0.1145 -0.0196
 5146W        W25426  18.883   4.967  11.353  0.1356 -0.2876 -0.1084
 5147W        W25427   0.201  12.608  13.776 -0.0019  0.2975 -0.0816
 5148W        W25428  17.025  10.014  12.356 -0.0234  0.0207 -0.2557
 5149W        W25429  16.194   4.669   3.115  0.0308 -0.0968  0.1065
 5150W        W25430   4.344   5.767   0.321  0.0660  0.4316 -0.1336
 5151W        W25431  12.145  12.476   2.832  0.0121 -0.1018  0.0875
 5152W        W25432  14.948  13.290   3.839 -0.0070 -0.0811  0.1012
 5153W        W25433   6.290   6.010  13.162 -0.1912  0.2579 -0.0710
 5154W        W25434  10.648  16.691   1.991  0.0891 -0.3732  0.0425
 5155W        W25435  11.936  16.333  12.282 -0.0801  0.0585  0.0440
 5156W        W25436   7.281   3.900   2.122  0.1218  0.0905 -0.1641
 5157W        W25437   3.084   6.164   4.081  0.2796  0.1737 -0.2499
 5158W        W25438  10.659  16.781  12.628  0.0532 -0.0504  0.0482
 5159W        W25439   1.811  17.103  10.805  0.1547  0.1716 -0.2732
 5160W        W25440   9.518  14.432  11.405  0.0644  0.0656  0.0136
 5161W        W25441  16.393  18.777   3.371  0.1765  0.4031  0.4841
 5162W        W25442   8.022  13.379   1.922  0.2500 -0.2189  0.2836
 5163W        W25443   8.406   0.538   3.824  0.0458  0.0796  0.1353
 5164W        W25444   4.359   3.659  14.000 -0.0846 -0.3031 -0.3908
 5165W        W25445   0.647  18.038   1.352  0.1975 -0.1553 -0.1003
 5166W        W25446   1.701  18.800  12.801  0.1397  0.3275 -0.0544
 5167W        W25447  16.154  18.153   1.243 -0.0403 -0.1278 -0.1526
 5168W        W25448   5.841   3.516  14.421  0.0716  0.0751  0.0292
 5169W        W25449   8.617   5.863  12.324 -0.1781 -0.2068 -0.0944
 5170W        W25450   9.343  19.204  14.088  0.0969  0.1990 -0.1849
 5171W        W25451  17.539   1.835  10.340  0.1510 -0.1976 -0.2089
 5172W        W25452  10.382   9.449  11.351 -0.2424 -0.0248 -0.0836
 5173W        W25453   2.590   0.269   2.565  0.0036  0.2267 -0.1071
 5174W        W25454   7.636  12.400   4.175  0.0644  0.2684 -0.0716
 5175W        W25455  14.729   3.449   1.394 -0.2890 -0.0265 -0.2317
 5176W        W25456   7.149   7.576   1.439  0.2275  0.1735  0.3498
 5177W        W25457  16.712   3.523  12.867  0.2392 -0.4598 -0.4934
 5178W        W25458  17.403   0.463   3.169 -0.1491  0.1619 -0.2353
 5179W        W25459  10.694   4.764  11.654  0.4335 -0.0173  0.1774
 5180W        W25460  10.592  11.960   2.358 -0.3042 -0.3270 -0.0261
 5181W        W25461  14.663  19.249  14.443 -0.0989 -0.1119 -0.0738
 5182W        W25462  17.550   9.047   0.853  0.0381  0.2157 -0.0839
 5183W        W25463   8.086   6.001   3.617 -0.0738  0.1977  0.0386
 5184W        W25464  16.075  14.583  12.361  0.0149 -0.1346  0.1782
 5185W        W25465   7.854  10.423   2.261 -0.0375 -0.2920 -0.2475
 5186W        W25466  18.019   6.212  11.546  0.1738  0.1528 -0.1390
 5187W        W25467   2.375   4.322  11.322 -0.1649 -0.0316  0.0105
 5188W        W25468  18.842   3.848   0.472  0.0117  0.2549 -0.0950
 5189W        W25469  19.217   3.659  13.607  0.1031  0.1760 -0.1449
 5190W        W25470  14.395   0.516  11.139  0.0448 -0.0293  0.0220
 5191W        W25471   5.370  10.286  11.305 -0.0819  0.2377 -0.4527
 5192W        W25472   8.699  13.855  10.429  0.2323 -0.0670  0.0793
 5193W        W25473  13.922   7.391  13.274  0.0732 -0.3289  0.0871
 5194W        W25474  17.315  10.901   2.335  0.0031 -0.2063 -0.1005
 5195W        W25475   0.032   8.555  12.400 -0.0206 -0.1950 -0.3915
 5196W        W25476   0.109   9.342  10.690  0.0350  0.0232  0.0630
 5197W        W25477   0.439   0.983   1.447 -0.0050  0.0732  0.2142
 5198W        W25478  11.558   6.634  14.428  0.4023 -0.0042  0.0238
 5199W        W25479  18.957  15.660   2.297  0.2400  0.0614 -0.0509
 5200W        W25480   5.180   7.932  12.162 -0.2184 -0.1169 -0.0141
 5201W        W25481   8.822  15.329  13.631  0.1850  0.2978  0.1757
 5202W        W25482   6.052   6.365  12.806 -0.4279  0.3287 -0.2278
 5203W        W25483   5.965   4.270   0.355 -0.0903  0.3453 -0.2461
 5204W        W25484   4.734  16.951  13.819  0.5483 -0.0805 -0.1777
 5205W        W25485  14.552  11.500   3.791 -0.2726  0.1855 -0.0823
 5206W        W25486  15.993  10.504  11.454 -0.2093 -0.1141  0.0051
 5207W        W25487  18.776  18.190  12.632  0.1160  0.2791 -0.0030
 5208W        W25488   3.280   8.035   1.395  0.4133 -0.2133  0.1245
 5209W        W25489   6.090   4.453  12.624 -0.0013 -0.0461 -0.0863
 5210W        W25490  13.513  17.332   3.184 -0.0373  0.0540  0.0313
 5211W        W25491   6.936   8.778   9.582 -0.1204 -0.0152 -0.1489
 5212W        W25492   1.397  18.369   3.797 -0.3625 -0.0074 -0.0521
 5213W        W25493   1.034  12.272  14.176 -0.1248  0.0761  0.3316
 5214W        W25494  15.638   7.067  12.697 -0.1401  0.1366  0.3175
 5215W        W25495   4.491  14.659   1.353 -0.3947 -0.0310 -0.0296
 5216W        W25496   7.718   1.943  14.485  0.0394  0.1314 -0.0162
 5217W        W25497   1.807   7.224  10.675 -0.1686  0.1561  0.1941
 5218W        W25498   6.748   0.572   3.834 -0.1057 -0.0475  0.0252
 5219W        W25499   5.065   6.720  10.805 -0.0921 -0.1241  0.3103
 5220W        W25500   2.388  13.139   3.833  0.1612  0.0511  0.1359
 5221W        W25501   0.039   1.140  13.216 -0.0651 -0.1467 -0.1702
 5222W        W25502   5.215   4.536   1.877 -0.1877 -0.1098 -0.1234
 5223W        W25503  15.272  16.578   2.120  0.1930 -0.1435  0.2186
 5224W        W25504   2.547  11.382   1.767  0.0730 -0.1614  0.3517
 5225W        W25505  17.901   5.500  11.628  0.0691 -0.0954  0.2182
 5226W        W25506   6.902   4.251  13.787 -0.0234  0.1030 -0.0805
 5227W        W25507   1.322  16.275   2.343 -0.1541 -0.2265  0.0821
 5228W        W25508  10.921  18.229   3.491 -0.0309 -0.3241 -0.0903
 5229W        W25509   5.871   1.422   3.059  0.1128 -0.1047  0.1173
 5230W        W25510  14.802  18.434  11.831 -0.0063 -0.1901 -0.1471
 5231W        W25511  13.417  14.480  11.637  0.2765 -0.0992  0.1406
 5232W        W25512   7.025   0.727  12.583  0.1980  0.0489 -0.2294
 5233W        W25513   3.802  12.900  13.597  0.1976  0.0601  0.0111
 5234W        W25514   1.220  17.918  10.985 -0.0695  0.2381  0.1659
 5235W        W25515  18.631   3.770  14.494 -0.1284 -0.3187 -0.0209
 5236W        W25516  10.006  13.121   2.778  0.1686 -0.2335  0.0592
 5237W        W25517   1.753  14.327   0.030  0.0696 -0.0173  0.0211
 5238W        W25518   3.076  18.846  11.536 -0.1484 -0.2480 -0.5577
 5239W        W25519   3.321  13.744   2.830 -0.0902  0.0897 -0.1756
 5240W        W25520   2.205  11.743  12.980 -0.2562 -0.0158 -0.3010
 5241W        W25521   2.720   5.685  14.489  0.0731  0.0898 -0.0523
 5242W        W25522  15.813   8.658   0.424 -0.2389 -0.1332 -0.1095
 5243W        W25523   5.442  17.162   3.481  0.1341 -0.2581  0.1604
 5244W        W25524  11.150   3.161  12.708 -0.0467  0.2737  0.2535
 5245W        W25525   1.126   2.137  14.425 -0.1225  0.3804  0.0940
 5246W        W25526   2.718  12.998   3.277  0.0113 -0.2788  0.2137
 5247W        W25527  14.234   6.532   2.595  0.0886  0.0504  0.0816
 5248W        W25528  19.213   3.920  11.637  0.0495  0.0125  0.1954
 5249W        W25529   2.703   7.554   0.793 -0.1875  0.1544  0.1658
 5250W        W25530  11.705   9.716   2.367  0.0131 -0.0500  0.0069
 5251W        W25531   5.423  15.678  14.273 -0.1067 -0.1098 -0.1912
 5252W        W25532   5.325  16.497  13.509 -0.1896 -0.0912  0.0340
 5253W        W25533   0.438   9.622  12.980  0.2547  0.0873  0.3310
 5254W        W25534  10.578   7.678   3.925 -0.1753  0.0390  0.0428
 5255W        W25535   6.045   8.119   0.601  0.0317  0.3226  0.0678
 5256W        W25536  16.242   5.075  11.817 -0.1147  0.3153  0.0342
 5257W        W25537  13.836   6.012   1.869 -0.4370 -0.0237 -0.3834
 5258W        W25538  12.375  13.867   3.486  0.2940 -0.0362  0.1243
 5259W        W25539   6.675   7.305   1.507 -0.0743 -0.1129 -0.0748
 5260W        W25540  15.891  12.375  12.178  0.0669 -0.0394 -0.0234
 5261W        W25541   2.951  17.420   1.300  0.1951 -0.0321 -0.0939
 5262W        W25542  15.118  17.629   4.477  0.2797  0.0857 -0.0368
 5263W        W25543  15.934   4.356   0.195 -0.0410 -0.1720  0.2802
 5264W        W25544   5.032   4.771  14.355  0.2307  0.2802  0.2615
 5265W        W25545  14.949  10.740   3.872  0.2440 -0.0260 -0.0073
 5266W        W25546   7.134   1.845  14.386  0.0993 -0.1093 -0.0237
 5267W        W25547  10.477  12.508   1.526  0.2105 -0.2437 -0.1101
 5268W        W25548   6.309   0.315   3.467  0.0321  0.0399 -0.0221
 5269W        W25549  14.847   8.895   1.193 -0.2255  0.1878  0.2920
 5270W        W25550  13.981   3.780  11.422 -0.1503 -0.1435 -0.1736
 5271W        W25551  14.709   2.332  10.495 -0.0515 -0.3678 -0.1644
 5272W        W25552  14.762   5.710  13.280  0.0339  0.0259 -0.2442
 5273W        W25553   9.025   9.398   1.873  0.1121  0.0617  0.1088
 5274W        W25554  14.493   4.818  12.707  0.1009 -0.0263  0.2774
 5275W        W25555   0.504  18.616  14.365  0.0499 -0.1523  0.0979
 5276W        W25556  14.597   8.549  10.636 -0.2058 -0.0063  0.4953
 5277W        W25557   7.514  11.364   2.333  0.1223  0.0471  0.3690
 5278W        W25558  10.389  15.810   1.732 -0.2432 -0.0714  0.2216
 5279W        W25559  12.835  14.398   2.415 -0.0513 -0.0628 -0.0951
 5280W        W25560   7.652   2.474  11.354  0.2437  0.2253  0.0646
 5281W        W25561   5.707   9.167   3.605 -0.1883  0.0092 -0.0044
 5282W        W25562   2.867  17.557   3.355 -0.2234 -0.1196  0.0256
 5283W        W25563  14.848  15.845  13.240 -0.1801  0.3986  0.1817
 5284W        W25564  15.918   9.434   1.015 -0.0588 -0.1515 -0.3322
 5285W        W25565  11.947   3.703  14.457 -0.2772 -0.0563  0.1620
 5286W        W25566   1.277   0.566  14.090 -0.2577 -0.0005  0.0953
 5287W        W25567  10.828   9.420  11.089 -0.0985 -0.0742 -0.2526
 5288W        W25568  14.688   2.694  12.924  0.4833 -0.1430 -0.0731
 5289W        W25569  11.457  10.530   1.188 -0.3385  0.1833 -0.1013
 5290W        W25570   1.544   2.806  11.943 -0.1640 -0.1564  0.1778
 5291W        W25571  15.368   2.051  11.117 -0.0989 -0.1550  0.2571
 5292W        W25572  18.090   1.314  11.751  0.0633 -0.1483  0.0088
 5293W        W25573  14.264   7.374   2.960  0.0832  0.2765  0.0900
 5294W        W25574   5.939   0.052   3.273 -0.0455 -0.1581  0.1461
 5295W        W25575   2.255  16.559   4.258  0.2817 -0.2553 -0.0390
 5296W        W25576   9.438  12.211  13.741  0.3971 -0.0508  0.4599
 5297W        W25577  17.835   4.813   0.225 -0.2591  0.1083 -0.1709
 5298W        W25578  16.773   2.965  12.813  0.1220 -0.0453 -0.2643
 5299W        W25579  12.299   1.436   1.293  0.2478 -0.1096 -0.0661
 5300W        W25580   3.373  16.811  12.136  0.1013 -0.0126  0.3552
 5301W        W25581  11.348   8.284   1.494 -0.0993  0.0186 -0.0752
 5302W        W25582   9.516   6.475   3.812  0.0700  0.1669 -0.0486
 5303W        W25583  10.015  10.962   3.956  0.0063  0.1821  0.1482
 5304W        W25584   5.047  18.816   1.189 -0.1024  0.0524 -0.0164
 5305W        W25585  12.280  10.204   3.729 -0.1427  0.2494  0.0986
 5306W        W25586   1.111   8.478  10.168  0.0058 -0.1771  0.1045
 5307W        W25587  19.288   2.286   3.007 -0.4047  0.1303  0.2113
 5308W        W25588  18.063  16.184   0.747  0.0862 -0.0318 -0.2882
 5309W        W25589  14.355   2.833  11.334 -0.1530 -0.0094  0.2284
 5310W        W25590   6.358   2.192   0.439 -0.0165  0.0655  0.5284
 5311W        W25591  18.992   9.198   9.876  0.0514  0.3623  0.3482
 5312W        W25592   6.904   5.793   1.950  0.1309 -0.0422  0.4419
 5313W        W25593  15.083   0.455  11.438  0.3429 -0.0872  0.1054
 5314W        W25594   8.229   0.829   1.927  0.0965  0.0537 -0.4753
 5315W        W25595   3.508   9.241  14.350  0.1983  0.1519  0.0958
 5316W        W25596   5.513   3.289   3.254 -0.0692 -0.2316  0.0939
 5317W        W25597   0.481  14.182   2.708  0.0102  0.0155 -0.2761
 5318W        W25598   3.758  11.508   2.338 -0.0301  0.1172 -0.2292
 5319W        W25599   5.732   3.245   2.351 -0.1346  0.0239 -0.1100
 5320W        W25600   2.638  12.509   0.108  0.1651  0.0680 -0.2457
 5321W        W25601  19.151  11.887   2.534 -0.1859  0.1043 -0.3289
 5322W        W25602  14.678   3.232   2.690 -0.0537 -0.2786 -0.2765
 5323W        W25603  10.563   7.217   9.758 -0.1793  0.1020  0.1449
 5324W        W25604  13.394   0.619   3.853 -0.0979 -0.1150 -0.0339
 5325W        W25605  19.083   5.166   3.919  0.0738 -0.0941  0.1796
 5326W        W25606  14.170   7.244  11.395 -0.0931  0.1496 -0.0672
 5327W        W25607   6.431  15.675   0.699 -0.0179  0.0062 -0.3298
 5328W        W25608  11.898   5.134   3.991  0.0716 -0.0495  0.1775
 5329W        W25609   6.082   2.118  14.133  0.2211  0.4312 -0.0390
 5330W        W25610  12.787  17.596   3.339  0.2512 -0.0678 -0.1587
 5331W        W25611   9.602   4.261   4.665 -0.0031  0.0464 -0.0434
 5332W        W25612  17.043   7.613  14.069  0.0887 -0.0375  0.0506
 5333W        W25613   8.341   8.867  13.654  0.0202  0.1352 -0.1292
 5334W        W25614   2.065  13.664   1.086 -0.4316  0.0077 -0.0683
 5335W        W25615  16.605   2.371   0.765  0.1469 -0.2200  0.0599
 5336W        W25616   3.045  11.125   1.388  0.0641 -0.0016 -0.2067
 5337W        W25617   6.328  18.651   2.055  0.0644  0.0765  0.0029
 5338W        W25618  10.330  16.514  13.934 -0.2367 -0.0748  0.0474
 5339W        W25619   4.029   8.444  13.398 -0.1742  0.1498  0.0173
 5340W        W25620   1.772   6.243   0.646 -0.1059 -0.0602 -0.0988
 5341W        W25621  10.654   7.454   3.483  0.0319  0.3090 -0.1829
 5342W        W25622  15.985   5.295   2.242  0.0776 -0.1292  0.0321
 5343W        W25623  15.344   9.811   2.808  0.2989  0.3268 -0.0112
 5344W        W25624   6.005  11.428  12.127  0.0931  0.0130 -0.1758
 5345W        W25625   7.380   1.394  14.207  0.0798 -0.2061  0.2108
 5346W        W25626   6.397  14.388   0.078 -0.0608  0.0645 -0.3097
 5347W        W25627  11.369   7.860   0.589  0.0005 -0.0463 -0.0801
 5348W        W25628  11.853  13.531  12.053  0.1670 -0.1116 -0.3895
 5349W        W25629  13.751   8.164  10.980 -0.1290 -0.1576  0.1427
 5350W        W25630   9.154   9.643   0.261  0.0470 -0.1078  0.1291
 5351W        W25631   8.187   8.136  13.021  0.2745  0.0212  0.3103
 5352W        W25632   7.197   1.272   0.853 -0.1778  0.1852  0.1454
 5353W        W25633   2.152  16.123   2.852 -0.1061 -0.1777 -0.2107
 5354W        W25634  15.546  10.779   1.746  0.1394 -0.0624 -0.0334
 5355W        W25635   6.132   4.083   2.213 -0.3487 -0.0122 -0.0075
 5356W        W25636  11.399   7.222  13.949  0.0690  0.0288  0.0368
 5357W        W25637  10.806  15.632   1.010  0.0506  0.0404  0.0247
 5358W        W25638  10.670  17.188   3.987  0.0610  0.1133 -0.2241
 5359W        W25639   7.771  11.989  12.221 -0.0468 -0.0954 -0.0671
 5360W        W25640  16.935   7.537  10.780  0.2719 -0.1665 -0.1191
 5361W        W25641   7.750   5.875  12.757 -0.3089  0.0948 -0.0024
 5362W        W25642   7.787   3.641  11.879  0.0527  0.1531 -0.3600
 5363W        W25643  13.966   0.159   2.746  0.1670  0.1499 -0.0665
 5364W        W25644   8.859  17.867  10.634  0.0423 -0.0535 -0.1137
 5365W        W25645  13.210  10.764   1.556 -0.1257 -0.0983  0.0252
 5366W        W25646  14.319   2.080   4.021  0.0058 -0.0142  0.1911
 5367W        W25647  15.938   8.011  12.227  0.0293 -0.0586  0.3439
 5368W        W25648  10.643   9.702  13.049 -0.0678 -0.2091 -0.1271
 5369W        W25649   7.293  17.941   3.472 -0.1496  0.1321 -0.2780
 5370W        W25650   5.819  10.007  13.011 -0.0056 -0.0526 -0.2152
 5371W        W25651   5.366  17.626  10.237  0.3704  0.1646  0.1807
 5372W        W25652  12.180  11.535  13.921  0.2283 -0.1687  0.0215
 5373W        W25653   9.772   5.359   1.737  0.0325 -0.0973  0.0090
 5374W        W25654  14.771  15.936  11.691  0.1771  0.1645 -0.1490
 5375W        W25655   4.326  17.691   9.823  0.0238 -0.2048  0.0171
 5376W        W25656  10.953   5.895  10.898  0.1518 -0.2238 -0.1353
 5377W        W25657  17.639   2.459  12.908  0.0682  0.0907  0.1279
 5378W        W25658  13.417   5.296   3.091  0.0455 -0.1214  0.0248
 5379W        W25659  17.421  12.482  13.931 -0.0606  0.2635 -0.3681
 5380W        W25660  18.280   1.949   0.862  0.2971 -0.0515 -0.1540
 5381W        W25661  11.572  13.353   4.328  0.1087  0.1052  0.4377
 5382W        W25662   8.487  18.316  11.175 -0.2468 -0.1493 -0.0946
 5383W        W25663  13.740   7.259  14.022 -0.0117 -0.1711  0.1454
 5384W        W25664  16.543  18.772   1.894 -0.3470  0.1083 -0.2296
 5385W        W25665   5.292   1.793  12.847 -0.1091  0.1402  0.0439
 5386W        W25666  14.847   0.936  11.352  0.1124  0.2289 -0.2187
 5387W        W25667  16.919   0.891   4.004 -0.2279 -0.2299  0.0622
 5388W        W25668  14.973   3.586   4.411  0.0119 -0.2996 -0.0719
 5389W        W25669  18.129   0.230   3.504  0.1484 -0.0586  0.0205
 5390W        W25670   9.115   7.760  14.450  0.2114  0.2577  0.3618
 5391W        W25671  10.780   8.405  12.734  0.5548 -0.1644  0.1983
 5392W        W25672  12.870   5.176  11.875 -0.1047  0.0012 -0.0806
 5393W        W25673  11.617  18.785  10.791 -0.0550 -0.3220 -0.1598
 5394W        W25674   8.186  13.506  13.436  0.0006  0.1897  0.0145
 5395W        W25675   8.522   2.336   0.461 -0.0873 -0.0791 -0.0460
 5396W        W25676  14.795  13.519   0.166 -0.4079  0.0599  0.6582
 5397W        W25677   6.033   2.826   4.396 -0.2559  0.3641 -0.0884
 5398W        W25678  15.940   6.526  14.066 -0.1833 -0.0243  0.2196
 5399W        W25679  12.504   7.704   1.008  0.1021 -0.0987  0.1031
 5400W        W25680   6.220   9.378   1.040  0.2427 -0.2634  0.1614
 5401W        W25681   0.066  17.656   0.714  0.0542  0.3429 -0.0360
 5402W        W25682  12.880  15.296  12.561 -0.0389 -0.1251 -0.1230
 5403W        W25683   7.163   6.497  13.361 -0.2154  0.2952  0.1821
 5404W        W25684   2.854   9.086  11.107 -0.1385 -0.0506  0.1092
 5405W        W25685   6.039   8.637   9.330  0.2926 -0.0396 -0.1072
 5406W        W25686   7.298  15.423  11.145 -0.1727 -0.0685 -0.0101
 5407W        W25687   7.091   9.453   1.283  0.0909  0.1595  0.1265
 5408W        W25688   1.250   0.695   1.375  0.0604  0.1123  0.2385
 5409W        W25689   0.120  11.868   2.276 -0.1241  0.0249  0.1027
 5410W        W25690   2.900  17.006   0.448  0.1530  0.0589  0.1423
 5411W        W25691   8.540  18.830   2.601 -0.1740  0.2720 -0.2546
 5412W        W25692   8.834  16.467   1.994 -0.0852 -0.4363  0.2557
 5413W        W25693   2.454  19.036  10.281  0.0868  0.0715  0.1260
 5414W        W25694  17.866   0.256   3.098  0.0577  0.1950 -0.4506
 5415W        W25695   5.665  10.124  12.566 -0.0250  0.1013  0.0475
 5416W        W25696   1.254  16.124   2.811  0.2494 -0.1355 -0.2290
 5417W        W25697   8.137   3.069   1.465 -0.0974  0.0344 -0.0822
 5418W        W25698  12.519  16.686  11.506  0.0835  0.2729 -0.2903
 5419W        W25699  13.320   5.617   3.964 -0.2515  0.2636 -0.1267
 5420W        W25700   9.309  13.898  11.275  0.1027 -0.1551  0.0398
 5421W        W25701   9.909   8.830  12.260  0.0320 -0.1214 -0.3969
 5422W        W25702   1.859   6.150   2.141  0.1241  0.1899  0.0793
 5423W        W25703  14.489   7.121   1.966 -0.1941  0.0998 -0.2158
 5424W        W25704   9.511   8.058   0.447  0.1377  0.1515  0.0297
 5425W        W25705   7.741  15.455   1.720  0.0990  0.1515  0.1895
 5426W        W25706   4.884  14.446   0.409  0.0063  0.1345  0.1180
 5427W        W25707  11.489   8.657   5.062  0.0030 -0.2649  0.2438
 5428W        W25708   4.005   0.672   1.420 -0.3144  0.0956 -0.3052
 5429W        W25709  12.248  17.298  10.657 -0.1325 -0.0147  0.2137
 5430W        W25710   5.075  17.693   0.598  0.2029 -0.0348 -0.4226
 5431W        W25711  10.163  15.358   1.450  0.0738 -0.1245 -0.1470
 5432W        W25712   5.398  11.476   0.598  0.2499 -0.0308 -0.0345
 5433W        W25713  11.520   5.802   3.405  0.0742 -0.0763  0.1290
 5434W        W25714  12.572  15.529  13.532 -0.1852  0.0658 -0.0384
 5435W        W25715   8.959   5.206   1.402 -0.3779 -0.1482  0.0928
 5436W        W25716   0.570  11.831  13.417 -0.0695 -0.1972  0.4328
 5437W        W25717  12.294   2.958   3.711  0.0151 -0.1255 -0.2287
 5438W        W25718   0.884   9.145   2.224  0.0116  0.2194 -0.1142
 5439W        W25719   8.402  15.025  12.372 -0.0296  0.2947  0.3022
 5440W        W25720  12.741  19.252  10.919  0.0606  0.0952  0.1555
 5441W        W25721   5.670   6.753   2.935  0.2312 -0.0415 -0.0456
 5442W        W25722  11.036  10.794   1.621 -0.1152  0.2505 -0.1220
 5443W        W25723  16.906  12.626  10.682  0.0589 -0.1495 -0.4228
 5444W        W25724   2.246  17.225  10.624  0.3159 -0.0437  0.1175
 5445W        W25725   4.698  10.213   3.588  0.1507 -0.0923 -0.2849
 5446W        W25726  11.993   3.332  12.554 -0.1359 -0.0994  0.2175
 5447W        W25727  16.282   7.739   3.057  0.1446  0.0817 -0.1448
 5448W        W25728   0.889   0.077   0.402 -0.0855 -0.3885 -0.2983
 5449W        W25729  19.197  17.954   3.192 -0.3849 -0.1419 -0.0029
 5450W        W25730   5.883  14.648  10.505 -0.0674  0.3557  0.2674
 5451W        W25731  11.743   0.176  11.040 -0.0701  0.0138  0.1857
 5452W        W25732   5.675   9.742  10.261  0.0658  0.2304  0.2520
 5453W        W25733  13.658   5.747  12.192 -0.0871 -0.3172  0.1615
 5454W        W25734  18.413   4.156   0.792 -0.2559 -0.4351 -0.3681
 5455W        W25735   0.971  16.854   4.071  0.0090  0.1661 -0.0594
 5456W        W25736   7.459  17.680  10.926  0.3145  0.2486 -0.1198
 5457W        W25737  14.517  18.330   1.574 -0.0378 -0.2355  0.0541
 5458W        W25738   6.096  18.354   0.418  0.1975  0.1064 -0.2442
 5459W        W25739   6.990  14.285   1.670 -0.0419  0.2867  0.0034
 5460W        W25740  13.950  14.255  13.249  0.0732  0.0654  0.2336
 5461W        W25741  17.670   3.576   3.176  0.2259  0.0167 -0.0236
 5462W        W25742   2.918  10.307  13.372  0.0470  0.0586 -0.0707
 5463W        W25743  13.364   1.228   4.782 -0.0132 -0.1631 -0.0716
 5464W        W25744  17.492   3.634  10.857  0.0197 -0.0516 -0.0683
 5465W        W25745  10.090   4.037   2.666  0.0637  0.5328 -0.1140
 5466W        W25746   3.183  14.909  11.279  0.0986 -0.0268 -0.4370
 5467W        W25747  10.240  14.064  12.931  0.0891  0.2050 -0.2470
 5468W        W25748   5.837   7.630   0.677  0.0608 -0.1862 -0.3188
 5469W        W25749  12.999   2.209   2.419  0.1535  0.1582 -0.1243
 5470W        W25750   2.345   7.574  12.933 -0.0780  0.1291 -0.3534
 5471W        W25751   5.222  15.866  13.769 -0.4662  0.0163 -0.0995
 5472W        W25752  14.140  10.312   1.582 -0.2229 -0.1615 -0.1857
 5473W        W25753  14.033  16.515   4.099  0.4108 -0.0268 -0.2228
 5474W        W25754   1.485  11.171   0.197  0.2974 -0.3038  0.3602
 5475W        W25755   7.358   9.193   1.899 -0.0358  0.0045 -0.3499
 5476W        W25756   4.058   7.144  12.412 -0.0930 -0.0974  0.0302
 5477W        W25757   1.881  17.441  13.874 -0.0735 -0.0898 -0.0124
 5478W        W25758  17.373  15.418   0.731  0.2853 -0.0123 -0.0776
 5479W        W25759   8.602  13.245  14.413  0.3768  0.1033  0.0541
 5480W        W25760   7.830  17.150   4.318  0.0534  0.2534  0.1059
 5481W        W25761   9.305  12.873   4.090 -0.0734  0.0011 -0.0191
 5482W        W25762   0.096   2.734   3.138  0.1263 -0.2044  0.0025
 5483W        W25763   0.526   7.836  12.595 -0.0481  0.2720  0.0863
 5484W        W25764  13.488  14.462  12.435  0.1502 -0.2620 -0.1437
 5485W        W25765   1.816  16.594  12.009  0.0142  0.0060  0.0778
 5486W        W25766   7.534  12.312  13.087  0.2825  0.0283 -0.0996
 5487W        W25767   6.833   7.764   1.746  0.1467 -0.2471  0.0230
 5488W        W25768   9.111  18.765   4.164 -0.2040  0.1894  0.1114
 5489W        W25769   0.480  14.741  14.027 -0.1187  0.1855  0.1204
 5490W        W25770   4.480   3.481  13.188 -0.1917 -0.3415  0.2500
 5491W        W25771   4.624  17.237   2.876 -0.3321 -0.1340 -0.0005
 5492W        W25772   5.653   3.292  10.356 -0.1807 -0.0305  0.0446
 5493W        W25773   5.117  17.525  10.683 -0.0963  0.1404 -0.0161
 5494W        W25774   2.126  10.095   9.276 -0.1747 -0.2284 -0.0511
 5495W        W25775   7.123  17.498   3.735 -0.1791 -0.0774 -0.0107
 5496W        W25776   1.512  17.518  10.729  0.5757  0.1650 -0.1787
 5497W        W25777   9.253  14.954   3.058  0.1291 -0.1358 -0.0078
 5498W        W25778  16.061   1.658   2.227  0.2884 -0.1572  0.3057
 5499W        W25779   0.936  10.648  13.691 -0.1776  0.2804 -0.0519
 5500W        W25780  15.362   7.729  12.008  0.1358 -0.0747  0.0640
 5501W        W25781   4.539  10.253  13.335 -0.2047 -0.0947 -0.1116
 5502W        W25782   1.473  10.260   2.165  0.0529 -0.1452 -0.4080
 5503W        W25783   8.173   3.784  12.227 -0.0201  0.1062 -0.1229
 5504W        W25784  11.698   7.851  12.640  0.0017 -0.2624 -0.0317
 5505W        W25785   8.405   5.081  12.658  0.1214  0.1773  0.1066
 5506W        W25786   1.357  16.790   2.542 -0.0092 -0.0341  0.1222
 5507W        W25787  10.139  12.495  13.674 -0.2625 -0.0821  0.0087
 5508W        W25788   6.508  19.163   2.502 -0.0953 -0.0783 -0.4041
 5509W        W25789   2.455   3.709   0.385  0.2034  0.1320 -0.3374
 5510W        W25790  11.307   7.748  12.950 -0.1042  0.0673  0.0151
 5511W        W25791  15.252  14.306   1.625 -0.0414 -0.4597  0.2100
 5512W        W25792  16.121   6.949  10.595  0.1077 -0.2297  0.5001
 5513W        W25793   7.234  11.697   2.032 -0.2672  0.0758  0.0283
 5514W        W25794  15.539  14.031   1.286 -0.1212  0.3373  0.0287
 5515W        W25795  14.924  15.869  11.246  0.1907  0.0364  0.0559
 5516W        W25796   4.027   8.103  10.647 -0.3896 -0.2481 -0.1083
 5517W        W25797   6.611   1.967   1.795  0.1224  0.1655  0.1230
 5518W        W25798  16.350   8.744   2.827  0.3296  0.0925 -0.3779
 5519W        W25799  15.185  17.715   3.423  0.1571 -0.0238 -0.3147
 5520W        W25800   4.796   8.229  11.005  0.0169 -0.1633  0.1317
 5521W        W25801   8.028   8.659  14.016  0.2432 -0.0712  0.0348
 5522W        W25802   2.472   9.924  11.851  0.3595  0.2594  0.1455
 5523W        W25803   3.455  13.636  12.183  0.0808 -0.2097  0.1188
 5524W        W25804  17.591  12.246   1.989  0.0403 -0.0537 -0.1086
 5525W        W25805   7.932   5.406  11.255 -0.1891  0.0460 -0.0137
 5526W        W25806   5.179  16.535   1.777  0.1165  0.1564  0.0104
 5527W        W25807   9.401   2.168  13.377  0.1455  0.1926 -0.0249
 5528W        W25808   9.125  16.611   3.807 -0.0831 -0.2234  0.1505
 5529W        W25809  16.843  19.354  12.088  0.1796  0.1032 -0.1839
 5530W        W25810   8.958  15.960  10.826  0.1834  0.0251  0.2141
 5531W        W25811   7.861   2.429   1.640 -0.0119  0.2734  0.0229
 5532W        W25812  12.221  10.255  11.082 -0.1278  0.1418  0.0653
 5533W        W25813   7.691  17.685  13.722  0.1545  0.1277  0.2224
 5534W        W25814  12.143   7.601  11.207 -0.0365 -0.1826  0.0319
 5535W        W25815   4.789   9.971   1.212 -0.0087 -0.0850 -0.1965
 5536W        W25816  18.549  19.123   0.010 -0.2838  0.2358 -0.1300
 5537W        W25817   7.825  17.136   4.812 -0.1028 -0.0449 -0.0041
 5538W        W25818   7.819  19.409  13.223 -0.2053 -0.0060  0.0554
 5539W        W25819  14.826   5.048  13.953 -0.2219  0.0360  0.0391
 5540W        W25820  13.539   6.428  12.767 -0.4469  0.2882 -0.0369
 5541W        W25821  11.851  13.406   2.518 -0.2437  0.1288  0.0039
 5542W        W25822   2.467  17.055   1.313  0.0677 -0.0248  0.0134
 5543W        W25823  11.682  18.523  13.126 -0.0140  0.0436 -0.4176
 5544W        W25824  18.466  16.266  11.004 -0.0465 -0.1027 -0.0974
 5545W        W25825   0.989  11.495   2.301 -0.3961 -0.1326  0.0545
 5546W        W25826  18.354   9.315   0.288  0.0129 -0.1547  0.0627
 5547W        W25827  10.326   0.490  12.177 -0.1418 -0.0776 -0.2302
 5548W        W25828  14.768   7.896   0.237  0.1714 -0.2701  0.0940
 5549W        W25829  17.944  17.490  12.537 -0.3039  0.0993  0.0457
 5550W        W25830   3.040   9.994   3.523  0.2347  0.2220  0.0771
 5551W        W25831  15.608   8.251   0.087 -0.0768  0.1390  0.1816
 5552W        W25832   1.381  18.338  12.668 -0.0377  0.3079  0.1381
 5553W        W25833  14.105  13.455  13.951  0.0830  0.1441  0.0294
 5554W        W25834  12.299   1.407   4.466  0.1052  0.1860 -0.0113
 5555W        W25835  10.042   5.031   4.230 -0.2688 -0.2440  0.0964
 5556W        W25836  15.141   3.541  11.791 -0.1422 -0.1932 -0.1743
 5557W        W25837  18.822  18.383  11.149 -0.2871  0.2843 -0.0306
 5558W        W25838  19.349   9.022   0.561  0.1580  0.1119  0.1340
 5559W        W25839   6.110   1.678   3.534 -0.0580 -0.0557  0.2344
 5560W        W25840   2.327   0.576   1.979 -0.0649  0.1266  0.3485
 5561W        W25841  13.510  13.597  12.917 -0.1456  0.0699 -0.0945
 5562W        W25842   2.272  14.649   1.369 -0.1157  0.0982 -0.0043
 5563W        W25843  17.036   3.253   0.539  0.2878 -0.1216 -0.0536
 5564W        W25844  15.738  14.101  13.734 -0.3011 -0.0252  0.1852
 5565W        W25845   1.685   8.952  12.948 -0.2780  0.4266 -0.1194
 5566W        W25846   8.366  11.018   0.794  0.1152  0.2393 -0.0606
 5567W        W25847  10.543  17.942   2.052  0.2119 -0.0208 -0.0090
 5568W        W25848  16.406   2.072   0.278 -0.0951 -0.1533  0.0297
 5569W        W25849  16.575  11.021  13.958  0.2669  0.1598  0.0827
 5570W        W25850   8.072   7.307   3.637  0.0792 -0.1316 -0.0269
 5571W        W25851   6.219   7.568  10.984 -0.0848  0.0539 -0.0040
 5572W        W25852  15.486   6.863   2.938  0.1380 -0.2614  0.0755
 5573W        W25853   0.054   8.104  10.466 -0.1323 -0.1343 -0.1739
 5574W        W25854   2.771  17.199   3.697 -0.0759 -0.2787  0.0696
 5575W        W25855   5.757   7.779  11.143 -0.1125  0.0069  0.1704
 5576W        W25856  17.459   9.796  12.406  0.2267 -0.1046 -0.1184
 5577W        W25857  13.998   0.770   1.544  0.2128 -0.0215  0.2485
 5578W        W25858  15.986  10.132  10.557 -0.1034 -0.0372  0.1057
 5579W        W25859   6.161  12.916  14.046  0.0746  0.2615 -0.0920
 5580W        W25860  12.678  16.216   3.804  0.0187 -0.0766 -0.1451
 5581W        W25861  14.993   1.627   0.705  0.1198 -0.0696  0.2993
 5582W        W25862   3.082   7.160   0.850  0.1891 -0.0820  0.2419
 5583W        W25863  18.619  13.298   1.783  0.0340 -0.0433  0.0907
 5584W        W25864   6.391  14.930  13.112 -0.1895  0.3100 -0.0957
 5585W        W25865   7.928   4.497   3.629  0.0912  0.0622 -0.1962
 5586W        W25866  11.352   0.515   3.094 -0.0554  0.2748 -0.4270
 5587W        W25867  18.962   4.513  13.769  0.4035  0.2808 -0.1427
 5588W        W25868   6.553   1.288  10.926  0.1913  0.4238  0.2231
 5589W        W25869   0.829  18.558  11.276  0.1068 -0.0984 -0.3728
 5590W        W25870   5.230  11.034   2.736 -0.2547  0.1793 -0.0251
 5591W        W25871   7.304   0.046  13.151 -0.2054 -0.0470  0.0283
 5592W        W25872  14.773  13.448  10.989 -0.0655  0.1887 -0.1317
 5593W        W25873   0.308  16.601   0.811  0.5479 -0.2688 -0.3890
 5594W        W25874  11.900  13.985  11.547  0.1668  0.0446  0.2385
 5595W        W25875   9.273   1.279   0.063  0.1413  0.0279  0.1119
 5596W        W25876   1.460   6.807   3.551  0.2932  0.1176  0.0671
 5597W        W25877   0.956   0.345   0.854  0.0969 -0.1067 -0.2549
 5598W        W25878   2.141  11.563  13.463 -0.0144  0.1800 -0.0577
 5599W        W25879   7.965  12.117  13.047  0.0212 -0.0477  0.2141
 5600W        W25880   0.772   5.642   3.673  0.3632  0.1639 -0.0995
 5601W        W25881   3.093   9.285  12.056 -0.0718 -0.0407  0.2224
 5602W        W25882  10.672  12.070  14.491 -0.1831 -0.2672 -0.2210
 5603W        W25883   3.771  15.124   0.136  0.3780 -0.0248  0.2040
 5604W        W25884  18.379   7.543  11.216 -0.0654  0.0691 -0.1623
 5605W        W25885   6.420  15.223   0.466  0.2787  0.2027  0.1093
 5606W        W25886  14.967  16.997  13.530 -0.0422 -0.1802 -0.1953
 5607W        W25887  13.898   7.902  13.497  0.1313  0.1013  0.0968
 5608W        W25888   2.013   1.840  10.863  0.0752 -0.3212  0.1613
 5609W        W25889  16.411   5.031   1.107  0.0306 -0.3495  0.5149
 5610W        W25890  18.394   7.838  11.616  0.1350  0.1561  0.2010
 5611W        W25891  10.763  11.155   0.753 -0.1329 -0.0659 -0.0163
 5612W        W25892   4.953  13.825  14.223 -0.1012 -0.1831 -0.0451
 5613W        W25893  15.452   3.523   4.554 -0.3581  0.0792  0.0252
 5614W        W25894  12.340   3.015   1.676 -0.2506  0.3235  0.1377
 5615W        W25895  19.333   8.800   1.307  0.0659  0.2176  0.1163
 5616W        W25896   5.839  14.222   3.614  0.4074 -0.1933  0.0118
 5617W        W25897  11.674   7.535  11.215 -0.0003  0.3282  0.0265
 5618W        W25898   8.482  12.493  10.478  0.0753 -0.5197  0.1414
 5619W        W25899  16.289  13.602  10.183 -0.2384 -0.1570 -0.0764
 5620W        W25900   6.756  16.060   3.607  0.0434 -0.1254 -0.0632
 5621W        W25901   7.955   0.750   3.859 -0.2082  0.0645  0.2733
 5622W        W25902   1.242   1.822  12.929 -0.1989  0.3674  0.1482
 5623W        W25903   1.807  14.864   1.446  0.1368  0.0045 -0.0674
 5624W        W25904  11.930  16.059  13.240 -0.3020  0.0442  0.3219
 5625W        W25905   8.466   0.852  12.898 -0.0164 -0.0791  0.2773
 5626W        W25906   6.005   8.136   3.449  0.0911 -0.3499 -0.1237
 5627W        W25907   9.417  17.453   0.244 -0.0359 -0.1949  0.2268
 5628W        W25908  13.608   7.725  12.006 -0.0487  0.0244  0.0627
 5629W        W25909  16.030  15.441  13.584 -0.3105 -0.2458  0.2717
 5630W        W25910  14.198   9.210  10.595 -0.1725 -0.0409 -0.0381
 5631W        W25911   8.132   3.687  14.277  0.1574 -0.2525  0.0999
 5632W        W25912  12.063  18.513  12.613  0.0589  0.3696 -0.2176
 5633W        W25913  17.439  12.162   2.913  0.0269  0.2514  0.1865
 5634W        W25914   3.392  13.435  11.436  0.1466  0.1169 -0.1092
 5635W        W25915  12.701   4.348   1.113  0.1993  0.1291 -0.1991
 5636W        W25916   7.087  16.945   3.841 -0.2172  0.0103  0.3159
 5637W        W25917  12.152   4.056  10.831  0.2856 -0.4626 -0.1316
 5638W        W25918  18.035  18.873   2.873 -0.0201 -0.0747 -0.0075
 5639W        W25919   8.081  19.281  13.602  0.2244  0.0342  0.1286
 5640W        W25920  10.052   7.651  12.009 -0.1133 -0.0414  0.2524
 5641W        W25921   3.616   5.954  12.284 -0.2124 -0.0125  0.0346
 5642W        W25922   4.200   2.325   1.763 -0.1102  0.3165  0.1270
 5643W        W25923   1.629   3.171  13.126  0.0952  0.2054  0.0331
 5644W        W25924   9.958   5.804  11.918 -0.1687 -0.1651  0.0805
 5645W        W25925   9.976   4.570   2.822 -0.1040  0.4033 -0.2968
 5646W        W25926   1.755   8.390   0.062 -0.1343  0.0899 -0.1907
 5647W        W25927  17.237   5.475   2.319 -0.1252 -0.2224 -0.2585
 5648W        W25928   9.605   1.632   1.917 -0.1053 -0.1619  0.1699
 5649W        W25929   9.008   4.190   0.448  0.2579 -0.1689  0.0911
 5650W        W25930   5.937   6.864  14.353  0.0732 -0.1790 -0.0400
 5651W        W25931   0.728  12.489  12.915 -0.2004  0.0513 -0.0386
 5652W        W25932   2.029   6.757   9.567 -0.2519  0.1248 -0.0380
 5653W        W25933   4.960  14.868  12.146  0.1253  0.0200  0.2584
 5654W        W25934   6.487  13.970  10.854  0.0654  0.1564 -0.0600
 5655W        W25935  16.008   6.881   2.953  0.3643 -0.2211  0.0772
 5656W        W25936   0.974   7.358   0.896 -0.0963 -0.0251 -0.0192
 5657W        W25937   1.995   3.167   5.333  0.0722  0.0279 -0.3301
 5658W        W25938   6.177  12.971   0.434  0.0411 -0.1571  0.1012
 5659W        W25939  16.359  11.157  12.603 -0.0059  0.0301 -0.0466
 5660W        W25940   5.260  14.643  10.568 -0.1774  0.1085  0.0321
 5661W        W25941  17.473   5.808  14.448 -0.0755  0.2171  0.2601
 5662W        W25942  13.278  13.640   2.807  0.0038  0.1873  0.0314
 5663W        W25943   1.813   8.141   0.806  0.2254 -0.0318 -0.4061
 5664W        W25944  10.252  13.560   0.812 -0.0296 -0.1065  0.0422
 5665W        W25945  14.383  17.556   0.252 -0.0952 -0.4014  0.1873
 5666W        W25946  12.754  14.173  12.950 -0.2884  0.1226 -0.3808
 5667W        W25947   1.370   0.825   0.388  0.1610 -0.1919 -0.0685
 5668W        W25948  11.796   9.184   0.534  0.2012  0.1330 -0.1408
 5669W        W25949  12.915  18.405  10.672 -0.0319  0.2328  0.1780
 5670W        W25950   3.332   2.526   0.610  0.1774 -0.2905  0.1474
 5671W        W25951  18.082  17.770  13.563  0.1199  0.1972  0.1395
 5672W        W25952  15.265   6.048  14.184  0.1508  0.1943 -0.3471
 5673W        W25953   8.584   8.754  12.392 -0.1495 -0.1298 -0.0512
 5674W        W25954  15.069  18.617   3.533  0.2076 -0.3537  0.1332
 5675W        W25955  18.904   4.114  11.983 -0.1671 -0.1218 -0.2188
 5676W        W25956  11.660  11.565  11.163 -0.0863 -0.2088 -0.2684
 5677W        W25957  12.796   9.738  12.175 -0.3834 -0.1829  0.1146
 5678W        W25958  14.260   3.139   3.189 -0.0862 -0.2408  0.1097
 5679W        W25959   9.565   8.673   0.676 -0.0865 -0.1235  0.1172
 5680W        W25960   8.283   0.636   2.604  0.0854 -0.0728 -0.0218
 5681W        W25961   6.292  10.000   1.605  0.1856 -0.0822  0.1940
 5682W        W25962   0.312  11.273   0.331 -0.0352 -0.0604 -0.0867
 5683W        W25963  18.913   6.008  13.147  0.0234 -0.0444 -0.1517
 5684W        W25964   7.763  19.086  14.468 -0.1738 -0.1637  0.0104
 5685W        W25965   7.383  10.093   3.164 -0.0743 -0.2493 -0.2257
 5686W        W25966   4.430  13.260   1.175  0.2127 -0.3090 -0.1353
 5687W        W25967  17.070   6.176  10.549 -0.0919 -0.0225  0.1200
 5688W        W25968  17.131  17.092   0.195  0.0951 -0.0144  0.1850
 5689W        W25969  16.399   8.790   2.354 -0.3380 -0.0565  0.0929
 5690W        W25970  11.268  10.565   2.732  0.0644  0.2071 -0.0680
 5691W        W25971  18.451  18.349  13.634 -0.5038  0.1189 -0.0849
 5692W        W25972  17.540  13.179  12.321  0.0850  0.1674  0.2183
 5693W        W25973  10.484   4.353   2.613 -0.1187  0.0537 -0.2302
 5694W        W25974   2.892   7.214   3.130  0.0869  0.0014 -0.0916
 5695W        W25975  18.618   0.959  10.855 -0.2052  0.2891  0.0046
 5696W        W25976  18.127   8.939  14.226  0.1135  0.0126  0.2771
 5697W        W25977   6.891  14.451   0.149 -0.0026 -0.2150 -0.1248
 5698W        W25978  15.226   7.828  12.440 -0.0201 -0.1589 -0.1146
 5699W        W25979  12.135  18.625  11.148 -0.1749  0.1060  0.0783
 5700W        W25980   1.723   4.814  11.778 -0.2312 -0.0776 -0.0796
 5701W        W25981   7.764  14.362   1.665  0.1507 -0.1734  0.1983
 5702W        W25982   3.004  10.688   3.846  0.0176  0.1320 -0.4059
 5703W        W25983  15.046  15.549  12.936 -0.1052 -0.1626  0.1451
 5704W        W25984  10.555   1.580  11.058 -0.0801  0.2992  0.0469
 5705W        W25985  16.767   8.518  12.378  0.1569 -0.0658  0.0768
 5706W        W25986   1.766  11.750  13.201  0.1904 -0.3567 -0.3376
 5707W        W25987   8.237  11.433  13.928 -0.1824  0.1686 -0.3093
 5708W        W25988   6.939   3.856   3.102 -0.1888 -0.0008 -0.1984
 5709W        W25989   1.942   8.997  10.904  0.2934 -0.1055  0.0150
 5710W        W25990   0.977   7.867  12.854  0.1298  0.1001  0.5636
 5711W        W25991   6.075  17.170  13.233  0.1764  0.0937  0.0689
 5712W        W25992   9.495  13.150   3.007 -0.1683  0.1196 -0.1913
 5713W        W25993  17.835  12.770   2.123  0.1919 -0.4118 -0.1360
 5714W        W25994  18.283  13.492   0.808 -0.1345  0.0288 -0.3179
 5715W        W25995   5.071   7.794   3.873  0.3370  0.0321 -0.0321
 5716W        W25996  15.534   6.896   3.682 -0.1696 -0.1431  0.2899
 5717W        W25997   4.008   8.287   0.839  0.1489 -0.1451 -0.0625
 5718W        W25998   3.423  15.409  11.312 -0.0200  0.1764 -0.1915
 5719W        W25999  13.074  10.027   0.408 -0.2591  0.0784 -0.1404
 5720W        W26000  12.263  10.431   2.526  0.2127 -0.1767  0.1421
 5721W        W26001  14.113  19.032   1.195  0.0664 -0.1227 -0.1547
 5722W        W26002  10.842  16.774  10.993  0.3969 -0.1287  0.0249
 5723W        W26003   1.296  10.592  11.395  0.1083 -0.2488 -0.1352
 5724W        W26004   7.345   8.218  11.778  0.2117  0.4464 -0.2054
 5725W        W26005   5.714  13.889   3.971  0.0542 -0.1036  0.0136
 5726W        W26006   1.908   7.300  14.371 -0.1436  0.1357 -0.0090
 5727W        W26007   0.773  18.242  12.549  0.0870  0.1404  0.1852
 5728W        W26008   5.529   5.450   1.881 -0.0979 -0.1188  0.2208
 5729W        W26009   7.622  15.052   3.214  0.0261  0.1932  0.1813
 5730W        W26010   2.050   3.566   3.368 -0.0424  0.0799  0.0054
 5731W        W26011  18.014   0.066  14.086  0.0410 -0.1487 -0.1169
 5732W        W26012   7.438  14.335   2.811 -0.2136  0.4111 -0.0650
 5733W        W26013  16.696  13.001  11.401 -0.1733  0.2358  0.1238
 5734W        W26014  13.152  15.139  12.949  0.0853 -0.4326  0.0279
 5735W        W26015   6.758   5.321   2.133  0.0109  0.0310  0.0186
 5736W        W26016   3.606  16.381   3.129  0.1021  0.0523  0.0555
 5737W        W26017   2.918  13.824   1.778  0.0597 -0.1843 -0.0468
 5738W        W26018  10.097   9.527   1.588  0.4477 -0.0943  0.0836
 5739W        W26019  12.447  16.400   5.221  0.2277 -0.1396  0.4630
 5740W        W26020   8.982   9.414  11.663  0.2423  0.1758  0.2834
 5741W        W26021  10.616  15.959   2.270 -0.0478 -0.0968 -0.2302
 5742W        W26022   6.400  12.012  11.122  0.0006 -0.0130 -0.3385
 5743W        W26023  15.959  10.408  12.682 -0.0435 -0.2183 -0.4281
 5744W        W26024  17.782   9.967  11.381  0.2393 -0.0149  0.1208
 5745W        W26025  12.219  18.956  11.689  0.1534 -0.3070  0.2187
 5746W        W26026  17.571  15.503  12.556  0.1235  0.0589 -0.0481
 5747W        W26027   3.375   1.034   0.782 -0.0209  0.1331 -0.1898
 5748W        W26028  10.245   7.752   1.269 -0.1696  0.0066  0.1297
 5749W        W26029  17.621   3.570   0.950  0.0347 -0.0877 -0.0285
 5750W        W26030   7.004   6.124   2.425  0.4328 -0.1992 -0.0725
 5751W        W26031   7.852  18.500   2.920 -0.1916 -0.2785 -0.1383
 5752W        W26032   7.584   7.424  13.673  0.1837 -0.1327  0.2130
 5753W        W26033  15.201   2.177  13.447 -0.2785 -0.0078  0.2594
 5754W        W26034  12.059  11.822  10.551 -0.2064 -0.0090  0.0785
 5755W        W26035   5.295  16.476   0.414  0.0992 -0.0224  0.0840
 5756W        W26036   0.143  15.153   2.954  0.1451  0.1708  0.1169
 5757W        W26037   4.345  18.176  11.652 -0.2034 -0.0046  0.0563
 5758W        W26038  18.714  16.034  13.424 -0.3356 -0.0113  0.0591
 5759W        W26039   0.947   5.517  13.619  0.1155 -0.3441 -0.0573
 5760W        W26040  10.659  17.218  11.675 -0.0348 -0.0284  0.2134
 5761W        W26041  19.401  17.163   4.081 -0.1633  0.2447 -0.3341
 5762W        W26042   3.826   1.535  14.413 -0.3328  0.0509  0.0235
 5763W        W26043  18.358   0.958  13.611  0.0457 -0.1949 -0.1066
 5764W        W26044  15.721   7.141   2.505 -0.0818 -0.0643  0.1532
 5765W        W26045   7.336   2.545   2.213  0.0918 -0.2017 -0.0101
 5766W        W26046   6.945   6.783  13.884 -0.1575  0.1058  0.0407
 5767W        W26047  18.174   0.763  12.810 -0.3352 -0.1125 -0.1215
 5768W        W26048   5.324  11.529  11.616  0.0297  0.2046  0.1336
 5769W        W26049   4.586  16.540  10.941  0.0592 -0.1265  0.0055
 5770W        W26050   8.470  17.992   3.836 -0.1069 -0.0518 -0.1785
 5771W        W26051   4.433  11.736  13.770 -0.0773 -0.0036 -0.0282
 5772W        W26052   1.669  12.549   1.903 -0.4196  0.1631  0.0371
 5773W        W26053  16.495  13.007  13.371 -0.0106 -0.2407  0.1580
 5774W        W26054   6.365  14.578   1.002  0.0413 -0.1004 -0.2027
 5775W        W26055  12.946  16.980  12.237 -0.0598 -0.1494  0.0176
 5776W        W26056  11.269   3.825   0.682  0.3082  0.1259  0.0048
 5777W        W26057  12.816   2.404   0.095  0.0402  0.1060 -0.0586
 5778W        W26058  15.029   8.700  12.814 -0.1840 -0.1556  0.0529
 5779W        W26059  15.583  13.041  13.095  0.1239  0.0903 -0.1499
 5780W        W26060  16.110   4.338   4.179 -0.0969 -0.1272 -0.1175
 5781W        W26061  17.740  18.678   4.551 -0.0465  0.1297  0.1354
 5782W        W26062  10.626  18.074   1.320  0.0880 -0.0374  0.1434
 5783W        W26063  15.053  12.257   3.460  0.2410 -0.0935  0.0671
 5784W        W26064  12.097   5.358   2.827  0.2572 -0.1590 -0.1823
 5785W        W26065  18.282  18.408   2.808 -0.2764 -0.0556 -0.0210
 5786W        W26066   4.173  11.574  14.145 -0.0532 -0.0679 -0.3878
 5787W        W26067  14.301   1.660  14.409 -0.0336 -0.0315  0.3365
 5788W        W26068   6.642   8.638   2.439 -0.1864 -0.1106 -0.0468
 5789W        W26069  14.355  13.201  13.030  0.0324 -0.0881 -0.4176
 5790W        W26070   1.406  11.102  10.338 -0.0583  0.0108 -0.0310
 5791W        W26071  13.565  12.380  11.334  0.1342 -0.1729 -0.0241
 5792W        W26072   7.003   5.910   0.555 -0.1700  0.2491 -0.0175
 5793W        W26073  13.908   1.445   0.328  0.3580 -0.0266 -0.0731
 5794W        W26074  11.775  11.756   0.583  0.0207 -0.2294 -0.1574
 5795W        W26075  16.923   7.310  13.255 -0.1005  0.1816  0.1822
 5796W        W26076  17.333  16.580  11.746 -0.2352  0.2057  0.3711
 5797W        W26077  16.360  15.703  10.864  0.1951 -0.1348 -0.1085
 5798W        W26078  11.344  14.810   3.217 -0.0536  0.2752  0.2185
 5799W        W26079  18.335   3.364  11.833  0.1176 -0.0787  0.1265
 5800W        W26080   9.332   3.158  12.671  0.0273 -0.2828  0.1922
 5801W        W26081   7.764   0.918  12.193  0.3339  0.3146  0.3408
 5802W        W26082  14.099  17.957   0.060 -0.1415 -0.0880 -0.2057
 5803W        W26083  11.031   2.778  11.015  0.0450 -0.2074  0.2592
 5804W        W26084   3.341  17.110   0.197  0.0972  0.0482 -0.0125
 5805W        W26085   7.800  12.879  13.468  0.1699  0.1845  0.0715
 5806W        W26086  18.562   6.606   1.057  0.1584 -0.0584 -0.0485
 5807W        W26087   9.456  15.714   1.095  0.1661  0.0932 -0.3037
 5808W        W26088  11.596  13.121   1.363  0.0118 -0.1292  0.1825
 5809W        W26089   5.884  17.709   3.791  0.3144  0.0786  0.2348
 5810W        W26090   1.550  14.593   1.912 -0.0569 -0.0966 -0.0488
 5811W        W26091  18.710   9.477  13.770 -0.1119  0.1217 -0.0229
 5812W        W26092   7.263   5.067   0.437 -0.0518 -0.0917 -0.0793
 5813W        W26093   5.165   8.856   2.034 -0.0365 -0.1543  0.1052
 5814W        W26094  13.933   3.124  11.141  0.0789  0.1554 -0.2520
 5815W        W26095  13.391  10.046   0.865  0.4260  0.0101  0.2732
 5816W        W26096  14.636  13.212  12.271 -0.0633 -0.2133  0.1109
 5817W        W26097   6.800  16.189  12.120  0.3419 -0.3607 -0.0114
 5818W        W26098  12.593  17.339  13.142  0.0823 -0.0912 -0.0655
 5819W        W26099  14.752   8.770  11.052  0.0994  0.1698 -0.3363
 5820W        W26100  17.234  12.163   4.125  0.1831 -0.2076  0.1010
 5821W        W26101   0.910  11.120  13.006  0.2774  0.1768  0.1423
 5822W        W26102   6.305  18.950   2.980  0.3843  0.0590 -0.3495
 5823W        W26103  16.471   6.337  11.217  0.0175  0.1829 -0.2584
 5824W        W26104  16.618   1.196  11.955 -0.0604  0.2445  0.1109
 5825W        W26105  13.449  11.371  14.427 -0.2224 -0.1403  0.2398
 5826W        W26106   8.294  11.498   3.077  0.2202 -0.0830 -0.1145
 5827W        W26107   7.118  17.120   1.074 -0.1416  0.3558  0.0331
 5828W        W26108   4.031   4.820  14.223  0.2407  0.2111 -0.0406
 5829W        W26109   0.146   4.283  10.076 -0.2342  0.1300  0.0868
 5830W        W26110   9.969   2.541   0.355 -0.0225 -0.1193  0.0667
 5831W        W26111  11.689  14.688   0.794 -0.0871 -0.2132  0.3625
 5832W        W26112   2.200   5.360   1.459  0.2110  0.1095  0.1131
 5833W        W26113   5.784   3.988  12.015 -0.1925  0.3803  0.0811
 5834W        W26114   9.257   0.387  11.261  0.3210 -0.2478  0.1585
 5835W        W26115  15.553   9.601   3.721 -0.0816 -0.1998 -0.0743
 5836W        W26116   2.150   6.593   0.024  0.0287 -0.0619  0.2984
 5837W        W26117  14.230  12.233   1.411 -0.0469 -0.0502 -0.1229
 5838W        W26118  18.410  13.608   3.569 -0.1727  0.2250  0.1019
 5839W        W26119  13.088   7.726   1.704  0.0854  0.0856 -0.1196
 5840W        W26120  17.733   2.728   2.821 -0.0001 -0.0752  0.1255
 5841W        W26121   1.338   9.728  12.486  0.0602 -0.0801 -0.1803
 5842W        W26122  13.299  14.151  12.876  0.0581  0.4090 -0.1433
 5843W        W26123  14.347  13.434  11.893  0.3136 -0.2889  0.1250
 5844W        W26124  17.386  10.420   0.748 -0.0883 -0.2596  0.5613
 5845W        W26125   4.014   6.688  11.017  0.1721  0.0824  0.0713
 5846W        W26126  18.553  12.802   1.395 -0.2144  0.0863 -0.2457
 5847W        W26127  13.838   9.177  12.367  0.1208 -0.3236 -0.1481
 5848W        W26128  10.293   0.357  12.628 -0.2803 -0.3032 -0.0409
 5849W        W26129   2.478   0.658   0.628  0.1087 -0.2590  0.2553
 5850W        W26130  12.139  14.283  10.399  0.0695 -0.1240  0.1293
 5851W        W26131  12.101  13.561  13.360  0.3143  0.0854  0.0784
 5852W        W26132   4.399  13.220  10.693 -0.2146  0.2390 -0.2057
 5853W        W26133   7.530  11.809  13.354 -0.3472 -0.0952  0.1618
 5854W        W26134   0.450  16.062   1.779 -0.2375  0.1200  0.1803
 5855W        W26135  17.940  14.574  11.259  0.3210 -0.1375 -0.1314
 5856W        W26136   2.617   2.438   3.162 -0.4483 -0.0644  0.1574
 5857W        W26137  16.825  14.666  11.218 -0.3138 -0.1806 -0.0581
 5858W        W26138   4.750  16.969   1.176  0.0285  0.2224  0.0170
 5859W        W26139  10.488  17.887   4.972 -0.2751 -0.2539  0.2281
 5860W        W26140  18.413  11.897   1.366  0.1607 -0.1388  0.4854
 5861W        W26141  18.674   3.884   3.009  0.1203  0.0970 -0.0495
 5862W        W26142  16.201   3.524  13.054 -0.2673 -0.1918  0.0715
 5863W        W26143   4.553  14.275   4.102  0.1394  0.2723  0.5318
 5864W        W26144   7.741  13.819   1.776  0.1567  0.0385  0.0047
 5865W        W26145   4.111  10.145  12.154 -0.1626 -0.0813 -0.0183
 5866W        W26146  19.226  18.942   2.962  0.1068 -0.1757  0.0848
 5867W        W26147   0.499  16.431  12.647 -0.1012  0.1085  0.0439
 5868W        W26148   7.875   4.606   3.165 -0.1086  0.1730  0.2492
 5869W        W26149  11.099  11.131  13.714  0.1172  0.1409 -0.0611
 5870W        W26150   9.902  17.538  14.492  0.0747 -0.3104 -0.2078
 5871W        W26151  16.549   6.358   0.790  0.1063  0.0533 -0.1342
 5872W        W26152   1.609   0.859  12.823 -0.0716 -0.0086 -0.0985
 5873W        W26153  16.751  11.500  12.599 -0.3000  0.1389  0.1400
 5874W        W26154  12.224  14.613  14.142  0.0250 -0.1832  0.1780
 5875W        W26155  12.003   8.685  12.116  0.1716 -0.1137 -0.1612
 5876W        W26156   6.598   8.699  14.157  0.2012 -0.0185  0.0475
 5877W        W26157   4.972  12.730   3.670 -0.0224  0.0038  0.1467
 5878W        W26158  19.168  18.110   0.303  0.1236 -0.2982  0.0226
 5879W        W26159   6.966   2.480   3.649  0.3112 -0.0048 -0.1042
 5880W        W26160   1.152  18.283  12.190 -0.2815  0.2391  0.0844
 5881W        W26161   8.564  11.419   0.910  0.1954  0.1158  0.0382
 5882W        W26162  14.770  13.260  13.418  0.0181 -0.6064 -0.1565
 5883W        W26163  11.909  11.833  10.042  0.3433  0.0058 -0.0535
 5884W        W26164  14.598   0.954  10.930 -0.1058 -0.0153 -0.0703
 5885W        W26165  18.344   5.570  12.892  0.3901  0.0088 -0.0549
 5886W        W26166   5.262  17.081   1.274 -0.0759 -0.1365 -0.1555
 5887W        W26167  18.313   4.256   2.679  0.1228  0.1555 -0.1264
 5888W        W26168  19.277  17.200  10.819 -0.0315  0.0227 -0.1963
 5889W        W26169   2.647  11.548  13.735 -0.1473  0.3470 -0.0618
 5890W        W26170  17.370  10.149   3.043  0.0477 -0.3873  0.1926
 5891W        W26171   0.616  11.136   9.833 -0.0989 -0.2952  0.2463
 5892W        W26172   8.070  12.091  11.307 -0.3777 -0.1063 -0.0495
 5893W        W26173   4.017   3.258   2.218 -0.3143 -0.0532  0.0529
 5894W        W26174   1.100   4.283   3.995  0.1287  0.1979 -0.1885
 5895W        W26175   5.017   7.320   0.758  0.2433  0.2295 -0.1035
 5896W        W26176   1.267  11.158   2.540  0.1733  0.2869  0.0213
 5897W        W26177   7.500   9.698  12.151  0.0266 -0.2057  0.0843
 5898W        W26178  17.290  14.471  14.091  0.0303  0.1369  0.1409
 5899W        W26179   9.868  12.237   2.798  0.0533  0.1045 -0.2594
 5900W        W26180  13.318  11.661  11.852 -0.1059  0.1703 -0.1412
 5901W        W26181   5.049   1.148   4.588 -0.0610 -0.2239  0.3379
 5902W        W26182   9.022  12.477   1.475 -0.1872 -0.2446  0.2099
 5903W        W26183  10.865   2.274  14.167 -0.5736  0.0356  0.2782
 5904W        W26184   6.502  16.086   0.358  0.0151 -0.0589 -0.3412
 5905W        W26185  15.644   3.987  12.372  0.1794  0.2442 -0.1252
 5906W        W26186  17.540   5.090   9.408 -0.1451  0.0100  0.1704
 5907W        W26187   7.373   4.024  13.765  0.0987 -0.1033  0.6013
 5908W        W26188   9.321  19.145   2.633 -0.2203 -0.3509  0.4294
 5909W        W26189  16.712  12.821   3.227  0.0956 -0.1194 -0.0776
 5910W        W26190   2.310   7.398   2.516  0.0790  0.2157  0.2162
 5911W        W26191   5.894   8.658   3.725 -0.0035 -0.2851  0.1479
 5912W        W26192   5.647   8.572  11.593  0.1184 -0.1512 -0.1739
 5913W        W26193   1.653   7.261   0.466 -0.1269  0.1419  0.1473
 5914W        W26194   9.559   0.015  13.678 -0.0070 -0.0759 -0.0403
 5915W        W26195   3.282  15.489  11.948 -0.2721 -0.1766  0.2688
 5916W        W26196  17.212   6.694  14.245  0.0276  0.1829  0.1694
 5917W        W26197  14.268   9.836   1.480 -0.1762 -0.5266 -0.0182
 5918W        W26198   1.337   1.545   2.410  0.3353 -0.0544 -0.2868
 5919W        W26199  10.717  15.762   3.485  0.1482 -0.3191 -0.1188
 5920W        W26200   9.699   6.778  11.813  0.1574 -0.1423 -0.0053
 5921W        W26201  17.875  14.783   2.769  0.1786 -0.1560 -0.0421
 5922W        W26202   2.248   9.756  11.394  0.0412  0.0689 -0.0679
 5923W        W26203  14.374   2.329   3.091 -0.1949  0.1698 -0.2130
 5924W        W26204  14.487   9.641   2.334  0.2421 -0.0446  0.0402
 5925W        W26205  15.731   0.371   4.205 -0.0849  0.0219 -0.0476
 5926W        W26206  19.054   2.612   0.556  0.0617 -0.3021  0.0834
 5927W        W26207   7.204  15.792   3.659  0.0144 -0.0286  0.0364
 5928W        W26208  15.770  19.022   1.484  0.2207 -0.0105 -0.2337
 5929W        W26209   8.656   4.746  11.355  0.0176 -0.4839 -0.1241
 5930W        W26210   4.688   7.453   3.240  0.1328 -0.1064 -0.0792
 5931W        W26211   0.906  14.471   9.974  0.0074  0.0196  0.0041
 5932W        W26212  15.964  15.699  11.724  0.0188  0.3409 -0.1023
 5933W        W26213  16.865   5.658  11.277 -0.2687 -0.0856  0.1970
 5934W        W26214   8.309  16.034  13.521  0.0561  0.0339  0.2194
 5935W        W26215  16.856  17.721  11.410  0.1243 -0.0043 -0.0909
 5936W        W26216   4.309   2.676  13.720  0.2194 -0.2265  0.0886
 5937W        W26217   2.035  18.815   2.056  0.0199 -0.4149  0.2654
 5938W        W26218  12.636   6.593   3.722  0.2299  0.1271  0.0315
 5939W        W26219  16.945  14.853  12.734 -0.0173  0.1568  0.1874
 5940W        W26220   4.715   1.408  11.416 -0.1971  0.0816 -0.1628
 5941W        W26221  12.335   1.296  13.924 -0.2314 -0.0981  0.0226
 5942W        W26222   7.901  18.160   1.470  0.1657 -0.0333  0.1296
 5943W        W26223   4.764   3.544   0.830 -0.0064  0.0390 -0.0771
 5944W        W26224  17.487  13.645   0.573  0.0150 -0.0476 -0.2985
 5945W        W26225  19.346   7.978  14.371 -0.2336 -0.0553  0.2958
 5946W        W26226  18.754   3.926  11.503 -0.2390  0.1029 -0.2905
 5947W        W26227  14.074   9.820   0.370  0.2868  0.3589 -0.2612
 5948W        W26228  11.720  12.506   3.763  0.2214  0.3013 -0.1770
 5949W        W26229  14.617   4.739   3.955 -0.1157 -0.0570  0.0503
 5950W        W26230  16.708   2.790  14.060 -0.0376  0.0716 -0.0847
 5951W        W26231  19.120  17.582   4.063  0.0321  0.2030  0.0799
 5952W        W26232   5.468  11.335  12.153 -0.0135 -0.1537  0.3079
 5953W        W26233   7.263   4.557   1.187 -0.1538  0.1124 -0.1268
 5954W        W26234   7.740  14.752  13.659  0.0167 -0.0386  0.0271
 5955W        W26235   4.523  16.290  11.783  0.0962 -0.3475  0.0149
 5956W        W26236   8.192   2.223   2.699 -0.1918 -0.1973 -0.1069
 5957W        W26237   3.515  15.761   2.856 -0.0420 -0.2475 -0.0176
 5958W        W26238   6.814   8.052  12.976 -0.1841 -0.1189 -0.1915
 5959W        W26239  17.607  10.830   1.932  0.2724 -0.0331  0.5040
 5960W        W26240   7.757  10.001   1.477  0.2348  0.1306  0.0771
 5961W        W26241   7.726   8.552  13.576  0.0081 -0.0810 -0.1024
 5962W        W26242   6.117  15.164   3.471 -0.1392  0.4652  0.0831
 5963W        W26243   0.877   7.951  10.203  0.0699  0.1001  0.3013
 5964W        W26244  11.364  13.593   2.529 -0.4583  0.0133  0.1216
 5965W        W26245  16.255   4.548   1.757  0.0416  0.2207 -0.0091
 5966W        W26246   4.440  12.005   3.084  0.2207 -0.2078 -0.3147
 5967W        W26247  10.748  16.100  12.865  0.1969  0.1639  0.0264
 5968W        W26248   9.819  12.361  12.899 -0.4334 -0.0695  0.1226
 5969W        W26249   1.574   1.147   0.907 -0.2361  0.1709 -0.1446
 5970W        W26250  18.853  11.237   1.933 -0.2290  0.0102 -0.2138
 5971W        W26251   5.385   6.226   4.187  0.0662  0.0638  0.0843
 5972W        W26252  18.161   7.724   0.665 -0.0006 -0.0475 -0.1140
 5973W        W26253  13.656   8.724  10.149  0.0805  0.0846  0.0468
 5974W        W26254  13.706  16.423   0.986 -0.2546 -0.0871 -0.0780
 5975W        W26255   4.425   1.548   3.035 -0.0366  0.2144  0.1594
 5976W        W26256  13.748  18.981   3.606  0.0985  0.2757  0.1814
 5977W        W26257  15.714  10.664   0.629 -0.1449 -0.1409  0.0922
 5978W        W26258   4.185   8.985   9.464 -0.3088 -0.2944  0.0962
 5979W        W26259   4.651  16.320   0.914  0.6825  0.1170  0.2333
 5980W        W26260   7.433  16.734  13.800  0.0765 -0.0126 -0.1044
 5981W        W26261   6.067   7.881  12.922  0.0529  0.0399 -0.2212
 5982W        W26262   3.221   5.611  14.067  0.2559 -0.2326  0.0614
 5983W        W26263  11.087  13.210   1.398  0.0249 -0.1355  0.1957
 5984W        W26264   4.509   9.767   3.665  0.0470 -0.2658  0.0737
 5985W        W26265  15.523   7.245  12.094 -0.1794 -0.0906 -0.2438
 5986W        W26266   6.526  12.465  11.361 -0.0295 -0.1546 -0.2373
 5987W        W26267   4.007   4.035   1.567 -0.1071 -0.1823 -0.1372
 5988W        W26268  18.154   9.094  11.119 -0.0248 -0.4117  0.3275
 5989W        W26269  17.183  12.802   9.454 -0.2001  0.0782 -0.3781
 5990W        W26270   4.251   2.888   3.035  0.1010 -0.0820  0.2454
 5991W        W26271   1.412  12.308   2.863  0.0333 -0.0934  0.6355
 5992W        W26272  15.329  11.810   1.299  0.2435 -0.2788  0.0477
 5993W        W26273   3.984   3.584   1.230 -0.0113 -0.0723 -0.0002
 5994W        W26274   8.638  14.374   1.807 -0.2515 -0.0774  0.0141
 5995W        W26275   3.650   7.930  11.863 -0.1169  0.0713  0.2189
 5996W        W26276  13.503   8.653  13.000 -0.0118  0.0698  0.1631
 5997W        W26277   0.489   1.634  11.552 -0.1687  0.2452 -0.1155
 5998W        W26278   7.558  11.541  11.963 -0.1082  0.1778 -0.1875
 5999W        W26279   1.723   4.222  11.129 -0.1530  0.1200 -0.0303
 6000W        W26280  18.860  11.627   1.601 -0.3934 -0.0939 -0.1517
 6001W        W26281   8.440  17.371  12.482  0.2331  0.3098  0.0958
 6002W        W26282  14.252   6.402  11.239  0.0320  0.1574  0.2137
 6003W        W26283  11.173   2.947   4.178  0.1470 -0.1202 -0.1971
 6004W        W26284  14.024   9.293  13.230  0.2222  0.0576 -0.1436
 6005W        W26285  12.511   6.226  12.792 -0.0679  0.2695 -0.1831
 6006W        W26286  14.921   6.322  11.892  0.0899  0.1855  0.2895
 6007W        W26287  13.177  17.907   0.860 -0.2303  0.1375  0.1125
 6008W        W26288  15.685   2.596   4.138  0.2010 -0.0656 -0.0747
 6009W        W26289  18.441   4.717  11.194  0.0380 -0.3547  0.0917
 6010W        W26290   9.095   2.734  11.064 -0.5239 -0.2460 -0.3137
 6011W        W26291   7.666  13.299  12.610 -0.0855  0.4168  0.0786
 6012W        W26292   6.503  10.684  14.119 -0.1330  0.6393  0.1246
 6013W        W26293   7.204  18.862  12.765  0.1164 -0.0088  0.1939
 6014W        W26294   8.045   9.628  12.055 -0.0800 -0.1710 -0.1214
 6015W        W26295  14.961   4.416  12.980  0.0075  0.1048  0.3612
 6016W        W26296   1.918   7.174   1.704  0.1154  0.1809  0.4445
 6017W        W26297   5.342   1.356   4.241 -0.1051  0.2205  0.0685
 6018W        W26298  10.150   4.840  10.800  0.4026  0.1035  0.3455
 6019W        W26299  18.848  14.167   1.840 -0.0092 -0.0346 -0.1530
 6020W        W26300  13.626   5.272  12.474 -0.0749  0.1950 -0.1641
 6021W        W26301  15.700   6.807   1.945  0.0240 -0.0205 -0.3005
 6022W        W26302  14.904   2.149  14.134  0.1683  0.0049  0.1367
 6023W        W26303   0.850  19.083   0.134 -0.4260  0.1647 -0.2341
 6024W        W26304  16.703  17.248   2.203 -0.2136 -0.0945 -0.0509
 6025W        W26305  14.196   2.024   4.500  0.1279  0.1642  0.2427
 6026W        W26306   6.408   0.255  14.233  0.3139 -0.0382 -0.0052
 6027W        W26307  14.686  15.106   3.247 -0.2136 -0.2787  0.2810
 6028W        W26308   1.111   4.857   2.447  0.2550  0.2074  0.1740
 6029W        W26309   1.727   8.357   2.605  0.1544  0.0903  0.1353
 6030W        W26310   6.732   1.243   1.963 -0.0344  0.0308  0.1164
 6031W        W26311   1.234   9.603  10.261  0.1456 -0.0607 -0.0332
 6032W        W26312   9.928  16.597   0.774  0.1517  0.2468  0.0429
 6033W        W26313   4.770  11.100   3.023 -0.1864 -0.0150  0.3940
 6034W        W26314   3.565   6.585   1.320 -0.2593 -0.0721  0.2948
 6035W        W26315  15.535   2.093  14.372  0.3498  0.1118  0.4638
 6036W        W26316   9.920  13.400  10.651  0.1552 -0.0536 -0.0995
 6037W        W26317  18.749   0.694   3.187  0.0164 -0.1139 -0.0966
 6038W        W26318  11.322   8.815   0.376 -0.0250 -0.4575  0.1410
 6039W        W26319   3.155   0.562   3.643  0.0583  0.0709  0.1070
 6040W        W26320   1.003   0.017   1.330  0.0839 -0.1947 -0.0568
 6041W        W26321  18.752   0.725  11.798 -0.2060 -0.0950  0.2615
 6042W        W26322  11.552   0.978   2.360 -0.0743 -0.2311 -0.1699
 6043W        W26323  10.613   3.716  11.359  0.1202 -0.2231  0.0970
 6044W        W26324   8.449   8.633  12.857  0.0842 -0.0749  0.0137
 6045W        W26325  19.366  18.534  11.252  0.0140  0.0703  0.1318
 6046W        W26326  13.220   3.734  13.090 -0.3126  0.1870  0.0824
 6047W        W26327  12.854  17.752  13.056 -0.2089  0.1522 -0.1432
 6048W        W26328  13.536  17.266   2.579 -0.0250 -0.0943 -0.0371
 6049W        W26329  10.278   8.212   2.348 -0.3774  0.1916  0.1760
 6050W        W26330  15.794  15.182  11.851 -0.1482  0.1652 -0.5164
 6051W        W26331   2.215  15.368  11.108 -0.1141 -0.2346  0.4457
 6052W        W26332   1.553   9.738  10.643 -0.4369  0.0104 -0.2555
 6053W        W26333   7.233  19.063   0.493 -0.2506  0.0213 -0.0642
 6054W        W26334  14.085   4.462  12.791 -0.0049  0.0680 -0.2079
 6055W        W26335  15.312  16.311  12.404  0.2702 -0.0473  0.0243
 6056W        W26336   4.580   7.769  13.213 -0.0225  0.0499 -0.0272
 6057W        W26337   4.705   6.592   0.201  0.0294  0.1586 -0.0197
 6058W        W26338   3.635  11.776  14.134  0.0813  0.2380  0.2579
 6059W        W26339   5.371   0.342   2.917 -0.0827 -0.3476 -0.2347
 6060W        W26340   0.424   4.444   1.550 -0.0243  0.1337  0.0213
 6061W        W26341   7.950  16.137   1.103 -0.2637  0.0615  0.1178
 6062W        W26342   0.815   5.164   2.799  0.1725 -0.0010  0.1789
 6063W        W26343  19.191  13.128   3.802  0.0351 -0.2612 -0.3352
 6064W        W26344   4.179  13.790   1.319  0.0969 -0.1560 -0.0310
 6065W        W26345   1.970   2.497   0.393 -0.1226  0.1394  0.2815
 6066W        W26346  13.430   0.156   1.702  0.0594 -0.3217  0.1342
 6067W        W26347   6.117   5.929   2.615 -0.0190  0.3026  0.1283
 6068W        W26348   4.234   2.111  11.351 -0.1787 -0.1693 -0.3353
 6069W        W26349  11.579  15.074  13.915 -0.0035 -0.3197 -0.2559
 6070W        W26350   3.458  11.175   0.971 -0.1908 -0.2677  0.2445
 6071W        W26351   9.427   9.068   1.854  0.1303  0.2632  0.2821
 6072W        W26352  18.895  10.572   2.076  0.0864 -0.3538  0.2462
 6073W        W26353  18.133  15.949  10.701 -0.0353 -0.0839 -0.0709
 6074W        W26354  11.214   5.398   3.550  0.1891  0.2558  0.1919
 6075W        W26355   4.491  15.388   0.652  0.1053 -0.1882  0.0848
 6076W        W26356  11.008   8.396  13.208 -0.0412  0.1482 -0.1722
 6077W        W26357   5.947  11.273   1.205 -0.0111  0.1360 -0.1129
 6078W        W26358   1.329  11.853  13.500  0.1216  0.0014  0.0563
 6079W        W26359  15.933   3.654   1.809  0.0175  0.1299  0.2545
 6080W        W26360  11.001  17.094  10.635  0.2221  0.1365 -0.0435
 6081W        W26361   9.176  11.946   2.181  0.0016  0.1525 -0.0034
 6082W        W26362   4.029   3.867   2.049  0.1338  0.0331  0.2954
 6083W        W26363  16.516  12.841   2.184  0.1041 -0.0012  0.0703
 6084W        W26364   7.921   9.514  13.289  0.3530  0.4570  0.0768
 6085W        W26365   3.733  18.208   0.082  0.0736 -0.1019  0.2162
 6086W        W26366   5.648  11.624  10.723 -0.0148 -0.2164  0.3037
 6087W        W26367   3.039  19.268  13.604  0.0572  0.0801  0.0512
 6088W        W26368   7.374  19.247   3.481 -0.1009 -0.2357  0.2252
 6089W        W26369   9.885   4.817  13.292 -0.0054 -0.0033  0.0650
 6090W        W26370   7.227   4.356   1.847 -0.0861 -0.1752 -0.1573
 6091W        W26371   2.734  10.998  14.046  0.2213 -0.1577  0.2030
 6092W        W26372   6.252   3.174   9.511  0.2407  0.0430 -0.2336
 6093W        W26373  14.692  15.441   1.286 -0.2632 -0.0871 -0.2082
 6094W        W26374   2.967   8.996  11.620 -0.2208  0.1433  0.1043
 6095W        W26375  16.055  18.564   0.751 -0.1238  0.2750  0.1855
 6096W        W26376  12.448   3.274  14.028  0.0339  0.0698 -0.1506
 6097W        W26377   5.166   6.863   3.656  0.4270 -0.0424 -0.0753
 6098W        W26378  12.059   2.353  10.852  0.1396 -0.1259 -0.0400
 6099W        W26379   2.761   4.862   0.094  0.0540  0.1961  0.1940
 6100W        W26380  13.769  12.541  13.484 -0.1283 -0.1519  0.4594
 6101W        W26381   9.277  17.129   3.859  0.0394  0.0261  0.0570
 6102W        W26382  17.563   1.339  11.887 -0.1730  0.0002  0.2818
 6103W        W26383   8.067   0.793  12.609 -0.1654  0.2609  0.1308
 6104W        W26384  13.824  12.728  12.521  0.2372 -0.2035  0.0657
 6105W        W26385  14.001   9.476  11.639  0.0046 -0.1030  0.1936
 6106W        W26386   7.131   4.452  13.250 -0.0537  0.0336 -0.2333
 6107W        W26387   5.553   0.663   1.270  0.1355  0.0229 -0.3514
 6108W        W26388  14.349  12.415  11.821  0.3224 -0.3906  0.0389
 6109W        W26389  18.157  10.972  11.553  0.0954 -0.2039 -0.1061
 6110W        W26390   0.202   9.834   2.975  0.2505 -0.0615 -0.2328
 6111W        W26391  10.348   2.045  11.328  0.1607  0.1902  0.0614
 6112W        W26392  11.089  12.788   0.166  0.0633 -0.0031 -0.3781
 6113W        W26393  12.044  13.903  10.037 -0.0289  0.0114  0.2848
 6114W        W26394   3.661  13.278  11.957 -0.0800  0.1041  0.1832
 6115W        W26395   2.783   9.545  13.981 -0.0600 -0.2309 -0.1565
 6116W        W26396   9.972   9.644   0.777  0.1127  0.0835 -0.3519
 6117W        W26397  14.748   3.890   9.831  0.1731 -0.1625  0.1411
 6118W        W26398   5.878  11.954  14.313  0.1466  0.2074  0.2147
 6119W        W26399  12.026  18.918  13.467 -0.0357 -0.2982 -0.0628
 6120W        W26400   5.894   6.799  12.478 -0.1484 -0.0899 -0.2998
 6121W        W26401   0.659  11.335  10.387  0.2874  0.0875  0.1376
 6122W        W26402  16.440   5.153  10.742 -0.1949  0.3459  0.0275
 6123W        W26403   7.982  17.388   1.288 -0.0028  0.2131 -0.0376
 6124W        W26404   5.121   6.776   0.578 -0.4446  0.0469 -0.2050
 6125W        W26405  11.367   8.422   3.805  0.0822 -0.2910 -0.0441
 6126W        W26406   8.000   2.617   3.987  0.1115  0.0213 -0.1078
 6127W        W26407   3.871   2.652   4.412  0.1884 -0.1404 -0.0088
 6128W        W26408   8.469  13.820   2.592 -0.0864 -0.0059 -0.1608
 6129W        W26409   5.198   9.540  13.377  0.0856 -0.0801  0.3621
 6130W        W26410  14.937  11.181   2.187  0.2171 -0.1023  0.2436
 6131W        W26411  18.484  15.617  10.458  0.2719 -0.1622 -0.0895
 6132W        W26412   5.182   8.209   2.709 -0.3231 -0.1150 -0.4140
 6133W        W26413  13.897   5.863  11.731 -0.0729 -0.1135 -0.2661
 6134W        W26414   2.861  16.197  10.112 -0.1829  0.0437 -0.1594
 6135W        W26415  17.117  14.977  10.954  0.0502 -0.0426  0.0602
 6136W        W26416   0.409   9.800  12.089  0.2756 -0.0722  0.3499
 6137W        W26417  15.815  12.774  11.798 -0.2163  0.1604 -0.0337
 6138W        W26418   0.159   7.963  10.953 -0.0100  0.2564 -0.1373
 6139W        W26419   8.114   3.549  10.628 -0.0285 -0.1699 -0.2543
 6140W        W26420   5.735   8.280   1.404 -0.1530 -0.1545  0.1688
 6141W        W26421   1.232   1.411   1.840  0.1563  0.1388  0.0710
 6142W        W26422  15.850  12.179  14.178 -0.2140 -0.1129  0.1023
 6143W        W26423  17.169   1.450   0.026 -0.4187 -0.0518  0.3866
 6144W        W26424   4.190   3.956   4.104 -0.1679  0.3083 -0.1786
 6145W        W26425   0.518  15.493  11.582  0.1427  0.0110 -0.6205
 6146W        W26426   4.788   1.799   2.216 -0.0323 -0.2790 -0.0235
 6147W        W26427   9.690   4.977  12.008  0.0491 -0.2176  0.0069
 6148W        W26428   6.165   5.334  11.955  0.0780  0.3557 -0.0012
 6149W        W26429   5.422  11.710  12.759  0.1072  0.3204 -0.0289
 6150W        W26430  14.487  11.441  11.715 -0.0594 -0.0031 -0.0407
 6151W        W26431   0.913  15.580  12.098 -0.0721 -0.0483 -0.3910
 6152W        W26432  16.715   4.292   1.728 -0.1269 -0.1039  0.0240
 6153W        W26433   3.714  18.461   3.100 -0.1864  0.2525 -0.5262
 6154W        W26434  10.819   8.421  13.662  0.0221  0.2768 -0.0075
 6155W        W26435  17.683   0.607  14.094  0.1819  0.2138  0.1629
 6156W        W26436  18.738   4.335   3.963  0.3269  0.0065  0.2615
 6157W        W26437  13.717  10.466  10.007  0.3166  0.0790  0.0154
 6158W        W26438  17.641   4.339  14.383  0.2267 -0.1530 -0.0774
 6159W        W26439   2.755  10.658  12.075 -0.2062  0.0148  0.0650
 6160W        W26440  14.731   8.776  13.666  0.1739 -0.2193  0.1297
 6161W        W26441   0.431  17.198  10.041 -0.0348  0.2021 -0.2176
 6162W        W26442  10.503  18.920  10.927 -0.1216  0.0572  0.3064
 6163W        W26443  18.466   3.671  11.009  0.0287  0.0523  0.2079
 6164W        W26444  17.140  18.028  10.713 -0.2922  0.0079 -0.0633
 6165W        W26445  12.090   6.472   4.007  0.1414  0.0377  0.3439
 6166W        W26446   4.411  14.486  13.199  0.2326 -0.1465  0.2605
 6167W        W26447  18.193   8.713  11.684  0.0588 -0.0314  0.2775
 6168W        W26448   5.057  14.399   3.834 -0.0157  0.3320 -0.1249
 6169W        W26449   7.411  17.397  12.737 -0.0003 -0.0226  0.0511
 6170W        W26450  18.105  13.048  14.474 -0.2799 -0.1657 -0.0724
 6171W        W26451  18.300  13.900   3.105  0.0375  0.0310  0.2078
 6172W        W26452  10.540   2.147  12.582 -0.1511 -0.0191 -0.0335
 6173W        W26453  15.775   2.093  12.623  0.1138 -0.4707  0.1822
 6174W        W26454   7.519   1.706   3.529 -0.0980  0.1482 -0.0661
 6175W        W26455   1.582  17.099  11.894 -0.2662 -0.0386  0.1625
 6176W        W26456   3.449   9.472   1.952 -0.0478  0.2278  0.1349
 6177W        W26457   2.632  13.392  14.375 -0.1253 -0.1342  0.1667
 6178W        W26458  19.101  10.021   2.141 -0.0466  0.1202 -0.3234
 6179W        W26459  18.432  11.999  11.454 -0.3550  0.0196  0.2049
 6180W        W26460  14.072   4.437   3.108 -0.3939  0.3803 -0.0941
 6181W        W26461  15.194   8.096  10.757 -0.1601  0.0677  0.0616
 6182W        W26462   2.311  10.652   2.442  0.1380  0.0133 -0.1650
 6183W        W26463  10.367   6.280  10.545  0.2795  0.1020  0.2635
 6184W        W26464   6.129  15.878  12.932 -0.3133  0.3056  0.1525
 6185W        W26465  12.311   9.707  11.056  0.0123  0.0334  0.2130
 6186W        W26466  13.179  18.490   2.942  0.2011  0.2571 -0.2905
 6187W        W26467   6.585   2.192  12.938  0.0361  0.0391  0.3591
 6188W        W26468   1.910   9.286  14.147 -0.1756 -0.0243 -0.1027
 6189W        W26469   7.279  17.976  11.363 -0.0535 -0.2512 -0.1355
 6190W        W26470  18.704  10.885   0.542 -0.1624 -0.2097  0.1496
 6191W        W26471  18.156  15.402   2.984 -0.0585 -0.2177  0.0675
 6192W        W26472  10.623   0.073  13.339  0.0150 -0.1533 -0.0968
 6193W        W26473   9.377   2.957  14.135 -0.3178 -0.2297  0.0757
 6194W        W26474   4.561  16.150   4.095 -0.2081 -0.0199 -0.0639
 6195W        W26475   6.081   4.660   2.311 -0.0605 -0.1189  0.1068
 6196W        W26476   1.645  18.812   0.373  0.1219  0.2731  0.1427
 6197W        W26477   3.857  12.088  13.158  0.0444 -0.0324  0.0411
 6198W        W26478   6.955   6.407  14.325 -0.0444  0.1829 -0.2068
 6199W        W26479  16.071   9.630   2.483  0.1883 -0.1157 -0.0376
 6200W        W26480  12.792   0.811   3.056  0.2093 -0.0045  0.0147
 6201W        W26481   2.860   0.497   0.370 -0.3378  0.2875  0.0137
 6202W        W26482   9.107  14.808   2.511 -0.0360 -0.0979  0.0772
 6203W        W26483   5.149  15.306  12.131  0.0323 -0.0601  0.1533
 6204W        W26484  14.807   2.684   0.882  0.0991 -0.0819  0.0793
 6205W        W26485   6.159   2.900  12.280  0.1794 -0.2215  0.1507
 6206W        W26486  17.435   4.767   0.521  0.0066 -0.0115 -0.0120
 6207W        W26487   2.262   2.877   2.276 -0.0500  0.1076 -0.0007
 6208W        W26488  11.032  17.922   1.894 -0.1130  0.2030  0.2594
 6209W        W26489  19.164  12.692   2.106  0.1548  0.2777 -0.0240
 6210W        W26490  14.305   3.306  11.620 -0.1925 -0.0474  0.1625
 6211W        W26491   9.407   3.767  13.587  0.2692  0.2046 -0.0302
 6212W        W26492   1.324   7.356  10.552  0.2554  0.0455 -0.3206
 6213W        W26493  15.651   3.301   0.428  0.0689  0.2863  0.2996
 6214W        W26494  16.465   7.901   2.209  0.2283 -0.0607 -0.3565
 6215W        W26495   6.833  15.731   3.265 -0.2040  0.0245  0.1327
 6216W        W26496   9.889   2.956  13.565  0.1816 -0.0188  0.0016
 6217W        W26497  16.191   5.991  13.902  0.0389 -0.3517 -0.5246
 6218W        W26498   3.745  17.949  11.640 -0.0152 -0.4285 -0.2337
 6219W        W26499   6.905   3.822   3.605  0.2339  0.1481 -0.3587
 6220W        W26500  11.226  11.235  10.910  0.2277 -0.2860  0.2654
 6221W        W26501   7.544   0.368   3.309  0.1682  0.3722  0.2340
 6222W        W26502   8.099   4.615   2.634  0.4141 -0.0929 -0.2056
 6223W        W26503  15.458   8.038   3.640 -0.0241 -0.0496  0.0761
 6224W        W26504   8.485   4.862   0.569  0.2131  0.1622 -0.1338
 6225W        W26505   0.315  14.624   3.123 -0.2680 -0.0662 -0.0335
 6226W        W26506   3.279   5.130   1.201 -0.1509 -0.0297 -0.0749
 6227W        W26507   1.158  12.732   0.976 -0.3164 -0.3156 -0.2690
 6228W        W26508  17.800  13.622   2.764  0.2898  0.3345  0.0317
 6229W        W26509   0.023   8.897  10.851 -0.2004  0.0628  0.1452
 6230W        W26510  10.506   0.823  12.579 -0.0601  0.3649  0.0142
 6231W        W26511  14.784   5.982   2.076  0.0268  0.0532 -0.2020
 6232W        W26512   5.991  14.934   1.069  0.0556  0.2025 -0.1276
 6233W        W26513   4.774  16.452   1.400 -0.2190  0.0519 -0.1069
 6234W        W26514  10.024   2.927  11.648  0.2639 -0.2014  0.1652
 6235W        W26515  10.310  16.916   0.656  0.0953 -0.0142  0.3640
 6236W        W26516   2.592   0.558  12.286  0.1156 -0.1715 -0.4467
 6237W        W26517  17.334  17.893   2.606 -0.0350  0.0511 -0.3827
 6238W        W26518   4.511  14.871   2.175 -0.1193 -0.3002  0.0444
 6239W        W26519   4.736   9.966   2.299 -0.1253 -0.3335 -0.1024
 6240W        W26520   6.699   4.546  10.997  0.1028 -0.1660  0.0158
 6241W        W26521  14.875   5.935  12.825 -0.1369 -0.1749 -0.1601
 6242W        W26522  19.104  10.802  13.405  0.3418 -0.2150 -0.0436
 6243W        W26523  16.069  19.067   2.012  0.1384 -0.1790  0.0546
 6244W        W26524   4.611  15.703  10.432  0.1004 -0.0168 -0.1863
 6245W        W26525   3.456  12.504   2.749 -0.1175  0.0760  0.4724
 6246W        W26526  10.882  15.904   1.814 -0.0681  0.1130 -0.3298
 6247W        W26527   0.960   2.102  12.527  0.3680 -0.0714  0.0151
 6248W        W26528   1.587  10.027   2.582 -0.1532 -0.0820  0.1907
 6249W        W26529  15.964  18.074   2.124 -0.0323 -0.2698  0.0834
 6250W        W26530  17.368  18.804  10.910  0.0626  0.0384  0.0121
 6251W        W26531   3.453   2.204  11.959  0.0018 -0.4136 -0.1527
 6252W        W26532  11.994   7.988   9.640 -0.4220  0.0045 -0.2531
 6253W        W26533   6.261   6.766   0.795 -0.0626 -0.0088 -0.0508
 6254W        W26534  11.833   4.953   2.568  0.0340  0.2450  0.0470
 6255W        W26535   5.277  14.762   2.387  0.0215 -0.2780  0.0278
 6256W        W26536  10.693   5.690   2.285  0.2138  0.0606  0.1339
 6257W        W26537   9.519   4.166  12.203  0.1682  0.2545 -0.0947
 6258W        W26538   0.935   5.006  14.401 -0.2987  0.0330  0.1448
 6259W        W26539  16.007   4.990   1.409  0.0668  0.0475 -0.1543
 6260W        W26540   4.268   2.140  13.861 -0.0253  0.1099 -0.0590
 6261W        W26541  18.581   0.636  11.282 -0.2623  0.1513  0.0353
 6262W        W26542  11.967   1.705  12.798 -0.0665 -0.1222 -0.2393
 6263W        W26543  14.311  15.084   0.565  0.3876 -0.1143 -0.0446
 6264W        W26544  14.507  14.625  13.290  0.2391  0.2767  0.0095
 6265W        W26545  12.430  10.709   4.033  0.0208  0.1475 -0.0245
 6266W        W26546   6.271   3.365   0.197  0.1456  0.1700  0.0318
 6267W        W26547  18.277   9.467  14.077 -0.0548  0.0239  0.1468
 6268W        W26548  14.280   8.939   2.992  0.2059 -0.1814 -0.0857
 6269W        W26549   8.274  18.554   4.767 -0.1064  0.0037  0.2491
 6270W        W26550   9.677   3.244   4.248  0.1036  0.0097  0.0181
 6271W        W26551   3.994  18.043   2.143  0.2943 -0.0107  0.0175
 6272W        W26552  11.456  14.885   3.693  0.1821  0.2186  0.1076
 6273W        W26553   6.606  17.384   3.144 -0.1617 -0.0055 -0.1617
 6274W        W26554  15.034  18.794   3.045 -0.2749  0.0488  0.0073
 6275W        W26555   6.551   6.276  12.716 -0.0866 -0.2984 -0.3925
 6276W        W26556   9.051  15.768  13.323  0.1473 -0.2090  0.1680
 6277W        W26557  12.011  13.437  12.900  0.0704  0.1760 -0.1135
 6278W        W26558  14.230   4.797   0.535  0.0333 -0.1618 -0.1839
 6279W        W26559  12.337  12.680   5.098 -0.1194  0.0473  0.0600
 6280W        W26560  12.906  12.410   1.595  0.0710 -0.1747 -0.1836
 6281W        W26561  13.279   8.830   0.054 -0.1740 -0.1963 -0.1357
 6282W        W26562  12.255   4.226   3.721 -0.1303  0.2072 -0.1015
 6283W        W26563   0.581  13.855  13.658 -0.1472 -0.0200 -0.0470
 6284W        W26564  14.688   7.983  11.480  0.0227  0.0727 -0.1264
 6285W        W26565   0.940  12.486   2.555  0.0456 -0.2859 -0.2387
 6286W        W26566  18.549   9.675  13.270 -0.2156  0.2987  0.0289
 6287W        W26567   0.922  12.490  13.505 -0.0664 -0.1037  0.0248
 6288W        W26568  16.272  12.107  12.225 -0.1095  0.2766 -0.2936
 6289W        W26569  16.960   2.101   2.052  0.1187  0.1074 -0.1058
 6290W        W26570   6.160  13.866   0.503  0.1534 -0.1233 -0.4288
 6291W        W26571  12.985   8.277   0.965 -0.1110  0.0633 -0.2013
 6292W        W26572   2.994  17.828  12.101  0.1246  0.0963 -0.2373
 6293W        W26573  14.193  14.625   0.937  0.0165  0.0534  0.1048
 6294W        W26574  11.967  14.179  13.927  0.1644 -0.0622 -0.0040
 6295W        W26575   9.694   3.501   0.426 -0.1340 -0.1348 -0.0452
 6296W        W26576  17.302  13.891  11.815 -0.1593 -0.2288  0.3538
 6297W        W26577  16.676  17.976  13.804 -0.0857  0.1877  0.0980
 6298W        W26578  17.664   7.777   0.922 -0.2937 -0.0013  0.0006
 6299W        W26579   4.164  17.477  12.314  0.4641 -0.0213  0.4222
 6300W        W26580   2.936   0.298   4.094 -0.1976 -0.0436  0.2406
 6301W        W26581  12.295   1.561  12.473  0.0790 -0.3240 -0.2400
 6302W        W26582  16.339  18.307   9.226  0.1886 -0.0648 -0.1104
 6303W        W26583  15.029   5.902   2.834 -0.2820 -0.0522  0.1143
 6304W        W26584   2.001   4.379   0.992 -0.0291 -0.3211  0.0944
 6305W        W26585  15.996  14.096   2.579  0.0949 -0.3338 -0.1447
 6306W        W26586   0.820  10.071  13.856  0.1099 -0.3027 -0.1448
 6307W        W26587  16.754  15.294   3.860  0.1518  0.1788  0.1535
 6308W        W26588   0.799  18.059  13.418  0.0839  0.3426  0.0658
 6309W        W26589  10.397  18.279  10.223  0.0520 -0.1204  0.0494
 6310W        W26590  13.286   1.327   2.131  0.1033  0.3548 -0.2938
 6311W        W26591  17.575  17.224   0.065 -0.0188 -0.0147 -0.0018
 6312W        W26592  13.182   5.576   1.317 -0.1371 -0.0258  0.2113
 6313W        W26593  14.539   5.686   0.933 -0.0229 -0.0714 -0.1335
 6314W        W26594  16.475  16.166   0.688  0.0757 -0.0649 -0.1172
 6315W        W26595   1.572   4.272   3.129 -0.1768  0.0152  0.2312
 6316W        W26596   4.097   0.301  12.225 -0.1160  0.2138  0.0062
 6317W        W26597  16.951  13.220   4.160 -0.0091  0.0401 -0.0259
 6318W        W26598   0.458  14.274  11.584  0.1194 -0.2872 -0.1438
 6319W        W26599  14.090  10.090   2.046 -0.3526  0.0082 -0.0169
 6320W        W26600   6.403   1.311   3.165  0.0035 -0.1945  0.2899
 6321W        W26601   1.152   5.528   2.488 -0.2003 -0.0967  0.2391
 6322W        W26602  13.301   2.874   2.488 -0.1671 -0.0221  0.0554
 6323W        W26603  17.107  12.214  13.223 -0.0083 -0.1002 -0.0823
 6324W        W26604  15.460   1.626   2.135 -0.0005 -0.1413  0.1600
 6325W        W26605   8.684   9.441  10.430 -0.0357 -0.0668 -0.0051
 6326W        W26606  10.915   8.770   0.101 -0.2201  0.0266  0.2038
 6327W        W26607  12.284   0.057  11.148  0.1541  0.4512 -0.2917
 6328W        W26608  13.106   5.083  12.301  0.0560 -0.2073 -0.0266
 6329W        W26609   2.849  12.122  10.834  0.1400 -0.0782  0.0925
 6330W        W26610   4.634  18.602   0.590  0.1363  0.0856 -0.1673
 6331W        W26611   2.263   7.328   2.011 -0.1286  0.0784 -0.0128
 6332W        W26612   7.357   7.044  11.948  0.4965  0.1014 -0.0135
 6333W        W26613   0.073  15.687   1.034 -0.0001  0.1230  0.3348
 6334W        W26614  18.184   6.897   1.374 -0.2658  0.2675 -0.3732
 6335W        W26615   7.118  18.641   2.500 -0.1699  0.0434  0.0282
 6336W        W26616  11.144  15.359  14.009 -0.3242 -0.0825  0.1344
 6337W        W26617  18.544  16.253   0.951  0.1950  0.1154 -0.1229
 6338W        W26618  17.016  18.458  13.319  0.1992 -0.2897 -0.0444
 6339W        W26619  14.161   3.327   2.727 -0.1808  0.2611  0.2545
 6340W        W26620   1.722   3.629   0.929 -0.0826  0.0695  0.2472
 6341W        W26621  10.290   1.223  11.346  0.1181 -0.0711  0.1220
 6342W        W26622   8.657  14.310  13.469 -0.0749 -0.3143 -0.1019
 6343W        W26623   8.050   5.661   0.387  0.2003  0.1529 -0.2083
 6344W        W26624   7.036   4.589  12.734  0.1166  0.1438 -0.1592
 6345W        W26625   6.757  16.729  12.057 -0.0362  0.1050 -0.3338
 6346W        W26626  10.905   6.100   2.665  0.1204  0.1607  0.1356
 6347W        W26627  12.315  12.074  12.904  0.1213  0.1804  0.1570
 6348W        W26628  16.039   7.413   9.604 -0.0632  0.0511  0.1065
 6349W        W26629   0.748  17.509   4.886 -0.0563 -0.1327  0.1256
 6350W        W26630   7.332   6.981   4.090  0.3122 -0.1011 -0.0418
 6351W        W26631  17.238  15.651   2.965  0.3495  0.4228 -0.0096
 6352W        W26632  13.650   1.910  10.976  0.2391  0.0056 -0.0652
 6353W        W26633   7.115  12.027  13.084  0.0798 -0.6091 -0.2811
 6354W        W26634   9.478   6.799  10.352 -0.0015  0.1730  0.0659
 6355W        W26635   2.736   5.664  13.310 -0.2529  0.0935 -0.1702
 6356W        W26636  16.711  14.821   1.203 -0.2348  0.2923 -0.1564
 6357W        W26637   1.768   8.639   2.199  0.3753  0.1819  0.0298
 6358W        W26638   0.778   3.162   3.237  0.0774 -0.0991 -0.1782
 6359W        W26639   7.745   5.259   2.123  0.2235 -0.2283  0.0818
 6360W        W26640  19.233  14.552  12.534  0.1401 -0.0241 -0.1435
 6361W        W26641  12.473  15.634  11.626  0.0897 -0.1170  0.0117
 6362W        W26642  12.811  16.073  10.713 -0.0694 -0.0443  0.3016
 6363W        W26643   2.042   6.127  11.471  0.2195  0.1248  0.1235
 6364W        W26644   7.414  18.249  10.444 -0.1080 -0.2522 -0.1421
 6365W        W26645   2.008  12.399  10.413  0.0390  0.2964 -0.0277
 6366W        W26646  10.981   1.085  14.046 -0.2824 -0.0383 -0.1516
 6367W        W26647  16.257   5.363   3.500 -0.2377  0.1089  0.1810
 6368W        W26648   4.353  11.525   1.543 -0.1539 -0.0036 -0.0831
 6369W        W26649   4.922  16.156  11.076  0.1623 -0.2286  0.1178
 6370W        W26650   3.895  15.523  13.294 -0.2534 -0.2031  0.2150
 6371W        W26651   2.434   3.977   2.670  0.2790 -0.0143 -0.1663
 6372W        W26652  18.843   9.212   0.628 -0.2868  0.1214 -0.0581
 6373W        W26653   2.356  12.010   2.928  0.1783  0.1476 -0.1255
 6374W        W26654  13.582  14.929   1.743  0.0131  0.0656  0.0462
 6375W        W26655  14.663   7.053  10.780  0.0093  0.1061  0.0612
 6376W        W26656  10.080  10.384  11.660  0.1338 -0.0886 -0.1410
 6377W        W26657   5.251   5.544   3.671 -0.1209  0.1443 -0.1872
 6378W        W26658   7.210  12.650   3.343 -0.2954 -0.1101 -0.2853
 6379W        W26659  11.488   8.212  13.101 -0.4256 -0.1701 -0.0091
 6380W        W26660   7.821  15.524  11.152  0.1585 -0.1761  0.0887
 6381W        W26661   6.801   0.777  10.914 -0.0760  0.1734  0.2422
 6382W        W26662   9.938   2.908  14.100 -0.0782 -0.2822  0.2383
 6383W        W26663   0.695  11.274   1.539  0.0234 -0.0234 -0.1829
 6384W        W26664   7.642   0.436  13.404 -0.2031  0.0945  0.0776
 6385W        W26665  18.340  13.484   0.229 -0.0337  0.1689 -0.0240
 6386W        W26666   8.960   3.538   3.063  0.1901  0.0446  0.1912
 6387W        W26667   9.113   1.525   0.531  0.1115 -0.3131  0.0140
 6388W        W26668  16.192   9.705   1.445 -0.1042 -0.1041  0.0153
 6389W        W26669  15.473   5.174   9.616  0.0172  0.0777 -0.4040
 6390W        W26670  14.436  11.921   2.224 -0.1617  0.0068  0.0420
 6391W        W26671   2.628   3.908   1.341  0.1605 -0.0475  0.0344
 6392W        W26672   2.132  14.630  10.583  0.2342  0.1358 -0.0487
 6393W        W26673   4.536  14.217   2.622 -0.1831 -0.0536 -0.1903
 6394W        W26674  10.457   3.242   0.609 -0.1153 -0.2123  0.3435
 6395W        W26675   8.953  12.574  12.860  0.3970 -0.2958 -0.0134
 6396W        W26676  12.724  14.809  12.260 -0.1320 -0.1066 -0.1488
 6397W        W26677   5.056   2.050   3.345  0.3923  0.2588 -0.5079
 6398W        W26678   3.862   6.692   0.754 -0.2797 -0.1018  0.3303
 6399W        W26679  15.611   7.204  13.805  0.0934 -0.0658 -0.0796
 6400W        W26680   5.948   0.707   1.591 -0.4247  0.1885  0.1064
 6401W        W26681  11.933  16.785   0.849 -0.1105  0.1999  0.4016
 6402W        W26682   1.955  10.396   1.328  0.5461  0.0604 -0.1667
 6403W        W26683  18.549   2.069  13.103  0.1505 -0.0539  0.0989
 6404W        W26684   6.175   9.453  14.461  0.0461  0.0197 -0.1253
 6405W        W26685   0.055  12.678   0.966  0.0960 -0.2021  0.2531
 6406W        W26686  17.344  11.835   1.901  0.0330 -0.0019 -0.1658
 6407W        W26687  16.255  16.200  11.097 -0.1599 -0.1767  0.2922
 6408W        W26688  12.691   0.182   4.304  0.3094 -0.0267  0.1003
 6409W        W26689  14.126   6.819  12.067 -0.1120 -0.1059 -0.0059
 6410W        W26690  16.236   4.335  12.938 -0.1395  0.5751 -0.2394
 6411W        W26691  16.847   3.300   1.559  0.1790  0.1208 -0.2066
 6412W        W26692  15.309  18.449   1.026  0.2671 -0.1975  0.1695
 6413W        W26693  12.397  11.771   2.052 -0.2231 -0.1296 -0.1486
 6414W        W26694   6.933   7.913   0.165  0.4149 -0.1634 -0.3546
 6415W        W26695  14.050  17.111  13.776 -0.1242 -0.2633 -0.1732
 6416W        W26696   3.173   7.744  13.125 -0.2318 -0.1351 -0.0416
 6417W        W26697   8.955   2.513   0.539 -0.1551  0.0639  0.0002
 6418W        W26698  10.777   1.855   1.814 -0.1498 -0.0051 -0.3047
 6419W        W26699   7.378   1.516   2.136  0.0722 -0.3013 -0.1577
 6420W        W26700   3.360   1.989  13.903 -0.0786 -0.1164  0.2575
 6421W        W26701  11.713   5.858   2.964  0.1303  0.0938 -0.1694
 6422W        W26702   3.396  18.383   0.426  0.2688 -0.3321  0.1851
 6423W        W26703   7.445   7.990   0.336 -0.1487 -0.1921 -0.0300
 6424W        W26704  18.347  18.529   1.374  0.0815 -0.1451  0.1677
 6425W        W26705   2.855   0.809  11.665 -0.3278 -0.1822 -0.1292
 6426W        W26706   0.959  11.993  10.893  0.0780 -0.3081  0.2520
 6427W        W26707   8.550  15.744   3.597  0.0706 -0.3326 -0.1981
 6428W        W26708   5.936   8.610  12.386 -0.0667 -0.1214 -0.1108
 6429W        W26709   0.154  11.105   2.751 -0.0172 -0.2519 -0.0767
 6430W        W26710   2.696   7.900  12.246  0.0748  0.0349  0.0585
 6431W        W26711  13.450  13.901  14.176 -0.2099 -0.0734 -0.1105
 6432W        W26712   5.774   9.537  12.795 -0.2641 -0.0892 -0.0468
 6433W        W26713  10.551   7.955  12.694  0.1507  0.0083 -0.0397
 6434W        W26714  12.248   4.408   3.065 -0.2922  0.2461 -0.2620
 6435W        W26715  13.506   5.367   1.685  0.2776  0.1805 -0.3616
 6436W        W26716   3.614  15.992  12.770 -0.0403  0.2700  0.1099
 6437W        W26717  18.993   0.753   2.651  0.1245  0.1481 -0.1435
 6438W        W26718   1.294   2.635  14.339 -0.3475 -0.1533 -0.1516
 6439W        W26719  16.527   1.165   0.110 -0.0825 -0.1530 -0.0830
 6440W        W26720  18.095   7.927   1.202  0.0959  0.4755  0.2819
 6441W        W26721   9.281  17.900  10.320 -0.0208  0.0088 -0.0135
 6442W        W26722   5.051  14.251  10.089 -0.1620  0.2569  0.2270
 6443W        W26723   0.546  10.573   3.903 -0.1669  0.2785  0.0360
 6444W        W26724  14.923  18.322  13.859 -0.1554  0.1933  0.0088
 6445W        W26725   4.309   6.847  13.351 -0.0069  0.2575 -0.0978
 6446W        W26726  19.089   7.137  11.420  0.2045  0.1301 -0.0836
 6447W        W26727  13.582  17.013  10.914 -0.0372 -0.1603 -0.1188
 6448W        W26728  15.817  18.455   2.586  0.0292  0.1511  0.0388
 6449W        W26729   9.644   2.758   4.004  0.0882  0.0856 -0.2017
 6450W        W26730  12.870  10.690   1.229 -0.2266  0.0875 -0.1708
 6451W        W26731   9.277   4.138   4.278 -0.1093 -0.0073  0.1159
 6452W        W26732   1.959  15.748   4.771 -0.2606  0.0347  0.0623
 6453W        W26733  18.041   1.970  14.349  0.3147  0.1538  0.2356
 6454W        W26734   9.116  16.877   1.859  0.0700  0.0039 -0.0023
 6455W        W26735  18.237   3.788  11.462 -0.1335 -0.1222 -0.0385
 6456W        W26736   2.476  14.954   2.908  0.1397 -0.0810 -0.3289
 6457W        W26737   9.116   3.651   1.508 -0.0262  0.3394 -0.2184
 6458W        W26738  14.448  18.665  10.913  0.2786 -0.1760 -0.1540
 6459W        W26739  17.603  18.586  11.347  0.0182  0.1562 -0.0071
 6460W        W26740   8.836  16.232  12.855  0.0280 -0.1140  0.2050
 6461W        W26741  13.012  12.164   2.394 -0.0356  0.0575  0.2313
 6462W        W26742   8.293  10.260  10.562  0.0092  0.0943 -0.2483
 6463W        W26743  11.286  15.902   9.324  0.0309  0.0815 -0.0449
 6464W        W26744   7.886  11.598  11.524 -0.0637  0.4312  0.0813
 6465W        W26745  13.295  18.388   1.426 -0.4460  0.1403 -0.0390
 6466W        W26746   6.294   1.756   3.004 -0.0961 -0.0077  0.0025
 6467W        W26747   7.440  13.454   1.654  0.0655 -0.0940  0.0541
 6468W        W26748  13.608  19.374  14.289  0.1804 -0.3425  0.2553
 6469W        W26749   1.373  11.968  12.928  0.1953  0.0365 -0.2515
 6470W        W26750   7.745  15.899   3.625 -0.2365 -0.1794 -0.0082
 6471W        W26751  12.063   2.541   1.563  0.2741  0.3163  0.2072
 6472W        W26752   6.442  13.365   3.518 -0.0403  0.1031  0.2218
 6473W        W26753  17.612  10.181  10.979 -0.2035  0.0037 -0.1926
 6474W        W26754  17.657   0.868  12.726 -0.0479 -0.1137 -0.2187
 6475W        W26755   5.498  11.611   9.972 -0.2226 -0.2874  0.0280
 6476W        W26756  16.599   9.422  12.065 -0.2803 -0.0858  0.2076
 6477W        W26757  18.849   4.851   0.566  0.0519 -0.0794 -0.3138
 6478W        W26758  19.002  12.932   1.672 -0.2746 -0.0855  0.4934
 6479W        W26759  15.883  17.564   2.031 -0.2789 -0.2370 -0.1776
 6480W        W26760  13.457   0.862   2.346  0.1395 -0.1667  0.2662
 6481W        W26761   2.620   9.765   1.559 -0.0637  0.3360 -0.0416
 6482W        W26762  15.424  17.423  11.407 -0.3289  0.1025  0.1422
 6483W        W26763   9.120  18.132   0.838  0.1129 -0.1059  0.0023
 6484W        W26764   2.211  15.345  13.272 -0.2210  0.0497  0.1071
 6485W        W26765  12.959   9.100   2.483  0.0284 -0.0350 -0.0648
 6486W        W26766   3.958   2.810  13.246 -0.1967  0.1323  0.0903
 6487W        W26767   4.763  12.824  13.285  0.0515  0.1488  0.3902
 6488W        W26768  10.485   6.081  13.415  0.1643  0.2666  0.0251
 6489W        W26769  13.555  14.046   0.946 -0.0728 -0.0107 -0.0649
 6490W        W26770  17.014  16.674   1.483  0.2194 -0.0906 -0.1384
 6491W        W26771  15.557  15.190  13.825 -0.1341  0.1338  0.2849
 6492W        W26772   7.578  10.519   2.771 -0.4102  0.1083 -0.0925
 6493W        W26773  16.843   8.691   2.603  0.2708  0.1230 -0.0085
 6494W        W26774   0.979  12.147  13.130  0.1756  0.0800 -0.0404
 6495W        W26775  15.799  11.918  11.187  0.0818 -0.2727 -0.0286
 6496W        W26776   4.722   4.481   1.705 -0.1879  0.1106  0.3207
 6497W        W26777   1.508   3.825   2.849  0.1073  0.1703  0.2201
 6498W        W26778  17.303  18.489  12.903 -0.1419 -0.1362  0.2608
 6499W        W26779  18.650   0.757  12.615 -0.0438  0.2164 -0.6882
 6500W        W26780   9.143  10.142  10.991  0.0945  0.0775  0.1254
 6501W        W26781  10.312  18.724   1.710  0.2760 -0.2815  0.0292
 6502W        W26782   7.778   4.443  13.227 -0.1016 -0.1957  0.1662
 6503W        W26783   4.318   8.539   3.176  0.1750 -0.1365 -0.0793
 6504W        W26784  11.797  16.094  10.815 -0.0770 -0.5086 -0.0752
 6505W        W26785   0.768  10.114   0.223  0.0032 -0.2571 -0.1379
 6506W        W26786  13.723  12.024  12.665  0.2071 -0.1400  0.1754
 6507W        W26787   4.262  15.049   3.886  0.2019 -0.1720 -0.0650
 6508W        W26788  18.167  11.687   2.415  0.0951 -0.2766 -0.1615
 6509W        W26789   3.446   9.916  10.544 -0.0016 -0.0747 -0.0052
 6510W        W26790  11.831   1.278  14.123  0.3801 -0.2091 -0.1933
 6511W        W26791  14.232  16.997  10.829 -0.1438  0.0419  0.0661
 6512W        W26792   2.618  18.783   0.164 -0.0776  0.1020 -0.0815
 6513W        W26793  16.168  11.060   3.412 -0.0598  0.0033  0.2144
 6514W        W26794  10.483  18.383   3.358  0.2491 -0.1646  0.0069
 6515W        W26795   4.765  10.390   4.064 -0.1286  0.0751 -0.3641
 6516W        W26796  18.092   1.791   4.566  0.4969 -0.2469  0.0792
 6517W        W26797   0.887  11.822  14.366 -0.1764  0.1606 -0.0523
 6518W        W26798  13.306   4.987  11.167  0.1714 -0.0708  0.0106
 6519W        W26799   3.809  16.729   1.830  0.0846  0.0305 -0.3205
 6520W        W26800  10.681   1.888   0.482  0.1743  0.1900  0.0985
 6521W        W26801   6.771   7.733  11.124  0.2799 -0.0601 -0.0013
 6522W        W26802  13.328   5.835   1.841  0.1277  0.1813  0.1025
 6523W        W26803   0.271  11.957  12.039 -0.3036  0.1643  0.1210
 6524W        W26804   5.621  12.091  11.530  0.0432  0.4593 -0.0569
 6525W        W26805  13.704  18.975  12.496 -0.2064 -0.3225 -0.0328
 6526W        W26806  16.739  15.712   1.489  0.1981 -0.2180  0.2519
 6527W        W26807  14.539   0.870   1.291  0.0915  0.2200 -0.1981
 6528W        W26808   4.869  11.358   2.607 -0.1614 -0.1298 -0.1472
 6529W        W26809  15.935  11.046   1.549  0.1355 -0.2865  0.1091
 6530W        W26810   0.135   3.928  11.312 -0.1089  0.0549  0.1128
 6531W        W26811  10.073   3.832   1.133 -0.4877  0.0894 -0.2984
 6532W        W26812  18.225  13.000   0.509  0.1297  0.0314 -0.1335
 6533W        W26813  19.131  17.279   3.671  0.3429 -0.1884  0.0236
 6534W        W26814   8.595   9.733  13.838 -0.2603  0.0652  0.1016
 6535W        W26815   0.503   8.879  12.583 -0.1164  0.3746 -0.0765
 6536W        W26816  18.872   1.641   2.886  0.0786 -0.1440 -0.1391
 6537W        W26817  18.226   1.513  11.284 -0.2255 -0.2710  0.0291
 6538W        W26818  19.040  10.249  12.201  0.0614 -0.1146  0.1371
 6539W        W26819  13.220   1.555  12.643  0.0025 -0.0064 -0.1030
 6540W        W26820  10.467  17.084   1.761 -0.3129  0.0759  0.0786
 6541W        W26821  12.862  12.813   4.797  0.0931  0.0934 -0.1237
 6542W        W26822   3.994   7.230   0.764  0.2232 -0.1341 -0.0690
 6543W        W26823  15.288  19.126   3.815 -0.0323  0.1442 -0.2016
 6544W        W26824   4.935  10.315  14.246  0.2577 -0.1974 -0.2232
 6545W        W26825   2.865   0.307  10.617  0.1668  0.1623  0.2319
 6546W        W26826  14.812   5.577   3.284  0.0701 -0.0654 -0.1180
 6547W        W26827   4.505   7.753   1.313 -0.0737 -0.1172  0.0674
 6548W        W26828  19.100  13.318  10.425  0.1479  0.3141 -0.2179
 6549W        W26829  12.478   6.044  11.521  0.2843 -0.1725  0.0350
 6550W        W26830   5.486  16.342  12.398  0.1666 -0.3197  0.0976
 6551W        W26831   8.933  15.350   3.652  0.0087  0.0767 -0.1857
 6552W        W26832   9.390   5.616  13.839 -0.1315  0.1491 -0.1327
 6553W        W26833   8.681   5.911   2.270  0.1619  0.3650 -0.3657
 6554W        W26834   1.250  13.362  12.472  0.1536  0.4624  0.0173
 6555W        W26835   9.055  13.565  13.025  0.1723 -0.0956  0.1142
 6556W        W26836   4.391   9.057  14.439 -0.1308  0.0763 -0.0019
 6557W        W26837  10.590  18.904   3.345 -0.0832 -0.0217 -0.0120
 6558W        W26838   7.736   9.463   9.597  0.5133  0.3256 -0.0739
 6559W        W26839   9.489   0.691  12.847  0.1139  0.0612 -0.0612
 6560W        W26840  14.781   7.751  12.606  0.2064  0.1591  0.0490
 6561W        W26841  13.683   7.491  11.613  0.1419  0.2123  0.2586
 6562W        W26842  11.876  18.278   1.503 -0.1090  0.1515  0.3621
 6563W        W26843   8.049  14.117  10.946  0.2718  0.2219  0.0486
 6564W        W26844  12.220  17.671   3.347  0.0344  0.0298  0.3083
 6565W        W26845  15.789   5.199   0.482  0.0145  0.1341  0.0783
 6566W        W26846  10.662   2.270   3.677  0.3590  0.0697  0.1484
 6567W        W26847  19.388   5.786   3.087 -0.1194 -0.0976 -0.0881
 6568W        W26848   0.070  17.734   2.463  0.0541  0.0475 -0.0429
 6569W        W26849   8.613   1.167   3.165 -0.1725 -0.0750 -0.0556
 6570W        W26850  16.443  13.562  10.719  0.2222 -0.0536 -0.2333
 6571W        W26851   2.969  12.843  12.394  0.0060  0.0224 -0.1559
 6572W        W26852  10.987   1.757  10.686  0.5166  0.0129  0.0235
 6573W        W26853  17.198  16.026  14.477 -0.0757  0.1571  0.1404
 6574W        W26854  14.212   3.442   1.574  0.3257  0.3496 -0.1616
 6575W        W26855  11.935  16.625  13.149 -0.3339  0.2891  0.1671
 6576W        W26856   3.196   4.996   0.735 -0.5360 -0.2051  0.1639
 6577W        W26857  12.760  17.964   5.382  0.0140  0.0337  0.1474
 6578W        W26858   2.664  12.633  10.849  0.2924  0.0840 -0.1297
 6579W        W26859   8.747  11.005   1.529 -0.0245  0.1752  0.2183
 6580W        W26860  10.723  13.780  13.742  0.0995  0.0612 -0.0110
 6581W        W26861  15.703  17.252   3.874  0.0358 -0.0662 -0.0137
 6582W        W26862   7.125   6.558  10.709 -0.1344  0.2257 -0.1533
 6583W        W26863  15.123  10.571   1.197 -0.1011 -0.0621  0.0149
 6584W        W26864   2.481   9.711  10.584  0.0013 -0.1083  0.1250
 6585W        W26865  11.635   6.219   1.978  0.0769 -0.0368 -0.2001
 6586W        W26866   1.527   5.287   0.603 -0.0246  0.1180 -0.1527
 6587W        W26867   0.901  14.312  12.403  0.0521 -0.1686 -0.0170
 6588W        W26868  11.714  18.873   1.766  0.2398 -0.1572 -0.0174
 6589W        W26869   0.161   4.279  10.972 -0.2932 -0.2199  0.3275
 6590W        W26870  17.833  16.907   4.158  0.0692 -0.1827 -0.2290
 6591W        W26871  13.846  11.031  14.310  0.1941  0.1091 -0.0058
 6592W        W26872   4.953   3.582   1.291  0.2503 -0.4587  0.0403
 6593W        W26873   7.532  15.298   2.584  0.2110  0.0353  0.0253
 6594W        W26874  12.232  10.672  13.214 -0.0109 -0.0574 -0.0947
 6595W        W26875  18.418   2.411  11.337  0.1228 -0.1019 -0.1837
 6596W        W26876   7.201  10.503   0.985  0.0765  0.1715  0.3042
 6597W        W26877  12.621   7.414   4.379  0.3179 -0.0619  0.2266
 6598W        W26878   5.715  11.744  11.891 -0.3036  0.1395 -0.3415
 6599W        W26879   4.156   9.432   0.455 -0.0798  0.0513 -0.1122
 6600W        W26880   0.583   9.936   2.088  0.2060 -0.0942 -0.2828
 6601W        W26881  16.822   5.448  13.030  0.0199 -0.0040  0.0843
 6602W        W26882  17.903  12.222   3.113 -0.1588  0.0463  0.1172
 6603W        W26883   5.169  12.952  10.953  0.0854  0.2041  0.4196
 6604W        W26884  17.853  11.988   2.636 -0.0503 -0.1360  0.0040
 6605W        W26885  10.144   0.049   3.136  0.0956 -0.1307 -0.2934
 6606W        W26886  18.203  11.031  13.347  0.4207 -0.1264  0.1237
 6607W        W26887   2.450  10.496  10.041  0.0179  0.0022 -0.3163
 6608W        W26888  16.942   8.970  12.561 -0.0458 -0.2937  0.0969
 6609W        W26889  11.667  13.512  10.104 -0.2587 -0.1391  0.0438
 6610W        W26890  11.038  12.742  13.406 -0.1420 -0.3169 -0.1478
 6611W        W26891   3.082  14.982   0.860  0.1341 -0.2560 -0.1666
 6612W        W26892   2.978  11.118  11.897  0.2163  0.1522 -0.1309
 6613W        W26893  16.216   7.174  12.392 -0.2181 -0.3847  0.2093
 6614W        W26894   3.121   3.272  13.222 -0.2706 -0.0448 -0.0892
 6615W        W26895  16.095   5.199  10.281  0.2852 -0.0573  0.1398
 6616W        W26896   8.053   8.872   0.056 -0.0844  0.4926 -0.0597
 6617W        W26897  13.043  11.492   2.631  0.0528 -0.1624 -0.0835
 6618W        W26898   5.362  10.073  12.157  0.3888 -0.0772  0.0956
 6619W        W26899  15.065   7.345  11.198 -0.0891 -0.1993 -0.1206
 6620W        W26900  14.065  18.971  12.925 -0.3242 -0.1183  0.5758
 6621W        W26901   1.456  10.310   0.008  0.0358  0.0483  0.1412
 6622W        W26902  12.448   9.543   2.142 -0.1566 -0.1723  0.1370
 6623W        W26903  19.153   0.897   0.398 -0.1021  0.2691 -0.1605
 6624W        W26904  17.029   7.606   4.141  0.0463  0.1323 -0.2104
 6625W        W26905   7.860   3.416  12.395 -0.1362  0.0246 -0.1377
 6626W        W26906   7.707  17.542  13.132  0.3424 -0.2262  0.2004
 6627W        W26907  18.988   0.486  13.560  0.0283  0.0128 -0.1692
 6628W        W26908   6.438   6.510   3.519  0.1215  0.2275 -0.1124
 6629W        W26909   1.969  12.114  11.060 -0.2867  0.1043  0.1164
 6630W        W26910   0.394   0.345  10.833 -0.0692  0.0001  0.2144
 6631W        W26911   2.550   2.310  13.917  0.3658  0.3152  0.2498
 6632W        W26912   9.467   1.020   0.641  0.2292 -0.1250  0.2857
 6633W        W26913  17.506  13.154   2.754  0.0622  0.1647 -0.0679
 6634W        W26914  12.888  14.630  14.176  0.0093 -0.0606  0.1047
 6635W        W26915   7.573  14.651  11.703 -0.0843 -0.3289  0.0019
 6636W        W26916   0.439   1.380   4.016 -0.1834 -0.0614  0.2820
 6637W        W26917   6.814   7.610  13.436  0.0057 -0.0102 -0.4265
 6638W        W26918  10.145  13.529   3.414 -0.1715 -0.2275  0.0337
 6639W        W26919   0.379  16.595   1.672  0.1288  0.2975  0.2350
 6640W        W26920  12.428   0.092  10.502  0.0286 -0.3764  0.0156
 6641W        W26921  15.273   7.973   0.424 -0.2904 -0.1021  0.1771
 6642W        W26922   2.093   1.299   3.601  0.0949 -0.2880  0.1164
 6643W        W26923   4.483   4.387  12.499  0.1312 -0.0533  0.0300
 6644W        W26924   3.757   5.244  14.316  0.1779 -0.1572 -0.0965
 6645W        W26925  15.781   3.098   3.236 -0.3892 -0.3856  0.0929
 6646W        W26926  12.093  15.116  13.784  0.1567  0.0090 -0.3055
 6647W        W26927   5.997   6.965   5.038 -0.0758 -0.1156  0.1556
 6648W        W26928   4.928   6.433  11.727 -0.1036 -0.0572 -0.2770
 6649W        W26929   4.652  18.190  13.239 -0.1200  0.1168  0.1879
 6650W        W26930  17.344  12.837   9.934 -0.1090  0.3654  0.0009
 6651W        W26931   5.370   7.122   3.252  0.0949  0.0882 -0.0045
 6652W        W26932   0.551  16.064  13.942 -0.1077  0.1954  0.0441
 6653W        W26933  16.063   4.523  11.565  0.0975  0.3585  0.2663
 6654W        W26934   9.869   3.549   1.829  0.0991  0.0332 -0.0620
 6655W        W26935  10.926   3.177   3.799 -0.1290 -0.2651  0.0358
 6656W        W26936  15.615  11.162  14.092  0.1874 -0.0407 -0.0469
 6657W        W26937  13.751  15.928  11.918 -0.2590  0.1227 -0.4117
 6658W        W26938   0.773   8.734   3.406 -0.1143 -0.1087 -0.1315
 6659W        W26939   8.490  13.293   1.615 -0.1251  0.2279  0.2131
 6660W        W26940   4.302   0.439  14.497 -0.0650  0.0389 -0.3911
 6661W        W26941  17.825   7.514  13.440  0.1129  0.0108  0.2249
 6662W        W26942  15.597   8.232   2.738  0.1079 -0.2279  0.2941
 6663W        W26943  15.963   9.749  10.275 -0.0258 -0.1306  0.0161
 6664W        W26944  14.879   9.205   9.886 -0.0022  0.2929  0.1494
 6665W        W26945  11.674  14.096  14.342 -0.1782 -0.1742  0.3357
 6666W        W26946   0.602  16.905   2.452 -0.0274  0.0652  0.0117
 6667W        W26947   9.588   1.335   2.393  0.0074 -0.0658 -0.1041
 6668W        W26948  14.291   8.103  13.954  0.0322  0.2587 -0.1014
 6669W        W26949   8.577   3.402  11.444  0.0700 -0.2747  0.0502
 6670W        W26950  11.087  13.021  12.022 -0.2117  0.1183  0.3471
 6671W        W26951   1.622   2.200  13.053 -0.0844 -0.0315  0.2531
 6672W        W26952  13.054  15.624  10.724 -0.1944 -0.0601 -0.0847
 6673W        W26953   8.787  13.291  12.062 -0.0452 -0.0572 -0.2942
 6674W        W26954  15.708  19.252   0.224 -0.0267 -0.2049  0.0357
 6675W        W26955  18.759  15.663   0.800 -0.0249 -0.1189  0.1493
 6676W        W26956   8.322   4.759  11.768 -0.2352 -0.0191  0.0140
 6677W        W26957   9.048   5.369  14.101  0.0537 -0.0119 -0.0717
 6678W        W26958  18.997   5.000   3.192  0.2035  0.0702  0.0660
 6679W        W26959  18.466   6.835   1.807  0.0340 -0.1692  0.0596
 6680W        W26960   7.845  17.571   4.052 -0.0962 -0.0200 -0.0825
 6681W        W26961   8.642  14.095  11.711  0.3130 -0.0242 -0.2129
 6682W        W26962   9.721  16.188  12.773 -0.1541  0.5255 -0.0996
 6683W        W26963  14.908   7.895   1.403 -0.1390  0.1780  0.1166
 6684W        W26964   1.910   7.983   2.880 -0.2980  0.1949 -0.1286
 6685W        W26965  12.785  12.629   0.135 -0.1174 -0.0500 -0.1970
 6686W        W26966  12.398  18.564  11.974 -0.0995 -0.1337 -0.0586
 6687W        W26967   9.423  15.834   4.111  0.0022  0.1484 -0.1599
 6688W        W26968   9.201   4.908  11.078  0.2100 -0.0369 -0.0205
 6689W        W26969  10.249  12.042  11.854 -0.0729 -0.0212  0.2443
 6690W        W26970  18.853   1.354  13.477  0.2045  0.0147 -0.3095
 6691W        W26971  16.870   0.505   0.401  0.3104 -0.0978 -0.0187
 6692W        W26972  11.982   9.087   1.669 -0.2064  0.2539 -0.1108
 6693W        W26973  15.536  13.376  11.059 -0.4573  0.0046  0.1808
 6694W        W26974   4.732   1.612  12.632  0.1154 -0.1189  0.2626
 6695W        W26975   7.291   8.337   3.493 -0.0161  0.2933 -0.0249
 6696W        W26976   7.332  15.022  10.287  0.0781 -0.2380 -0.1521
 6697W        W26977   1.721  14.269  13.175  0.0862 -0.0384 -0.1412
 6698W        W26978   9.226   3.792  13.091 -0.3387  0.0808 -0.0751
 6699W        W26979   7.009   8.812   2.073 -0.0377  0.2963 -0.2658
 6700W        W26980   2.195   1.675   1.560  0.0437  0.3580  0.0474
 6701W        W26981   7.279   1.256   3.445  0.1572  0.0855 -0.0398
 6702W        W26982   9.020   0.427  13.413  0.1231  0.4064  0.0398
 6703W        W26983   6.981   2.435  11.437  0.0899 -0.1936  0.1170
 6704W        W26984   4.105  11.828  10.431  0.0496 -0.0277  0.0917
 6705W        W26985   3.421   8.030   3.276 -0.1164 -0.1878  0.1166
 6706W        W26986   7.884  12.950   2.128 -0.0362  0.0203 -0.2412
 6707W        W26987  16.860  10.689  14.212 -0.2209  0.0302  0.1403
 6708W        W26988  10.056  18.056   0.512  0.1921  0.2247 -0.0682
 6709W        W26989   0.074  11.359   0.786 -0.1072  0.1304  0.0653
 6710W        W26990   9.610   7.819  10.727  0.2348  0.0576 -0.1955
 6711W        W26991   4.818   8.720  12.214 -0.1219  0.3817  0.0743
 6712W        W26992   0.816  18.982  14.028  0.2146 -0.0857 -0.0948
 6713W        W26993   5.635   4.789   1.989  0.0951 -0.0243  0.2955
 6714W        W26994   6.537  16.824  14.393  0.3520 -0.2300  0.2144
 6715W        W26995   5.455  18.876  11.252 -0.1399 -0.0324  0.0129
 6716W        W26996   6.969   4.751  13.650  0.2512 -0.2524  0.0188
 6717W        W26997  18.370   3.983   3.668 -0.1254 -0.1318  0.0313
 6718W        W26998   8.429   1.067   0.939  0.0676 -0.0616 -0.1972
 6719W        W26999  11.834   3.763   1.917  0.0636  0.0784  0.2909
 6720W        W27000  17.956  17.077   0.482  0.0880  0.2618  0.0273
 6721W        W27001  15.015  10.301   0.382  0.2005  0.1001  0.1066
 6722W        W27002   7.343  18.048  13.505 -0.0040 -0.2487 -0.0827
 6723W        W27003   9.809   7.299   0.697  0.0484  0.0011  0.1183
 6724W        W27004  18.040  17.473   2.067  0.1189 -0.0685 -0.0994
 6725W        W27005   1.568  17.429   1.434 -0.0527  0.1849  0.0753
 6726W        W27006  17.998   1.853   2.846  0.1299 -0.2413  0.0479
 6727W        W27007  12.878   2.412   1.005 -0.2074 -0.0661  0.1302
 6728W        W27008   2.966   5.151  12.456  0.1674 -0.0934  0.3907
 6729W        W27009   4.263   7.007  14.102 -0.2128  0.3019  0.2005
 6730W        W27010  18.846   6.866  10.484  0.0942 -0.1037  0.0517
 6731W        W27011  15.744  14.936   2.778  0.3147 -0.1556 -0.3162
 6732W        W27012   8.393  17.483  11.955 -0.0684 -0.0618  0.1484
 6733W        W27013  16.853  14.117  12.026  0.2198 -0.3264  0.3390
 6734W        W27014   8.252  17.018   1.418  0.3314 -0.0832 -0.3670
 6735W        W27015  19.368   7.579   0.122 -0.0915  0.1139  0.0204
 6736W        W27016  10.069   8.925  10.156  0.3756  0.0828 -0.2013
 6737W        W27017  19.102  18.153   5.321 -0.2934  0.3007 -0.1566
 6738W        W27018   7.868   3.167   4.000  0.1924 -0.0667  0.3561
 6739W        W27019  14.679  15.168   0.043  0.0047 -0.5239 -0.0183
 6740W        W27020   5.328   3.547   4.317 -0.0638 -0.2457  0.2294
 6741W        W27021  19.308   7.594  12.678 -0.1631  0.1942  0.0929
 6742W        W27022  18.514   9.748   2.909 -0.1747  0.1453  0.1237
 6743W        W27023   3.541  17.927   3.034 -0.1513 -0.2395 -0.2180
 6744W        W27024  13.705  15.630  12.845  0.2101 -0.5124 -0.3162
 6745W        W27025   8.201   0.544   0.177  0.1041 -0.3639 -0.3938
 6746W        W27026  16.325  11.974  10.281  0.2449  0.3581  0.1162
 6747W        W27027   4.501  17.014  10.379 -0.0712  0.0307  0.1722
 6748W        W27028   7.063   9.242   3.012  0.1742  0.2736  0.1045
 6749W        W27029   1.094  19.211  12.200 -0.1816  0.1166 -0.2028
 6750W        W27030  11.761  15.169  10.607 -0.0081  0.0683 -0.1900
 6751W        W27031  11.587   6.870  13.090  0.1112 -0.1058  0.1958
 6752W        W27032   9.886  17.513   0.534  0.1066  0.2984  0.1780
 6753W        W27033   9.319  15.782   2.802 -0.1794 -0.0855  0.1160
 6754W        W27034   0.223  13.167  14.348 -0.0868  0.0296 -0.0370
 6755W        W27035  13.171  14.291  13.387 -0.2245  0.2361 -0.0226
 6756W        W27036  10.854  16.204  10.807 -0.2220  0.0037 -0.1415
 6757W        W27037  16.901   7.325  11.761 -0.0545  0.0485 -0.2666
 6758W        W27038   9.467   5.887  10.703  0.1578  0.0999  0.1481
 6759W        W27039  17.606   2.986  11.551 -0.1808  0.1065 -0.4299
 6760W        W27040  13.076   0.409   3.059 -0.0328  0.1460  0.1245
 6761W        W27041  13.320  13.196  14.388  0.1337  0.3558 -0.0743
 6762W        W27042   9.596  11.437  12.855  0.1518 -0.2323  0.3072
 6763W        W27043  14.598   1.097   0.736 -0.2407  0.0506  0.4216
 6764W        W27044   4.616   9.693   1.763  0.2091 -0.3248  0.4702
 6765W        W27045  17.087   0.231  10.657 -0.1977  0.0422 -0.0806
 6766W        W27046  19.157   7.658   0.962  0.2174  0.0646 -0.0427
 6767W        W27047   7.008  11.000  11.330  0.1159  0.0957  0.2121
 6768W        W27048  15.753   9.970  12.936  0.0724 -0.1012 -0.2754
 6769W        W27049   4.190   8.746   1.943  0.0812  0.2276  0.3206
 6770W        W27050   1.010   6.661   1.821 -0.0230 -0.0729  0.2558
 6771W        W27051   2.992  19.116   3.767  0.0125  0.3991 -0.0922
 6772W        W27052  15.461   3.058  12.638 -0.0139  0.1492  0.0002
 6773W        W27053  14.587   1.750   3.484  0.2153  0.1213  0.0888
 6774W        W27054  18.195  10.073  13.147 -0.1139  0.0733 -0.3897
 6775W        W27055   5.630  14.375  13.915 -0.1194 -0.1272 -0.1773
 6776W        W27056   2.836   8.452   1.673  0.0349 -0.0873 -0.2269
 6777W        W27057   8.708  10.114  11.229  0.0728  0.2433  0.0877
 6778W        W27058   2.460   7.012  13.077 -0.1350 -0.0125 -0.0890
 6779W        W27059   8.947   1.003   0.670 -0.1223  0.1245  0.1388
 6780W        W27060  18.851  15.769   1.766  0.1401 -0.0520 -0.0681
 6781W        W27061   1.712  17.411   3.299 -0.0364 -0.0795 -0.1839
 6782W        W27062  14.716   1.314   1.594  0.2237 -0.0684 -0.0675
 6783W        W27063   1.808  11.956   2.682  0.0945  0.1403  0.0375
 6784W        W27064  18.556   7.266  11.621  0.0325  0.1698  0.1049
 6785W        W27065  10.309  14.021   3.395 -0.2651 -0.4605 -0.1216
 6786W        W27066  11.813  17.481   0.606 -0.1451 -0.0298  0.0025
 6787W        W27067   0.146  15.153  11.642 -0.1135 -0.2052  0.0773
 6788W        W27068   1.570  16.673  13.566  0.0477  0.1292  0.2758
 6789W        W27069   2.329   2.158   0.857  0.0734 -0.0746  0.0746
 6790W        W27070   6.389   7.362   2.480  0.1901 -0.2908 -0.1232
 6791W        W27071  16.762  10.391   1.719  0.3940  0.0761  0.1029
 6792W        W27072   2.527  11.140  13.367 -0.0528 -0.0793 -0.1927
 6793W        W27073   1.365  18.198  10.444 -0.1986  0.1609  0.1772
 6794W        W27074  17.598   4.373  11.042  0.0121 -0.0504 -0.0014
 6795W        W27075   9.392  10.920  13.699 -0.3208  0.1608  0.0758
 6796W        W27076   2.278   5.896   2.320  0.2803  0.1336 -0.0775
 6797W        W27077  14.461   9.617  13.425  0.0501  0.2192 -0.1115
 6798W        W27078   4.879  12.009   3.526  0.1166  0.0022  0.0090
 6799W        W27079   3.933  16.288   2.202 -0.1755 -0.2313 -0.1450
 6800W        W27080   7.743   5.895  11.318 -0.2449 -0.3391  0.1116
 6801W        W27081  11.934   4.100   4.181 -0.3673  0.0594 -0.1017
 6802W        W27082   0.999  19.177   2.653 -0.3469  0.2134  0.0187
 6803W        W27083   7.201   0.288   1.787  0.2426  0.2776  0.1773
 6804W        W27084   1.007  12.249   1.092 -0.1274  0.0812 -0.1826
 6805W        W27085   1.025   4.187  14.476  0.1578 -0.0438  0.0813
 6806W        W27086   5.706  15.100   2.246  0.3353 -0.2029  0.2128
 6807W        W27087   8.632   5.565   3.543  0.0390  0.3785 -0.0386
 6808W        W27088  18.617  15.801   2.769 -0.1503  0.2107  0.1349
 6809W        W27089   2.735  12.270   3.383 -0.1717  0.2603  0.0517
 6810W        W27090   2.966   6.210  11.516  0.1765  0.0410 -0.2211
 6811W        W27091   2.380   0.669  11.774  0.0685  0.1213 -0.0498
 6812W        W27092   9.890   9.406   2.865 -0.2358 -0.0375 -0.1370
 6813W        W27093   4.305  19.383  11.370  0.1806  0.0258  0.2379
 6814W        W27094  18.923  17.002  10.227  0.0914  0.2799 -0.2242
 6815W        W27095  16.283  12.247   3.816  0.1054  0.5225  0.1098
 6816W        W27096   5.643   0.446  14.004  0.1652  0.1325  0.2199
 6817W        W27097   9.004   3.375  12.347  0.2793 -0.1270  0.4209
 6818W        W27098   5.976   1.613   1.639 -0.3206 -0.2896 -0.0062
 6819W        W27099  14.107   6.364   2.131  0.0316  0.2252 -0.2047
 6820W        W27100  11.555  11.897  10.438 -0.2381 -0.1644  0.1205
 6821W        W27101   5.257  13.522  11.082 -0.1342  0.0021  0.1071
 6822W        W27102  18.156  15.904   3.973 -0.0891 -0.1237 -0.0410
 6823W        W27103   1.424   6.466   3.146 -0.1619  0.1242 -0.4010
 6824W        W27104   7.330   2.839  11.043  0.1273  0.3291  0.0943
 6825W        W27105   8.602   0.396   1.863  0.0192  0.1696  0.0574
 6826W        W27106   4.076   8.981   2.829 -0.1059 -0.2423  0.1031
 6827W        W27107  14.157  10.541   9.765 -0.1649 -0.0087 -0.0980
 6828W        W27108   9.588   8.584  13.341  0.1929 -0.2444 -0.0537
 6829W        W27109  14.354   8.028   2.229  0.0331  0.2922  0.0159
 6830W        W27110  17.703   3.902   0.597 -0.2313 -0.0623  0.2306
 6831W        W27111   8.949   3.934   1.986  0.0771  0.2219  0.2693
 6832W        W27112   9.997   7.312  14.419  0.1672 -0.2808  0.1455
 6833W        W27113  18.784   3.965  13.570  0.0465  0.0721 -0.0613
 6834W        W27114   4.068   3.271   1.676 -0.0676  0.1843 -0.0860
 6835W        W27115  16.542  18.186   3.259  0.1273 -0.4024  0.0953
 6836W        W27116  11.794   6.255   3.271 -0.0391  0.0437 -0.0918
 6837W        W27117   5.201  15.618   0.552  0.0385  0.0405 -0.2817
 6838W        W27118  15.653  11.476   1.632  0.2018  0.0182 -0.1002
 6839W        W27119  16.935   8.851  10.691 -0.2601  0.0726  0.2566
 6840W        W27120  10.254  13.322  14.454  0.0216 -0.1564  0.0380
 6841W        W27121  10.581  17.059   1.078  0.0007 -0.1171 -0.1026
 6842W        W27122   9.656  18.797   1.721 -0.2236 -0.1754 -0.1897
 6843W        W27123   5.170   1.870  12.382 -0.1169 -0.4560 -0.0265
 6844W        W27124  16.543  16.305  13.904  0.1500 -0.1338  0.0559
 6845W        W27125   9.526   1.097   5.369 -0.0827  0.1690  0.1877
 6846W        W27126   4.674  10.172   5.398  0.4505 -0.0016  0.2343
 6847W        W27127  13.634   4.695   1.665 -0.1161 -0.6264 -0.2079
 6848W        W27128  11.625  16.563  11.126  0.2901 -0.0247  0.1937
 6849W        W27129  16.503   6.779   3.129 -0.2038 -0.0068 -0.2923
 6850W        W27130   5.361  14.052   3.638  0.1078  0.0977  0.1703
 6851W        W27131   6.848   7.694   2.281  0.0477 -0.2246 -0.0158
 6852W        W27132   9.348  12.139   2.928  0.1194 -0.1046  0.2605
 6853W        W27133  10.752   5.173   2.293  0.2941  0.0469 -0.1452
 6854W        W27134   6.822   9.190   0.426 -0.4137  0.0745 -0.1517
 6855W        W27135   5.848  16.686  12.298  0.1820  0.0749 -0.1171
 6856W        W27136   7.200  18.245   5.274 -0.1385 -0.0039  0.1715
 6857W        W27137   7.531  18.454   3.379 -0.2233 -0.0108  0.0512
 6858W        W27138   6.798   1.480  14.289  0.0396 -0.4409 -0.0621
 6859W        W27139   3.616  15.401   3.226  0.2888  0.3207  0.0493
 6860W        W27140   5.335  13.862   1.677 -0.2987  0.1506 -0.0858
 6861W        W27141  11.757   6.862  14.002  0.1810 -0.3706  0.0457
 6862W        W27142   9.287   4.483   3.881  0.4988  0.4704 -0.2414
 6863W        W27143  11.913   7.840   1.997 -0.0360  0.0988 -0.1168
 6864W        W27144  10.894  10.156  11.688  0.0296 -0.0656  0.1503
 6865W        W27145  12.071  15.083  14.271  0.0568 -0.3228  0.3081
 6866W        W27146  18.766  13.717  12.266  0.1965  0.0798 -0.0171
 6867W        W27147  17.148   6.251   0.243  0.0506 -0.0015  0.1215
 6868W        W27148   1.061   4.873   3.297  0.1490  0.1271 -0.2308
 6869W        W27149   6.699   8.918   3.437 -0.2014  0.1801 -0.0018
 6870W        W27150   6.590  11.756  13.127  0.1077  0.0727 -0.1769
 6871W        W27151  11.509   2.622   3.879  0.1317  0.0525 -0.0029
 6872W        W27152  19.075   4.521  13.291  0.2813  0.0353 -0.2327
 6873W        W27153   2.011   8.294  13.534 -0.4958 -0.0395 -0.3623
 6874W        W27154   1.654   9.458   3.335  0.0584 -0.1320 -0.0194
 6875W        W27155   7.069  16.855  13.378  0.1332 -0.3710  0.1122
 6876W        W27156   9.515   8.056  13.561 -0.0388 -0.2330 -0.0378
 6877W        W27157   7.853  11.109  11.825  0.0719 -0.1078  0.2398
 6878W        W27158  14.209   2.060  12.335 -0.3042 -0.2861  0.0360
 6879W        W27159  17.343   8.392   0.400  0.1388  0.3386 -0.0411
 6880W        W27160  12.309  12.688   2.330 -0.2110  0.1870 -0.4193
 6881W        W27161  11.858   4.337   1.917 -0.1202 -0.1148  0.0654
 6882W        W27162   5.286   3.116   1.474  0.3218 -0.0599  0.3205
 6883W        W27163   2.242  18.026   4.299 -0.0223  0.0112  0.1009
 6884W        W27164   8.521  19.242   0.587  0.0622 -0.1531 -0.1149
 6885W        W27165   5.681   9.300  13.278  0.4578 -0.1610  0.3782
 6886W        W27166   5.596   8.490   9.398  0.2183  0.3434  0.3547
 6887W        W27167   2.929  10.752  14.468  0.0609  0.0424 -0.1223
 6888W        W27168   3.499   2.471   4.145 -0.2127 -0.0796  0.0964
 6889W        W27169  11.209   9.585  14.304  0.0831 -0.1710 -0.2407
 6890W        W27170  13.609  10.525   0.715 -0.0934 -0.4121  0.0823
 6891W        W27171  18.380   2.943  13.069 -0.2928  0.0257 -0.0133
 6892W        W27172   2.962  17.473  11.738 -0.0767 -0.0008 -0.0807
 6893W        W27173  16.011   5.445  11.573 -0.0882 -0.1178 -0.2510
 6894W        W27174  15.062  18.051  13.426 -0.0967  0.3412  0.2950
 6895W        W27175  12.424   5.536   3.285  0.0315 -0.1652 -0.0391
 6896W        W27176   8.966   1.855   0.936  0.2149 -0.1473  0.2842
 6897W        W27177   4.139  15.060  11.790 -0.5052  0.0785 -0.1411
 6898W        W27178   0.230   1.437   0.456 -0.1383  0.0264 -0.0730
 6899W        W27179  15.539   3.550   4.016 -0.4098  0.0048  0.0011
 6900W        W27180  10.263  17.987   0.975 -0.3281  0.1344  0.0019
 6901W        W27181  15.359  16.518  14.370  0.0542  0.4398  0.1513
 6902W        W27182  10.690  11.730   3.220  0.0529  0.0707  0.0945
 6903W        W27183   2.866  11.487   3.174  0.1909  0.2010  0.0505
 6904W        W27184   3.697   0.931   3.343 -0.1356  0.0602 -0.0840
 6905W        W27185  17.574   7.550   2.624 -0.1690 -0.0303  0.1508
 6906W        W27186   2.125   5.482   2.656 -0.2450  0.0078 -0.2885
 6907W        W27187   8.366   5.780   1.845  0.2846  0.1738 -0.0089
 6908W        W27188   3.868   6.482   3.570 -0.0045 -0.1072 -0.1066
 6909W        W27189   3.569   7.805   1.756 -0.2558  0.0477  0.2272
 6910W        W27190  14.862   2.103   5.230 -0.0638  0.2254 -0.1191
 6911W        W27191  11.844   2.572   2.511 -0.1040  0.3116  0.0212
 6912W        W27192  12.385   5.263   1.178  0.1506 -0.0936  0.1571
 6913W        W27193   3.902  12.733  10.247 -0.1594 -0.2315 -0.1878
 6914W        W27194   2.133   9.081   1.813 -0.1636 -0.0582  0.3167
 6915W        W27195  11.850   2.249   1.932 -0.3204 -0.2946  0.1609
 6916W        W27196   5.903  18.100  11.311 -0.0562 -0.0681  0.1415
 6917W        W27197  15.651  10.889   2.842  0.1094 -0.0655  0.0260
 6918W        W27198   5.036  10.637   4.475  0.0638  0.1124 -0.0399
 6919W        W27199   9.732  10.187   1.949  0.0242 -0.0761 -0.0586
 6920W        W27200  18.243   0.826   2.205  0.1366  0.2010  0.0991
 6921W        W27201   7.079  17.379  12.154 -0.0744 -0.0929 -0.0061
 6922W        W27202  16.144  12.277   0.078 -0.0122 -0.3834 -0.1198
 6923W        W27203  15.478   5.645   0.563  0.0626 -0.0907  0.0683
 6924W        W27204   0.842   0.285  13.411 -0.0482  0.0086  0.0147
 6925W        W27205   2.427  13.314  11.297 -0.2258  0.2182  0.0240
 6926W        W27206  18.127   9.332   0.766  0.0559 -0.1825  0.1226
 6927W        W27207   9.443  17.986  13.327  0.1448  0.2255 -0.2738
 6928W        W27208   4.349  12.856   1.491 -0.3646 -0.1079  0.3345
 6929W        W27209  10.310   8.607  13.639 -0.0603  0.0874 -0.1230
 6930W        W27210   5.493  15.408   9.954 -0.0116 -0.2396  0.3672
 6931W        W27211   3.954   4.267  11.488  0.1698 -0.0144  0.1299
 6932W        W27212  18.465   5.788   2.093 -0.2378 -0.1681  0.0606
 6933W        W27213  17.025   5.222   1.722 -0.0407  0.1158  0.0273
 6934W        W27214   4.723  19.258   2.480  0.1814 -0.0834 -0.3005
 6935W        W27215  19.041  14.496   2.721 -0.2416  0.1223 -0.4801
 6936W        W27216  17.427  15.231  11.670 -0.0086 -0.0447 -0.1716
 6937W        W27217   1.157  12.387   1.837 -0.2129  0.1501 -0.1677
 6938W        W27218   5.078   9.131   0.620 -0.1036  0.3389 -0.3996
 6939W        W27219   9.262   8.929  13.347 -0.0715 -0.2337  0.4691
 6940W        W27220  16.180  16.711  11.036  0.0022  0.1513 -0.0494
 6941W        W27221  15.627   3.071   3.794 -0.0696 -0.5799 -0.0584
 6942W        W27222  11.113   2.094  11.913  0.1272  0.5311 -0.4515
 6943W        W27223  15.581  14.961   0.509  0.1125 -0.2216  0.0908
 6944W        W27224  15.881   9.722  10.849 -0.6112 -0.0946 -0.0721
 6945W        W27225   9.158  10.947   3.634 -0.2305 -0.3138  0.1233
 6946W        W27226   6.805  18.789  11.939  0.0385  0.3293  0.1006
 6947W        W27227  16.493  14.623   3.175 -0.0689  0.0521 -0.0849
 6948W        W27228   5.730  19.251  10.036  0.0614  0.1280  0.0934
 6949W        W27229  10.064  15.569  11.816  0.1822 -0.3129 -0.1852
 6950W        W27230  11.167  13.926   3.914  0.0380 -0.1102  0.1267
 6951W        W27231  15.319  17.217  14.476 -0.1902 -0.0904  0.2497
 6952W        W27232   1.879   6.214   4.156 -0.0393  0.1014  0.1622
 6953W        W27233   8.034   5.629   2.864  0.1431  0.1666 -0.2554
 6954W        W27234  19.401  14.645  13.890  0.2497 -0.0391  0.3126
 6955W        W27235  12.989   9.189  14.206  0.3058 -0.1257  0.2815
 6956W        W27236  12.681   0.355   2.769  0.0325 -0.0977 -0.0992
 6957W        W27237  17.068   5.193   0.669 -0.0845  0.4508  0.1622
 6958W        W27238  15.600  10.591   3.861 -0.0314  0.4090 -0.1165
 6959W        W27239   1.458   2.156   2.491  0.1608 -0.1058 -0.0342
 6960W        W27240   1.032   0.575  12.907  0.0399  0.3964 -0.0638
 6961W        W27241   6.373   7.807   2.119 -0.0887 -0.3407  0.0392
 6962W        W27242  11.332   6.895   3.520  0.1063 -0.2938  0.2521
 6963W        W27243   2.307  12.672   0.946  0.2443  0.1389  0.0266
 6964W        W27244   8.595  19.004  12.774 -0.3209  0.0199  0.1647
 6965W        W27245   1.502   8.742  10.695  0.1967 -0.0035  0.0362
 6966W        W27246  12.383  14.871  11.123  0.0010  0.0538  0.2542
 6967W        W27247  16.151  15.927  12.569 -0.0520  0.2589  0.0324
 6968W        W27248  17.678   9.803   2.817 -0.3069  0.0051  0.1798
 6969W        W27249  17.846  17.998   2.756  0.1255 -0.1649 -0.0747
 6970W        W27250   0.418   6.869  13.683 -0.0472 -0.0937 -0.1755
 6971W        W27251  19.197  12.396   2.513 -0.2384 -0.3587 -0.2270
 6972W        W27252  12.954  12.783   1.088 -0.0307  0.1674  0.1316
 6973W        W27253  15.784  18.153   3.010  0.2448 -0.0163  0.2303
 6974W        W27254  10.897  11.474  14.457 -0.0914 -0.1587 -0.0630
 6975W        W27255   7.773  13.710  11.067 -0.0430 -0.0468  0.1287
 6976W        W27256  11.620   8.292   0.957 -0.1759 -0.4337 -0.0088
 6977W        W27257   3.516   5.476   4.501 -0.1292  0.0461  0.1411
 6978W        W27258   0.143  17.343  11.420  0.1292  0.3167  0.2880
 6979W        W27259   4.416  10.137  10.968  0.0931 -0.0799  0.0255
 6980W        W27260  15.354   5.307   3.693 -0.1869  0.2848  0.2063
 6981W        W27261  19.217  13.515   0.631  0.0135  0.0524 -0.0062
 6982W        W27262   4.308  12.311  10.400 -0.0494 -0.1236  0.2014
 6983W        W27263   1.514  11.704   8.958 -0.2499  0.0030  0.1042
 6984W        W27264   7.625   7.103  12.568 -0.0854 -0.0743 -0.0813
 6985W        W27265  16.617  13.781   2.009  0.1939 -0.1434  0.1218
 6986W        W27266  13.093   9.218  11.174  0.1220 -0.1587 -0.4207
 6987W        W27267   2.628  14.279  14.122  0.0288  0.1620 -0.1797
 6988W        W27268   5.141  12.580   2.435 -0.2147  0.0141 -0.1113
 6989W        W27269   0.261   4.090   2.497  0.0441  0.2594  0.0989
 6990W        W27270  14.115  11.632  12.310  0.2291  0.0166  0.0057
 6991W        W27271   9.685  15.969   1.955  0.0316 -0.2364  0.1406
 6992W        W27272  10.601  10.831   1.241  0.2428  0.2153  0.1096
 6993W        W27273  18.289  16.907  12.305 -0.2686 -0.1362  0.1363
 6994W        W27274  15.021  10.752   0.728 -0.1012 -0.0424 -0.0411
 6995W        W27275  13.588   4.199   1.605  0.0375 -0.1541 -0.0149
 6996W        W27276  17.001  17.631  12.666  0.2506  0.0348  0.2090
 6997W        W27277   5.840   6.694  11.956 -0.1772  0.3308  0.1978
 6998W        W27278  10.388  18.457   2.217 -0.3687 -0.4413 -0.0694
 6999W        W27279  10.073  10.195  12.147 -0.0430 -0.1683 -0.0236
 7000W        W27280   1.641   5.379   4.855 -0.1886  0.1791  0.0015
 7001W        W27281  11.826   0.424   3.238 -0.3182  0.3811  0.0938
 7002W        W27282   0.760   6.534   3.240 -0.3238 -0.3562  0.2469
 7003W        W27283   1.246  14.519  13.997 -0.0769 -0.0365 -0.0842
 7004W        W27284   1.974   4.984   1.996  0.0081 -0.1271  0.0933
 7005W        W27285   0.723   1.097   3.133  0.1588 -0.0413  0.1650
 7006W        W27286  19.354  15.983  11.142  0.2012  0.1307 -0.0348
 7007W        W27287  18.298  14.193   3.873 -0.2703 -0.0818 -0.2046
 7008W        W27288  15.477   5.142  13.107  0.0366  0.1072  0.0942
 7009W        W27289   6.429  18.097  13.280  0.4868 -0.0717  0.1530
 7010W        W27290  11.217  18.680  13.149  0.0122  0.0835 -0.2105
 7011W        W27291  17.252  14.765   1.402 -0.1969 -0.0320  0.1278
 7012W        W27292   4.452  14.826  12.198 -0.3938  0.0696  0.0559
 7013W        W27293  17.367   5.730  10.999 -0.0746  0.2873 -0.2346
 7014W        W27294   6.182   1.112  11.234 -0.1181 -0.2541 -0.0708
 7015W        W27295   4.751  11.836  11.011  0.0068 -0.4066 -0.1892
 7016W        W27296   9.015  15.360   2.805  0.2321  0.4925 -0.0304
 7017W        W27297  18.381   3.280   0.296 -0.0071 -0.0938  0.1239
 7018W        W27298  12.738   8.211   5.039 -0.0566 -0.2089  0.1005
 7019W        W27299   9.807  10.917  13.072  0.2026  0.0334 -0.0306
 7020W        W27300   9.070   8.976   0.364 -0.1599 -0.0513 -0.2254
 7021W        W27301   6.849   1.006   4.097 -0.1390 -0.1221 -0.1011
 7022W        W27302   9.341   9.776  11.816 -0.0331  0.2066  0.1076
 7023W        W27303   8.870   3.496   2.137 -0.0084  0.0551 -0.1545
 7024W        W27304  18.274   9.889  11.391  0.3070 -0.1701 -0.4799
 7025W        W27305  10.487   7.648  10.652  0.0331 -0.2467 -0.1536
 7026W        W27306   8.849   3.143   2.791  0.0735 -0.1420 -0.2657
 7027W        W27307  13.664   8.410   3.574 -0.2057 -0.0327  0.0105
 7028W        W27308   7.253   0.886   3.807 -0.1697 -0.0398  0.0661
 7029W        W27309  11.157   7.055  12.373  0.0391 -0.1548 -0.1705
 7030W        W27310   9.635   1.864   3.254  0.0932  0.1305  0.5115
 7031W        W27311  18.803   1.398  11.866 -0.0178  0.1852 -0.1312
 7032W        W27312  18.466   7.003   3.282 -0.0759 -0.0580  0.0034
 7033W        W27313   8.037  13.827   2.236  0.0700 -0.3017  0.4369
 7034W        W27314   0.619   4.498  10.921 -0.3183  0.0015  0.1714
 7035W        W27315  19.108   6.244   0.239  0.1261  0.5208 -0.3155
 7036W        W27316   3.167  17.181   2.272 -0.1270  0.1182  0.4238
 7037W        W27317  13.702  10.501   1.422  0.2291  0.1451 -0.0754
 7038W        W27318  11.349   8.831  11.410  0.0375  0.2297 -0.3170
 7039W        W27319   2.225   8.481   0.993  0.0549 -0.3324  0.1191
 7040W        W27320   2.228  12.380   0.446 -0.0212  0.1772  0.1675
 7041W        W27321   3.070  16.183   4.216  0.1039 -0.0517 -0.2468
 7042W        W27322  10.357  17.530   3.672  0.1046 -0.0605 -0.1621
 7043W        W27323  19.374   0.531   1.637  0.1790  0.2083  0.0517
 7044W        W27324   6.694  15.498   2.801 -0.3667  0.1796 -0.0017
 7045W        W27325   5.962  13.102  13.526 -0.0742  0.1168  0.0566
 7046W        W27326  15.022   2.293   3.581 -0.1282  0.2764  0.3517
 7047W        W27327   2.629  10.815  11.554 -0.0985  0.0524 -0.0470
 7048W        W27328  15.707   4.442   3.104 -0.0130 -0.0633  0.2438
 7049W        W27329   2.639  15.833  12.727  0.0151  0.0626  0.2608
 7050W        W27330   1.899  17.771   9.916  0.2221 -0.1775  0.0456
 7051W        W27331   5.126   8.988  11.850 -0.1465  0.0555 -0.0726
 7052W        W27332   3.979  14.289   3.365 -0.2952 -0.1310 -0.0593
 7053W        W27333   2.685  16.140   1.995  0.0037 -0.1622  0.0743
 7054W        W27334  17.162  10.985  13.218 -0.1970 -0.0879 -0.0275
 7055W        W27335  12.696  17.901   1.783  0.2320 -0.3577  0.2233
 7056W        W27336  12.790  18.313  13.780 -0.1466 -0.0677 -0.1179
 7057W        W27337   4.070  12.351  12.775 -0.0028 -0.0995  0.0106
 7058W        W27338   3.734   1.036  13.992  0.1180 -0.3749  0.0582
 7059W        W27339  14.015  12.288   4.052  0.0744  0.0189  0.0487
 7060W        W27340  13.590   3.445   2.172  0.1416 -0.1064  0.0232
 7061W        W27341   9.251  14.744  10.187  0.3160 -0.2576  0.1717
 7062W        W27342   2.892   6.387   0.047  0.3393 -0.2543 -0.0246
 7063W        W27343   5.177  10.240   2.155  0.2113  0.0402 -0.0438
 7064W        W27344   2.558   1.104   0.180 -0.0180  0.2263  0.0546
 7065W        W27345  19.310  16.735   3.322 -0.1132 -0.3216 -0.2758
 7066W        W27346  15.013   9.390   0.067  0.0977  0.1122  0.0832
 7067W        W27347  12.286  14.749   2.950  0.1628 -0.0292 -0.1991
 7068W        W27348  11.449   0.467  14.412  0.3684 -0.1860  0.0181
 7069W        W27349  18.852   6.620   2.165  0.3885 -0.1045  0.3188
 7070W        W27350  11.165   2.595   1.369  0.3434 -0.0874 -0.0265
 7071W        W27351   7.167   8.868   3.782 -0.2253  0.1939  0.0205
 7072W        W27352   8.798  12.001   1.249 -0.1511  0.1667  0.1264
 7073W        W27353   9.796  19.281  13.190  0.1688  0.0009  0.0474
 7074W        W27354   3.735  18.437  14.082 -0.0055 -0.0154 -0.0589
 7075W        W27355   7.224  10.437  12.128 -0.1375  0.0792  0.3307
 7076W        W27356  14.250   0.029   1.845  0.0641  0.0859 -0.0712
 7077W        W27357   1.616   0.204  14.109 -0.1559 -0.0491 -0.2355
 7078W        W27358   2.994  14.957  13.465 -0.1015  0.1679 -0.0896
 7079W        W27359   0.573  13.043   0.226 -0.1760 -0.0111  0.0006
 7080W        W27360   5.141   5.331   9.917  0.1162  0.0129  0.1965
 7081W        W27361  14.203   4.756   2.218 -0.3965  0.1468 -0.2080
 7082W        W27362   6.939  17.226  11.274  0.0707 -0.4933 -0.2876
 7083W        W27363   5.700   4.510  11.015  0.0768 -0.0025 -0.1205
 7084W        W27364   8.323  13.942  13.610  0.1758 -0.0678  0.0750
 7085W        W27365  17.497  16.020  13.139  0.2061 -0.3520  0.2992
 7086W        W27366   6.639  12.295  12.966 -0.0394 -0.1315  0.1906
 7087W        W27367  12.242   4.578   2.568  0.0166  0.0142 -0.2297
 7088W        W27368   2.527  15.141  10.725 -0.3311  0.0644 -0.0084
 7089W        W27369   1.657   8.976  11.293  0.2487 -0.4916  0.2482
 7090W        W27370  15.772   9.109   1.798 -0.1979 -0.1723  0.0685
 7091W        W27371   4.891   4.036  10.709  0.0023 -0.4778  0.1932
 7092W        W27372   1.948   3.713   5.206  0.1150 -0.0391 -0.0399
 7093W        W27373   0.118  12.444  13.018 -0.0024  0.1782 -0.0549
 7094W        W27374  18.025   2.021  13.277  0.3076 -0.1148 -0.0424
 7095W        W27375   7.450   4.763   5.085  0.0307  0.3166  0.1408
 7096W        W27376  13.108  10.439  11.317 -0.3154 -0.1764  0.2977
 7097W        W27377  10.035   9.373  11.017 -0.1577  0.1993  0.1973
 7098W        W27378   0.822   1.592  12.711 -0.1253 -0.0278 -0.5128
 7099W        W27379  19.183  13.945   0.359  0.3301 -0.3210 -0.1967
 7100W        W27380  14.696  17.760  11.160  0.2566  0.2093 -0.2663
 7101W        W27381   2.958   4.523  13.618 -0.0083 -0.4594 -0.1624
 7102W        W27382   5.539  13.873  11.505  0.1426  0.0064  0.2221
 7103W        W27383   5.510  17.751  14.287 -0.2215 -0.2506 -0.2035
 7104W        W27384  12.506   2.817  13.723 -0.1497  0.1428  0.2938
 7105W        W27385   5.537  18.792   1.307 -0.0176 -0.2652  0.2304
 7106W        W27386  14.650  18.073  10.568  0.0376 -0.1788 -0.0603
 7107W        W27387   0.384   0.471   5.299  0.0760 -0.0534 -0.2547
 7108W        W27388  14.567   3.301   4.476  0.0651  0.0586 -0.1237
 7109W        W27389  15.099  16.165   3.256  0.0499  0.3658 -0.0424
 7110W        W27390  16.589  15.755   3.173 -0.2026  0.1579  0.1707
 7111W        W27391   5.774  16.770   2.425 -0.0029 -0.0509  0.0337
 7112W        W27392  18.918  12.014   1.220  0.0909  0.1785  0.0745
 7113W        W27393  12.160   2.271   2.950 -0.0664  0.0931 -0.2630
 7114W        W27394   1.313  13.529  11.999 -0.4299 -0.4792  0.1385
 7115W        W27395  11.078  13.300   0.896 -0.0729 -0.0438  0.0541
 7116W        W27396  16.749   3.679   1.189  0.2203 -0.0833  0.1864
 7117W        W27397  17.791  15.590  13.355  0.1635 -0.1929  0.0722
 7118W        W27398   8.317  10.458   2.151 -0.0245 -0.6561 -0.2218
 7119W        W27399  10.278   3.566  13.823 -0.1637  0.0663 -0.0778
 7120W        W27400  10.065   2.863   4.251 -0.0623  0.0408  0.1890
 7121W        W27401   3.317  15.111  13.130  0.0569 -0.1435  0.0202
 7122W        W27402   6.734  11.755   1.011  0.1423 -0.1269 -0.0659
 7123W        W27403  19.133   4.726   4.147 -0.2274  0.1941 -0.1637
 7124W        W27404   9.706  10.513   1.281 -0.4100  0.1034  0.0808
 7125W        W27405  19.146  10.298  12.689  0.1574 -0.1294  0.2770
 7126W        W27406  12.196   8.277  11.034 -0.2203  0.3073 -0.3556
 7127W        W27407  10.485  11.981  12.319 -0.0152 -0.3125  0.0699
 7128W        W27408   7.246   8.216  13.240 -0.0118 -0.4634 -0.1244
 7129W        W27409   6.178   6.886   3.127 -0.4159  0.0413 -0.1652
 7130W        W27410  16.835   0.121  11.059  0.1025  0.0131  0.0738
 7131W        W27411  17.784   7.484   0.468  0.2311  0.1077 -0.0667
 7132W        W27412   5.835   7.208   0.918  0.1295  0.0673  0.2265
 7133W        W27413   4.015   7.768   3.539  0.1082  0.0365 -0.0797
 7134W        W27414   9.544   1.277  10.845  0.4006 -0.0554 -0.2161
 7135W        W27415  15.402   7.339   2.861  0.0444 -0.1529  0.2330
 7136W        W27416   6.711  14.377  10.603  0.4058  0.0372  0.2636
 7137W        W27417  14.326  17.749  10.805  0.1735  0.0039  0.1144
 7138W        W27418   1.204   9.967   1.854 -0.0050  0.0018  0.0796
 7139W        W27419   2.710  13.673  13.092  0.0429 -0.2164  0.0647
 7140W        W27420   6.264  13.599   3.120  0.2564  0.1772  0.0726
 7141W        W27421   9.858  19.407   2.273 -0.2200 -0.1251  0.2886
 7142W        W27422  18.054   3.068   3.797 -0.2271 -0.2727 -0.0468
 7143W        W27423   2.258  15.795  14.246 -0.0670  0.0380  0.1748
 7144W        W27424   5.034  13.862  12.740 -0.0335  0.0943 -0.1043
 7145W        W27425  16.483  10.100  11.443  0.1161  0.0205 -0.2491
 7146W        W27426   5.110   6.607   4.489 -0.1366 -0.2667 -0.0694
 7147W        W27427   3.200  12.404   2.245 -0.0116 -0.2591  0.0252
 7148W        W27428  16.040   5.380  12.131  0.3711 -0.2288  0.0668
 7149W        W27429  14.141   2.061  11.853  0.0471  0.3157 -0.2615
 7150W        W27430  18.209  17.912   0.038 -0.2238  0.2663 -0.0541
 7151W        W27431  14.804  10.034  13.198  0.1992  0.2677 -0.5733
 7152W        W27432   8.724   5.271  13.660 -0.0639 -0.1020 -0.2166
 7153W        W27433   8.651  13.297  11.543 -0.0324 -0.1239 -0.2699
 7154W        W27434   6.795  10.261  14.185 -0.0766  0.1564  0.0850
 7155W        W27435  16.886   6.756   3.467 -0.1912  0.1135 -0.0705
 7156W        W27436  17.761   5.899  10.767  0.2400  0.0075  0.0318
 7157W        W27437   0.969   8.264   3.435 -0.2898  0.1432 -0.0409
 7158W        W27438  14.092   5.618  11.097 -0.1240 -0.0253  0.1149
 7159W        W27439  16.470  18.010  11.234  0.0686 -0.0891 -0.0307
 7160W        W27440   4.220   1.192   2.523 -0.0424  0.0677  0.2591
 7161W        W27441   6.832  12.975   1.816 -0.0436  0.0753  0.2697
 7162W        W27442   8.555   0.675   3.045 -0.0034  0.4649 -0.0098
 7163W        W27443   1.209  13.756  10.761 -0.0722 -0.1732 -0.2121
 7164W        W27444  19.339   3.757   3.741 -0.2225 -0.0428  0.0259
 7165W        W27445   1.933   4.019  11.596 -0.0184 -0.1819 -0.1821
 7166W        W27446   0.622   7.508   0.490 -0.2099  0.0854 -0.0719
 7167W        W27447  14.107  18.625  12.446 -0.1912 -0.0288  0.0839
 7168W        W27448   0.463   8.671  13.028  0.0011 -0.0110  0.1928
 7169W        W27449   5.091  13.294  13.456  0.1121 -0.2056  0.1193
 7170W        W27450   7.395  14.277   1.996  0.0197 -0.1201  0.1120
 7171W        W27451  12.345   4.855  11.117 -0.0761 -0.1531 -0.1527
 7172W        W27452   5.401   7.581   0.878  0.0932 -0.0188 -0.0038
 7173W        W27453  18.120  12.541  14.198  0.0029  0.2595 -0.0218
 7174W        W27454   3.907   7.531  11.694 -0.2246 -0.1139 -0.1790
 7175W        W27455   5.856  12.539  13.666 -0.2188 -0.2027 -0.1005
 7176W        W27456  13.368   4.014   3.743  0.0867 -0.1991  0.1942
 7177W        W27457   6.848  12.081  10.933  0.0152  0.2146  0.0470
 7178W        W27458   0.371   8.174   2.773  0.2617 -0.3652 -0.0379
 7179W        W27459   2.579  17.437  11.376  0.2293  0.2354 -0.1391
 7180W        W27460   7.978   5.938  13.532  0.2268  0.1997  0.3084
 7181W        W27461   5.558   5.248  12.282 -0.1203  0.3797 -0.0852
 7182W        W27462  16.398   4.087   0.922 -0.1360 -0.1202 -0.2713
 7183W        W27463  19.013  19.175   3.586 -0.1488 -0.0251 -0.4721
 7184W        W27464  16.303  10.928  11.976  0.0297 -0.2607 -0.0663
 7185W        W27465  15.374   6.457  14.453 -0.1199  0.2488  0.0548
 7186W        W27466  18.255   4.612   1.045 -0.2788  0.2491 -0.2551
 7187W        W27467  17.234  17.319   1.981 -0.0754 -0.0082 -0.0189
 7188W        W27468  10.764  12.594  11.839 -0.3472 -0.0018  0.0533
 7189W        W27469  10.170   9.881   1.218  0.1194 -0.3520  0.2248
 7190W        W27470  13.582   5.318   4.693  0.0226 -0.1660  0.0356
 7191W        W27471   1.733   3.991  13.731 -0.2748  0.2437  0.2642
 7192W        W27472  11.312   3.306  13.241 -0.3388  0.0313  0.0920
 7193W        W27473  17.423   9.198  14.053  0.2231 -0.0999 -0.2127
 7194W        W27474   9.874   3.372  12.390 -0.0802  0.0218  0.2976
 7195W        W27475   0.008   7.065  13.977 -0.4039 -0.0646  0.5215
 7196W        W27476  19.128  18.860   2.386  0.2675  0.1054  0.0320
 7197W        W27477   4.946   0.884  10.488 -0.0738  0.1399  0.0954
 7198W        W27478   6.385  13.340  12.056 -0.0979  0.2799 -0.3079
 7199W        W27479   3.076   6.769  11.538 -0.0239  0.1362  0.2046
 7200W        W27480   8.965   5.656  10.716 -0.1047 -0.4442 -0.1259
 7201W        W27481   0.970  13.339  12.882 -0.0887 -0.0719 -0.1503
 7202W        W27482  13.339  13.756   3.271  0.0185 -0.1320 -0.2894
 7203W        W27483  18.511   8.117   1.309 -0.5516  0.0786 -0.2229
 7204W        W27484   3.324  17.894  12.580  0.2744 -0.0741 -0.4031
 7205W        W27485   8.201   2.486  13.525 -0.0480 -0.1171  0.0774
 7206W        W27486   4.402   4.677   3.591 -0.0648  0.3728 -0.0601
 7207W        W27487   0.376  18.380   0.422 -0.3570  0.0791  0.0672
 7208W        W27488  11.152   7.862   2.256  0.1744  0.1270 -0.0099
 7209W        W27489   0.512   8.118   3.469 -0.1466  0.4053  0.0735
 7210W        W27490  10.396  16.972  13.086  0.1863 -0.2897 -0.0858
 7211W        W27491   9.494   4.700   2.909  0.2511 -0.2420 -0.1128
 7212W        W27492   1.827  11.823  12.579  0.3119  0.0274  0.0518
 7213W        W27493  17.776   3.244   0.044  0.0914  0.0918 -0.3102
 7214W        W27494  14.715  18.030  13.068 -0.0571  0.1688 -0.2959
 7215W        W27495   7.348  18.807   2.945 -0.0243 -0.2845 -0.0613
 7216W        W27496   4.616  18.374   3.281 -0.3050 -0.0415 -0.2463
 7217W        W27497   1.895  12.491   3.785  0.0915  0.0617 -0.2563
 7218W        W27498   4.841  15.710   2.650 -0.2074 -0.2853  0.0509
 7219W        W27499  10.111   0.428  14.105  0.0839 -0.5051  0.0616
 7220W        W27500  14.196   3.561  12.483  0.0290 -0.1846  0.1589
 7221W        W27501   4.728   1.441   3.765 -0.1852  0.0993 -0.0164
 7222W        W27502  16.196   2.867  11.444  0.0485 -0.1510 -0.0747
 7223W        W27503   3.313   6.020  12.760 -0.1892  0.2973  0.0523
 7224W        W27504  17.019  15.100   2.194 -0.1736  0.1054  0.0869
 7225W        W27505  17.144   8.601  11.728  0.1436  0.0673 -0.1455
 7226W        W27506   1.331   4.320  12.722  0.2118 -0.0582 -0.2462
 7227W        W27507   1.399   0.744   3.915  0.0877 -0.1693  0.0435
 7228W        W27508  16.133   2.881   4.428  0.0032 -0.2738  0.2143
 7229W        W27509   1.431   5.169  14.473  0.2121  0.1768 -0.0176
 7230W        W27510  17.307   2.061   3.470 -0.0785 -0.2237  0.0054
 7231W        W27511  10.394   6.279   3.598  0.2359  0.0019  0.3057
 7232W        W27512  12.183  13.348   3.474 -0.0341  0.2070  0.1789
 7233W        W27513  14.938  13.485  12.527  0.0764 -0.0091 -0.0142
 7234W        W27514   5.014  13.401  10.622 -0.0576 -0.1875  0.2796
 7235W        W27515   6.101   1.416  12.002  0.0103 -0.0377  0.0894
 7236W        W27516  18.681  17.981   3.139  0.0982 -0.1055  0.3850
 7237W        W27517  13.647   0.365  14.007  0.1946 -0.5017  0.1404
 7238W        W27518   5.162   0.414  14.246 -0.0915 -0.1200  0.3833
 7239W        W27519   7.453  10.101  11.707 -0.1217  0.2628 -0.4446
 7240W        W27520  15.021  14.772   3.380 -0.0339 -0.1240 -0.1286
 7241W        W27521   5.591   4.862   2.710 -0.3315 -0.1319  0.1025
 7242W        W27522  15.221   0.614   3.775 -0.0871 -0.0574 -0.0810
 7243W        W27523   7.542   3.990  13.273  0.0548 -0.1364 -0.2491
 7244W        W27524  11.333  12.130  12.390  0.0977  0.1908 -0.2979
 7245W        W27525  17.880  15.544  10.914  0.2196  0.3874 -0.0382
 7246W        W27526  18.456   0.151   3.881 -0.4843  0.0687 -0.0609
 7247W        W27527   8.417   8.507  14.325 -0.0793 -0.2078 -0.3345
 7248W        W27528  14.428   4.085  11.764  0.0098 -0.1493  0.3134
 7249W        W27529  10.135   9.298   0.423 -0.1886  0.0705  0.2312
 7250W        W27530  16.722  19.145  13.339  0.0290 -0.1693  0.0985
 7251W        W27531  18.644  11.015  10.624 -0.1849  0.3326 -0.0836
 7252W        W27532   2.811  18.785   2.592 -0.1631  0.2370  0.1238
 7253W        W27533   4.353  18.690  11.869  0.1795 -0.3402 -0.2163
 7254W        W27534  15.961   3.483   3.565  0.0653  0.2874  0.2271
 7255W        W27535   0.141  14.119   2.033 -0.3246  0.0918  0.0755
 7256W        W27536   3.766   5.061   3.186  0.0712  0.0373  0.0641
 7257W        W27537  16.004   4.877   3.996 -0.1049 -0.1049  0.1024
 7258W        W27538   8.369   4.582   3.379  0.2509 -0.2228  0.3255
 7259W        W27539   2.723   7.246   3.594  0.2040  0.4487 -0.0287
 7260W        W27540  19.051  14.117  11.228 -0.0895 -0.3186  0.0587
 7261W        W27541   4.859  17.910  10.928  0.0772  0.0923 -0.0676
 7262W        W27542  14.996   7.830  11.155  0.2316 -0.1418 -0.0050
 7263W        W27543  18.955   2.176  11.235 -0.0519 -0.2315  0.1045
 7264W        W27544   4.031   6.063   3.967  0.1761  0.0122 -0.1608
 7265W        W27545   6.273  16.706  13.529 -0.1962 -0.1109  0.1572
 7266W        W27546   8.407  11.411   2.560 -0.0051 -0.1086  0.2413
 7267W        W27547  10.354  19.166  11.356  0.3827 -0.1221  0.4729
 7268W        W27548  18.964   9.130   2.018 -0.1489 -0.0843 -0.1130
 7269W        W27549   7.719   1.275  12.747 -0.0293  0.1048  0.1405
 7270W        W27550   9.169   7.600  12.775 -0.2525 -0.0894  0.1087
 7271W        W27551   3.780   1.135   0.489 -0.0961 -0.2876  0.0920
 7272W        W27552  17.888  13.916   2.277 -0.0265  0.3052 -0.1181
 7273W        W27553   3.201   3.197   2.959 -0.1707  0.2588 -0.0288
 7274W        W27554  12.932   8.031  13.163 -0.0727 -0.0725 -0.1363
 7275W        W27555   1.337  18.823   0.024 -0.0924 -0.0856 -0.0780
 7276W        W27556  11.609  16.511   1.444 -0.2608  0.0133  0.1256
 7277W        W27557  17.046  17.544   1.325  0.1093  0.1212  0.0674
 7278W        W27558   1.697  19.023   1.651  0.3020 -0.2138 -0.0537
 7279W        W27559   2.808  10.666  12.576  0.1842  0.0558 -0.3231
 7280W        W27560  18.501  16.002   0.461 -0.4839  0.0398 -0.0669
 7281W        W27561  10.978  16.706   3.846 -0.0570 -0.0357  0.4177
 7282W        W27562   0.670  18.854  11.658  0.0707 -0.1309 -0.0401
 7283W        W27563   7.202   9.557  11.053 -0.0038  0.4090  0.3252
 7284W        W27564   3.858   1.592  12.111 -0.0545  0.1473 -0.1098
 7285W        W27565   4.101   9.495   4.762  0.1272  0.1651  0.2571
 7286W        W27566   0.631  15.527  12.542 -0.2096  0.3365  0.0825
 7287W        W27567   9.540   6.245  14.429 -0.1305  0.1874  0.1678
 7288W        W27568   7.885  10.324  11.378 -0.0380  0.1530  0.1103
 7289W        W27569   8.317  18.116   1.924  0.1615 -0.1421 -0.2140
 7290W        W27570  17.065  12.482   2.796  0.1320 -0.0191 -0.2228
 7291W        W27571   5.159  17.163  12.104 -0.2835  0.1870  0.0817
 7292W        W27572   0.777   5.740  12.625 -0.1994 -0.0573 -0.3168
 7293W        W27573  17.656   3.209   1.874  0.0972 -0.1103  0.4223
 7294W        W27574  18.729   5.310   3.587 -0.0492  0.2079 -0.3288
 7295W        W27575   0.262   7.137   3.801 -0.1521  0.1171 -0.1286
 7296W        W27576   2.192   1.678  12.222  0.3508 -0.1132 -0.0349
 7297W        W27577   9.176  10.237  11.551  0.2932  0.1227  0.1540
 7298W        W27578  18.566  10.565  10.834  0.2013  0.0486 -0.3500
 7299W        W27579   9.007  19.309   3.967  0.0718  0.2269 -0.2422
 7300W        W27580  12.731   0.204   0.601  0.1021  0.0484 -0.2187
 7301W        W27581   1.862   0.174   0.908  0.0014 -0.2064 -0.0296
 7302W        W27582  15.370  15.062   4.062 -0.2502 -0.2258 -0.0855
 7303W        W27583   5.250   2.867   1.030  0.1995 -0.0977  0.1555
 7304W        W27584   2.179   0.032   1.275  0.0253  0.1981  0.0222
 7305W        W27585  10.920   2.435   4.128 -0.1440  0.1247 -0.1571
 7306W        W27586  16.842   2.212  11.869  0.0142 -0.0104 -0.0074
 7307W        W27587   6.678   4.169  10.637 -0.1065  0.1299 -0.0749
 7308W        W27588   1.742   3.417   0.066 -0.1865  0.4489 -0.4474
 7309W        W27589  15.648  11.421   1.117 -0.1101 -0.2041  0.0152
 7310W        W27590   9.147  13.704  10.236 -0.0957  0.2082 -0.0349
 7311W        W27591  14.679  11.082  11.301 -0.0448 -0.1191 -0.0244
 7312W        W27592  13.226  13.554   1.814  0.1706 -0.1851  0.4182
 7313W        W27593   7.534  11.702   4.770  0.0700  0.2093 -0.4182
 7314W        W27594  17.159   3.071   1.938 -0.3934  0.1757 -0.0627
 7315W        W27595  17.187   1.939   0.024 -0.0393  0.2834  0.3161
 7316W        W27596  15.209  18.568   0.086 -0.0072  0.0232  0.2509
 7317W        W27597  10.397   6.738   3.735 -0.3324  0.0964 -0.2851
 7318W        W27598  12.052  16.287   1.098  0.1835  0.1097 -0.4554
 7319W        W27599   7.422   9.576   2.219  0.0116  0.4349 -0.1315
 7320W        W27600   7.138  17.702   1.098  0.0581  0.2939 -0.0047
 7321W        W27601   5.039   0.728   2.808 -0.3916 -0.0277  0.0768
 7322W        W27602   0.312   7.108   1.541  0.0107 -0.0378 -0.0459
 7323W        W27603   4.279   1.327   3.581  0.1986 -0.1999 -0.1180
 7324W        W27604   4.761  13.279  11.086  0.3327  0.2730 -0.0079
 7325W        W27605  14.102   9.139   3.976 -0.1420  0.0231  0.3294
 7326W        W27606   0.148   7.646   0.667 -0.1130 -0.1313  0.1293
 7327W        W27607  13.625   3.799  12.794  0.2633 -0.1585  0.0050
 7328W        W27608   4.883   1.774   2.887  0.4479 -0.2203 -0.2451
 7329W        W27609   3.699  16.399   0.808 -0.1828  0.4016 -0.2113
 7330W        W27610  19.081  11.074   0.887 -0.1176  0.1944  0.2247
 7331W        W27611   2.430  15.645   0.157  0.1439  0.1166  0.0652
 7332W        W27612   5.781   7.162   9.491 -0.0688 -0.0903  0.2149
 7333W        W27613   4.089  15.910   3.900  0.0195 -0.3293 -0.1150
 7334W        W27614  19.031  10.385   3.375 -0.0375  0.0811  0.0813
 7335W        W27615   9.891   2.056  14.036  0.0957  0.3137  0.1954
 7336W        W27616  17.722  10.827   1.024 -0.3764 -0.1482  0.2572
 7337W        W27617   2.049  10.945  11.915 -0.3022  0.1434 -0.0755
 7338W        W27618   3.311  16.273  14.344 -0.1605  0.3515  0.0913
 7339W        W27619  11.370   0.792   1.862 -0.1549  0.2353  0.0787
 7340W        W27620  14.261  13.738   0.696 -0.1034 -0.0001  0.0390
 7341W        W27621   4.880   7.778  10.776  0.3552  0.0945 -0.1012
 7342W        W27622   1.568  17.227   2.686 -0.1360 -0.0135 -0.3190
 7343W        W27623  10.532   6.078  12.696  0.1530 -0.0326 -0.0152
 7344W        W27624   6.030   9.923   0.007  0.0119  0.0476 -0.0522
 7345W        W27625  12.963  14.825  11.268  0.1425  0.1602 -0.1422
 7346W        W27626   7.948  12.909  11.153 -0.0830 -0.0284  0.0585
 7347W        W27627   5.451   7.019  10.936 -0.1146 -0.0118 -0.0524
 7348W        W27628  12.330   5.448   4.354 -0.1555  0.0212 -0.2318
 7349W        W27629  14.893   1.900   3.864 -0.0557 -0.0384 -0.1816
 7350W        W27630  13.140   9.851  11.391 -0.1175 -0.3728  0.0086
 7351W        W27631   4.644  14.238  13.941 -0.0683  0.1105 -0.3578
 7352W        W27632  13.733  11.520  12.638 -0.0549  0.0135  0.0784
 7353W        W27633  11.871  19.379  13.656 -0.0073  0.1466  0.0063
 7354W        W27634   6.197  17.752   1.480 -0.1202 -0.0902 -0.0302
 7355W        W27635   2.636   6.254   1.091  0.1392  0.0544 -0.1000
 7356W        W27636  17.920  11.687   0.456 -0.2861 -0.1149 -0.1252
 7357W        W27637   9.916   6.748   1.829  0.1721  0.1841  0.2250
 7358W        W27638   7.894  18.222   0.218 -0.0678  0.0784  0.0908
 7359W        W27639  14.367  16.153  10.679  0.1446 -0.0259 -0.1260
 7360W        W27640  11.132  13.456  11.603  0.5490 -0.1138  0.0619
 7361W        W27641   7.635   3.317   2.888 -0.0523 -0.1044 -0.3702
 7362W        W27642  13.541   0.915   0.452 -0.0450 -0.2220 -0.3903
 7363W        W27643   4.098  12.836   0.127  0.4290 -0.0928 -0.0381
 7364W        W27644   6.789   2.865  11.562  0.1282 -0.1144  0.1155
 7365W        W27645   0.194  15.593  11.162  0.1022  0.0864  0.0168
 7366W        W27646   7.891  14.213   0.130 -0.0345 -0.0941 -0.0770
 7367W        W27647   4.478   4.661  13.161  0.0077  0.0490  0.0184
 7368W        W27648   0.290   5.310   1.035  0.0279 -0.3351  0.0239
 7369W        W27649  15.846   9.096  13.587  0.1809 -0.1443 -0.0787
 7370W        W27650   8.165  13.764  12.716  0.1988 -0.2745  0.1171
 7371W        W27651  18.480   7.687  14.158  0.3605  0.2960 -0.1508
 7372W        W27652  19.007   0.351  11.428  0.0007  0.3877  0.1390
 7373W        W27653  13.542   8.516  14.335 -0.0115 -0.0463  0.3052
 7374W        W27654   7.814  11.743   0.273 -0.1110 -0.3250  0.0531
 7375W        W27655   9.843  10.499  13.430  0.0308 -0.0749 -0.1854
 7376W        W27656   9.251  17.066   2.448  0.1491  0.1848 -0.1433
 7377W        W27657  12.131   9.183  11.971  0.0593  0.1423  0.0591
 7378W        W27658   1.051  10.364  11.855  0.0403 -0.2048  0.1267
 7379W        W27659  18.174   4.263  12.949 -0.1586 -0.1195  0.3190
 7380W        W27660   1.982   3.794   2.346  0.1865  0.0373 -0.2834
 7381W        W27661   8.050   4.117   1.542  0.0823  0.1151  0.1286
 7382W        W27662   7.919   2.327  12.323  0.0911 -0.2692 -0.2444
 7383W        W27663  10.986  12.021   0.793  0.1017  0.1827 -0.0209
 7384W        W27664  17.310  17.870   3.785  0.2879  0.3204  0.0854
 7385W        W27665   1.302   3.105   2.333 -0.0167  0.0958 -0.1074
 7386W        W27666  17.600  15.483  13.876 -0.1074 -0.0040 -0.0829
 7387W        W27667   5.020   7.034  12.805  0.1617  0.0029  0.0468
 7388W        W27668  19.126  18.406   1.028  0.1614 -0.0165 -0.0377
 7389W        W27669   1.003  13.608  13.370 -0.1843 -0.3374  0.0573
 7390W        W27670   6.671   3.029   0.482  0.1702 -0.3640 -0.0206
 7391W        W27671   2.764  17.019  12.377  0.0970  0.1144 -0.1638
 7392W        W27672  12.704   5.839  13.636 -0.0631 -0.2567  0.1118
 7393W        W27673  17.992   3.474   0.576  0.1254 -0.2174  0.0426
 7394W        W27674   4.697   0.173  11.561 -0.1577 -0.1908  0.0632
 7395W        W27675  18.611  15.624  14.373 -0.1047  0.1461 -0.2453
 7396W        W27676  18.505   4.296  11.707 -0.0311 -0.1299  0.0719
 7397W        W27677  10.520   1.174   2.174  0.0249  0.3962 -0.0526
 7398W        W27678   5.829  15.356   3.073  0.2506  0.0827 -0.1008
 7399W        W27679   2.504   1.141   1.841  0.2967 -0.1063  0.4172
 7400W        W27680  16.058  18.024   4.922 -0.1601 -0.2443 -0.1010
 7401W        W27681   4.536   7.734  11.771 -0.1677  0.0785  0.0777
 7402W        W27682   8.120  10.422   1.254  0.6935 -0.0651  0.2758
 7403W        W27683   9.512   2.930  11.644  0.2041  0.1748  0.1794
 7404W        W27684  19.276   8.614   3.160 -0.1935 -0.0748 -0.0625
 7405W        W27685  13.401   7.982   0.309 -0.1643  0.2488  0.4084
 7406W        W27686   7.770   7.426   3.208  0.1772 -0.0963 -0.0632
 7407W        W27687  17.016  16.360   0.668 -0.2714  0.1172 -0.0707
 7408W        W27688   8.462   4.255  13.251  0.1055 -0.0373  0.0100
 7409W        W27689  14.906   9.314  13.609  0.2612 -0.0327  0.2815
 7410W        W27690   6.345  16.686   2.378  0.1032  0.1847  0.2250
 7411W        W27691   4.449   5.907  11.498 -0.0014  0.1600 -0.2086
 7412W        W27692   5.332  10.192  13.051  0.0488 -0.0621  0.1316
 7413W        W27693   2.433   8.412  10.681 -0.0284  0.2169 -0.2353
 7414W        W27694  11.087  12.241   1.674 -0.2336  0.2929  0.4918
 7415W        W27695  16.987   8.014  11.034  0.0396  0.1164 -0.2882
 7416W        W27696  10.878   1.481  13.033  0.0909 -0.0228 -0.5082
 7417W        W27697   4.509  10.658  12.786  0.0049 -0.2359 -0.0803
 7418W        W27698  12.013  13.280   4.000  0.0105 -0.2563  0.0881
 7419W        W27699  17.372   6.909   3.456  0.1727 -0.1616  0.0102
 7420W        W27700   4.097  14.355   1.710 -0.2197 -0.0711 -0.3599
 7421W        W27701  13.878  15.216   1.385 -0.1162  0.0134 -0.4857
 7422W        W27702  15.748  13.586   1.388  0.1751 -0.0955 -0.2871
 7423W        W27703  10.097   2.298   1.527 -0.1461  0.2235  0.0144
 7424W        W27704  14.299  13.863   2.444 -0.1290 -0.1171  0.0664
 7425W        W27705  11.945   7.300   3.183 -0.0308  0.0835  0.1480
 7426W        W27706  11.693  18.572  11.345  0.0399 -0.0497 -0.0028
 7427W        W27707  12.708   5.892   2.608 -0.1203 -0.3259 -0.2978
 7428W        W27708  13.871  10.507  11.601  0.0886  0.0396 -0.2621
 7429W        W27709   1.315  18.163   0.122 -0.0819 -0.2554  0.1166
 7430W        W27710  16.493  19.090  12.349  0.1179  0.2977  0.2018
 7431W        W27711   7.002  15.923   2.808 -0.0332  0.0138  0.0352
 7432W        W27712  12.153   7.220  14.173  0.0740 -0.2629 -0.0570
 7433W        W27713  14.853  17.755   3.000  0.4247  0.0007  0.0049
 7434W        W27714  18.772  16.931  11.520  0.2529  0.0005  0.1835
 7435W        W27715   4.983  13.682   3.680 -0.0651 -0.1225  0.1630
 7436W        W27716   0.049  16.403   3.826  0.3013 -0.1537 -0.2047
 7437W        W27717  18.270  15.139   0.580 -0.4389 -0.5047  0.2668
 7438W        W27718   6.228   6.350   1.451  0.1367 -0.0755  0.1850
 7439W        W27719   0.837   4.570   0.574 -0.2459 -0.0134  0.0020
 7440W        W27720  13.447   1.252   3.901  0.0411 -0.0390  0.2070
 7441W        W27721   8.634  14.633   3.894 -0.1123  0.3376  0.1434
 7442W        W27722   2.023  19.264  12.129 -0.0992 -0.0769  0.3555
 7443W        W27723   1.377   3.422   1.514  0.3796 -0.2749  0.3499
 7444W        W27724   8.053   2.520   0.617  0.1479  0.0239 -0.2596
 7445W        W27725  17.365  14.045  11.311  0.0743  0.1270 -0.0531
 7446W        W27726  12.524  18.855   1.831 -0.2158  0.0732  0.2111
 7447W        W27727   7.327   0.485  11.065  0.1555  0.1626 -0.2403
 7448W        W27728  17.552  16.665  11.243  0.0772 -0.0526  0.1949
 7449W        W27729   7.193  17.489   0.143 -0.1139  0.0120 -0.1396
 7450W        W27730   2.960   1.388  14.385 -0.0072 -0.1362  0.1948
 7451W        W27731   5.541   5.293   0.768 -0.0422 -0.0530  0.1259
 7452W        W27732   1.180   2.831   5.024 -0.2638 -0.1095  0.0495
 7453W        W27733  17.695  11.188  10.725  0.0120  0.3753 -0.0014
 7454W        W27734   3.634  10.173  11.360  0.1746  0.2754 -0.1239
 7455W        W27735   7.630  13.399  13.562  0.2084 -0.2366  0.2258
 7456W        W27736   0.664   2.346   4.260 -0.1917 -0.1786  0.0660
 7457W        W27737   3.978   6.943  13.693  0.0207  0.0979 -0.2281
 7458W        W27738  14.695   6.771  13.166  0.0503  0.1579 -0.0824
 7459W        W27739  10.914  11.473   2.875 -0.1828 -0.0745  0.0080
 7460W        W27740   4.282   2.817   3.612  0.1062 -0.2792  0.1500
 7461W        W27741   4.133  15.775   3.416 -0.2250 -0.0308 -0.4630
 7462W        W27742   0.206  18.824  10.752  0.2151  0.1219  0.0326
 7463W        W27743   9.978   0.546   2.970  0.1249 -0.0694 -0.0944
 7464W        W27744   9.840  13.312   0.485  0.0109 -0.2354 -0.0031
 7465W        W27745   3.482   3.591   2.865 -0.2643 -0.3905  0.1865
 7466W        W27746   6.890  19.306   2.255  0.0699  0.0493  0.3444
 7467W        W27747   5.289  17.831   1.442 -0.0075  0.1407  0.1823
 7468W        W27748   7.259   5.710  12.756 -0.1072 -0.0391 -0.0169
 7469W        W27749  17.833  13.133   1.775 -0.1450 -0.1462  0.2306
 7470W        W27750   7.536   3.259   0.655  0.0679  0.2413 -0.0272
 7471W        W27751   5.765  18.845   0.648  0.2247  0.0218  0.1606
 7472W        W27752   8.186   1.399   4.395  0.1055 -0.1220  0.0481
 7473W        W27753   5.734   7.192   1.425  0.3057 -0.3416  0.2064
 7474W        W27754   5.873  19.163   1.262 -0.2012 -0.2498 -0.0467
 7475W        W27755  15.399   5.837  11.321 -0.0263  0.2103  0.0164
 7476W        W27756   9.719   0.474  14.429 -0.1741 -0.0611 -0.0090
 7477W        W27757  17.366   2.536  10.573  0.2999 -0.0238 -0.2156
 7478W        W27758  19.056   9.233   1.413 -0.5413  0.2755 -0.2813
 7479W        W27759  13.364   7.931  12.497 -0.2816 -0.0574  0.1953
 7480W        W27760  16.877  16.417   2.841  0.1675  0.1653 -0.0971
 7481W        W27761   4.208  16.114   0.747 -0.2021  0.0913  0.1810
 7482W        W27762  19.262  13.915  14.273  0.0171 -0.2093  0.0358
 7483W        W27763   9.045   8.484  13.107 -0.0742 -0.1360 -0.4353
 7484W        W27764  13.620  15.742  12.376 -0.2060  0.1687 -0.1934
 7485W        W27765  15.411   0.960   2.496 -0.1275 -0.2166 -0.0279
 7486W        W27766  17.749   7.520   3.120 -0.0697 -0.0061 -0.0475
 7487W        W27767  18.998   7.334  12.335 -0.1894 -0.0098 -0.1641
 7488W        W27768   6.235   2.085  10.890  0.1105 -0.1211 -0.4297
 7489W        W27769   1.637  17.578  11.215 -0.1950 -0.1924 -0.1403
 7490W        W27770   7.205  14.460   2.403  0.2005 -0.0558  0.2271
 7491W        W27771  18.749   2.331   0.286  0.1953 -0.0477  0.2818
 7492W        W27772   4.134   3.151  12.322 -0.1532  0.1084  0.0415
 7493W        W27773  15.044  10.158  11.811  0.1089 -0.5354 -0.1179
 7494W        W27774  16.333   5.266   4.003  0.1146 -0.0850  0.1476
 7495W        W27775   5.917   0.025   4.012  0.1482  0.1164  0.2676
 7496W        W27776   3.303   8.070  14.051  0.2483  0.2451 -0.1991
 7497W        W27777   3.962  13.098   2.515 -0.3192  0.1505 -0.2152
 7498W        W27778   5.932  12.625  12.183  0.0060  0.1757  0.0759
 7499W        W27779   8.467  10.838  12.341 -0.0344  0.0955  0.0204
 7500W        W27780  14.207  10.590  14.313 -0.1316 -0.0291  0.2837
 7501W        W27781  15.844  18.422  11.820  0.5597  0.2575 -0.2122
 7502W        W27782   9.388   9.412   2.239 -0.0312 -0.0761 -0.0717
 7503W        W27783  17.502   1.304  14.231  0.3081  0.0006 -0.1365
 7504W        W27784   5.140  13.701   3.202  0.0409  0.0528  0.0368
 7505W        W27785  13.755   6.239   4.462  0.1342 -0.1899  0.0194
 7506W        W27786   7.030   1.919   3.577 -0.0376 -0.0736 -0.0413
 7507W        W27787  16.769   2.616   9.428  0.1353 -0.1426 -0.0272
 7508W        W27788  14.204  14.061   2.926 -0.0004 -0.2019  0.0827
 7509W        W27789   1.732  11.397   2.611  0.1254  0.0000  0.3102
 7510W        W27790  10.747  15.370  10.585 -0.0979 -0.4295 -0.1606
 7511W        W27791  14.193  16.037  13.056 -0.0267 -0.2627  0.1741
 7512W        W27792  10.950   9.858   0.191 -0.1791 -0.0814 -0.1842
 7513W        W27793  12.593  16.769   3.700 -0.1308  0.0720 -0.0130
 7514W        W27794   3.626   1.390  13.199  0.1754 -0.1573  0.3077
 7515W        W27795  14.282   0.733   2.709  0.3926  0.0678  0.3534
 7516W        W27796  16.114  15.552  12.245 -0.1155 -0.1586  0.1412
 7517W        W27797  17.467  11.390  13.115  0.4043  0.0298  0.0927
 7518W        W27798  10.720  13.043   4.838  0.0244  0.1407 -0.1661
 7519W        W27799   8.397   9.539  14.280  0.2040  0.1667  0.3648
 7520W        W27800  12.216   5.644   0.856 -0.0097 -0.1456 -0.1728
 7521W        W27801   2.141   0.211   2.282 -0.1730  0.0012  0.0570
 7522W        W27802  17.804  14.513  12.066  0.0604  0.1410 -0.1242
 7523W        W27803   7.834   9.637   1.934 -0.0667  0.0792  0.0854
 7524W        W27804  17.319  15.592   0.169  0.2418  0.3997  0.1597
 7525W        W27805  13.670   7.138   3.066 -0.1866 -0.0377 -0.2176
 7526W        W27806   3.312   5.714  13.276 -0.0170  0.1596 -0.2254
 7527W        W27807  15.461  19.359   4.434  0.0521  0.4286  0.1867
 7528W        W27808   8.070  19.171   0.349 -0.0771  0.0141 -0.1308
 7529W        W27809  14.932  14.359   0.288  0.0461  0.0457 -0.3528
 7530W        W27810   7.557   7.426   1.219 -0.1785 -0.1446  0.0559
 7531W        W27811  10.231  17.081   2.748  0.1970  0.0073 -0.0428
 7532W        W27812   7.503  15.963   0.249  0.0241 -0.1942  0.2520
 7533W        W27813   8.731  16.998   2.192  0.3288  0.0051 -0.0816
 7534W        W27814  19.347  15.330  10.168 -0.0181 -0.1625 -0.3286
 7535W        W27815   0.824   9.353  12.785 -0.1225  0.0089 -0.1758
 7536W        W27816   6.580  18.895  13.073  0.2491 -0.0291  0.1593
 7537W        W27817  14.333   6.165   3.731  0.0774  0.1644  0.0851
 7538W        W27818   0.714   3.524  12.731  0.1654  0.2387 -0.0163
 7539W        W27819   5.573   8.453   3.449 -0.0345  0.0873  0.2819
 7540W        W27820  11.075   3.814  12.150  0.0061  0.2201 -0.0416
 7541W        W27821  14.204  10.955   1.215 -0.0600 -0.0705 -0.0764
 7542W        W27822   3.220  15.181   3.775  0.1160  0.2361  0.1151
 7543W        W27823  15.308  18.296   2.616  0.0810 -0.0203 -0.0357
 7544W        W27824  11.061   8.700  14.003  0.0933 -0.2959  0.0330
 7545W        W27825  11.552  10.593  12.594 -0.0503 -0.1139  0.2377
 7546W        W27826  14.719   6.772   0.094  0.0671  0.2289  0.2892
 7547W        W27827  11.324  11.767   0.450  0.1743  0.2060 -0.1537
 7548W        W27828  15.295   7.170  11.625 -0.1700 -0.2356 -0.1535
 7549W        W27829   9.278  14.638  12.478 -0.3103  0.0075 -0.1039
 7550W        W27830  12.941  15.173   3.635 -0.2186 -0.1401  0.0171
 7551W        W27831  18.137  14.624   3.524 -0.2613 -0.0218 -0.0056
 7552W        W27832  16.573   0.150   3.541 -0.2207 -0.1511 -0.2051
 7553W        W27833   1.384   7.770  12.552 -0.2742  0.0049 -0.0437
 7554W        W27834   2.938   8.103   3.402  0.0767  0.2457  0.1939
 7555W        W27835   2.149  11.355   1.425 -0.1351 -0.0828 -0.0914
 7556W        W27836   5.512  10.056   3.894  0.3546 -0.0884  0.1331
 7557W        W27837  15.463   7.707  11.479  0.1401 -0.0873  0.4698
 7558W        W27838  11.018  16.624  12.164  0.0096 -0.0360  0.3315
 7559W        W27839   2.109   3.494   0.658 -0.0696  0.2292 -0.2326
 7560W        W27840  19.103  14.275  13.973 -0.1028  0.0251 -0.0252
 7561W        W27841  14.847  16.156  10.826 -0.6474  0.0934  0.1621
 7562W        W27842   4.108  17.987   0.305 -0.2260 -0.2451  0.0561
 7563W        W27843   1.297   8.365   2.152 -0.2757 -0.0132  0.1066
 7564W        W27844   1.639   0.788   2.287  0.2530  0.0408 -0.1681
 7565W        W27845   8.829  12.506   0.969  0.1701 -0.1425  0.3566
 7566W        W27846   6.579   8.979  11.021 -0.1745  0.0291  0.0661
 7567W        W27847  18.805  14.959   4.994  0.2027 -0.2091  0.1537
 7568W        W27848   0.314  15.661  10.389 -0.0156  0.1955 -0.1110
 7569W        W27849  15.481   9.227  11.854  0.1413  0.0627  0.2808
 7570W        W27850   2.797   9.246   0.327  0.1479 -0.0592  0.0357
 7571W        W27851  15.205  12.742  14.456  0.4258 -0.0030 -0.2435
 7572W        W27852  13.478  15.388  14.000  0.0278  0.1776 -0.2150
 7573W        W27853  18.986   1.029   1.650 -0.0514 -0.1237  0.1096
 7574W        W27854  10.087   3.200   3.856 -0.1289 -0.1047 -0.3027
 7575W        W27855   7.567  14.693   4.508  0.1046  0.0289  0.1877
 7576W        W27856   9.760   1.505  12.731 -0.1820  0.1656 -0.1326
 7577W        W27857  19.312  17.490  13.842 -0.1349  0.0937 -0.0989
 7578W        W27858   6.615   1.887  14.077  0.2679 -0.3068 -0.1079
 7579W        W27859  15.682  16.733   1.214  0.0712  0.1876  0.0602
 7580W        W27860  11.410  16.782   3.416  0.0760  0.1342 -0.0858
 7581W        W27861   6.227  10.559   2.435  0.1134  0.0680 -0.0623
 7582W        W27862  17.385   2.664   1.283 -0.2420  0.3076  0.0644
 7583W        W27863   2.795  11.585  10.180 -0.3934 -0.2598 -0.2166
 7584W        W27864   2.148  16.371   2.363  0.1454 -0.3593  0.0009
 7585W        W27865   6.723   7.722  11.684  0.1542  0.0219  0.0859
 7586W        W27866   9.183  18.338  11.805 -0.0670 -0.0369  0.1277
 7587W        W27867  11.889   8.697   5.333 -0.4464 -0.0436 -0.2408
 7588W        W27868  10.461  11.069   4.165 -0.1590 -0.2520  0.0105
 7589W        W27869   6.493   2.146  10.492  0.2116  0.4709 -0.1432
 7590W        W27870  13.636  18.036   4.253 -0.1898  0.1770 -0.0423
 7591W        W27871   5.942   0.350   2.009 -0.0482 -0.1017 -0.0130
 7592W        W27872  17.532   8.270  14.436 -0.2269  0.0462 -0.0610
 7593W        W27873  13.470  10.472   4.427  0.0632 -0.5708  0.1668
 7594W        W27874   8.289   0.811  12.085 -0.1774 -0.1170 -0.2675
 7595W        W27875  10.218   2.246  10.892  0.0448  0.0571 -0.0391
 7596W        W27876   1.932  12.357   2.284  0.0403  0.1039  0.1049
 7597W        W27877  11.663  13.242  10.737  0.0374 -0.1268 -0.1970
 7598W        W27878   1.013  18.514  13.303  0.4222 -0.2243  0.3725
 7599W        W27879   0.005   8.494  12.882 -0.2312  0.0012 -0.1555
 7600W        W27880   0.015  16.538  13.384 -0.0367  0.0144 -0.1851
 7601W        W27881  10.623   1.725   4.587  0.0773  0.2049 -0.2993
 7602W        W27882   3.972   3.570  13.068 -0.3263  0.1776  0.4193
 7603W        W27883  14.532   7.587   0.558  0.0293 -0.0059 -0.0916
 7604W        W27884   1.500   1.195   0.049 -0.2026 -0.1653  0.0640
 7605W        W27885   9.373  15.241  12.401 -0.2452 -0.2685  0.2043
 7606W        W27886   9.280  12.958   3.564  0.2473  0.2170 -0.0126
 7607W        W27887   3.828   4.667   0.239 -0.3065 -0.1077  0.3495
 7608W        W27888  10.204   8.162  14.243 -0.1738  0.4327 -0.1785
 7609W        W27889  14.362   4.323   1.116 -0.0702 -0.0049 -0.0200
 7610W        W27890   5.097   0.578  11.415 -0.1395 -0.0818 -0.2198
 7611W        W27891  13.341   5.014   1.358 -0.0875  0.2054  0.3207
 7612W        W27892   7.394  17.040   3.413  0.1836 -0.1954  0.2016
 7613W        W27893  10.183   2.605  11.336  0.4337  0.3821 -0.1250
 7614W        W27894   8.954   5.527   0.123 -0.2012 -0.2215  0.3124
 7615W        W27895   0.971   2.485   1.197 -0.0274 -0.1482 -0.0498
 7616W        W27896   8.350  18.254   4.317  0.3976 -0.1482  0.0698
 7617W        W27897   4.553  18.632  14.220 -0.1262  0.3450  0.0532
 7618W        W27898  11.690  16.033   3.660 -0.2770  0.1229  0.0524
 7619W        W27899   8.424   3.825   0.800  0.0482  0.0388 -0.3008
 7620W        W27900   9.611   3.697  11.737  0.1688  0.0486 -0.0101
 7621W        W27901   8.317  18.564  12.620  0.0611 -0.2467 -0.0380
 7622W        W27902   3.576   2.670   1.365 -0.0471 -0.2059 -0.0932
 7623W        W27903   3.082  15.601  11.014 -0.1606  0.1665  0.0467
 7624W        W27904   2.449  19.216   3.601  0.1341  0.2876  0.3358
 7625W        W27905  18.574  17.841  13.746 -0.3078 -0.2692 -0.1833
 7626W        W27906  12.518  14.567  13.161 -0.0120  0.1383  0.0955
 7627W        W27907   3.745  10.680  10.479  0.1323  0.0337  0.4287
 7628W        W27908  15.798  18.465   1.237  0.0898 -0.0500 -0.1401
 7629W        W27909  13.586   3.753  11.974 -0.0838 -0.1182  0.4572
 7630W        W27910  14.775  13.851   4.486 -0.5305  0.0130 -0.0740
 7631W        W27911   4.539  12.777   0.996  0.0181  0.0015  0.0874
 7632W        W27912   6.827   2.143  10.923  0.2590 -0.1488 -0.1671
 7633W        W27913   0.926   8.570  13.386  0.0150 -0.0079  0.1009
 7634W        W27914   9.033  13.889   2.065 -0.0547 -0.1440  0.2602
 7635W        W27915   2.565   3.248   0.638 -0.2390 -0.1409  0.0550
 7636W        W27916   5.233   7.363  12.481 -0.0158 -0.2959  0.1930
 7637W        W27917  13.326   1.839   4.099 -0.0791 -0.0515 -0.0363
 7638W        W27918  10.795   6.680   0.270  0.2823  0.3449 -0.1016
 7639W        W27919   6.828   1.009   2.468 -0.2844 -0.0836 -0.1889
 7640W        W27920  13.420   4.879   5.596 -0.2489  0.3922  0.0262
 7641W        W27921   4.140  13.587   0.864 -0.1733  0.2190 -0.0047
 7642W        W27922  15.009   8.578  13.319  0.0274 -0.0658 -0.1133
 7643W        W27923  13.404   7.147  10.923  0.2128 -0.0838 -0.3260
 7644W        W27924  14.854  16.411   2.867 -0.3463 -0.0048 -0.1388
 7645W        W27925   1.414  17.688   2.358 -0.0784 -0.2535 -0.1184
 7646W        W27926  11.976   4.229  14.381 -0.0088  0.3810  0.0574
 7647W        W27927  11.748  16.208  12.774  0.1998 -0.4772  0.1835
 7648W        W27928   7.287   6.874   2.065 -0.0806 -0.0626 -0.1993
 7649W        W27929  11.951   3.331   2.861  0.0120 -0.0546  0.0133
 7650W        W27930  14.644  13.691  13.078  0.0823  0.0470  0.1204
 7651W        W27931  12.520   1.548  11.618  0.0822 -0.4091  0.2508
 7652W        W27932   2.204   0.378  13.661  0.1493 -0.0300  0.0083
 7653W        W27933   5.072  12.512   9.217 -0.1876 -0.1353  0.0195
 7654W        W27934  10.231   1.049  13.252  0.1420  0.1355  0.1884
 7655W        W27935   3.931   9.363  11.636 -0.0917 -0.0692  0.1331
 7656W        W27936  14.193  18.284  10.556 -0.2311  0.0294  0.1123
 7657W        W27937   2.046  17.201   2.933  0.0573  0.3510  0.0902
 7658W        W27938   6.259  13.073   3.993 -0.1949 -0.0643  0.0156
 7659W        W27939   0.133  14.005  12.363  0.2453  0.1842 -0.0714
 7660W        W27940  16.504  13.982   1.453  0.0293 -0.1950  0.0280
 7661W        W27941  11.243  13.632  13.619  0.0296  0.1002  0.2311
 7662W        W27942  18.811   7.864  10.695 -0.0277  0.1953 -0.0764
 7663W        W27943   7.064  11.493  11.208 -0.0730  0.1449  0.1107
 7664W        W27944  11.077   7.156   0.540 -0.2014 -0.1070 -0.0270
 7665W        W27945  15.020   2.674  13.419 -0.2435 -0.1588  0.0488
 7666W        W27946   9.292   8.198   0.056  0.0861  0.0628 -0.1054
 7667W        W27947   1.500   1.361  12.712 -0.2570 -0.0154  0.0919
 7668W        W27948   2.970   9.728  10.304  0.2074 -0.1976  0.1628
 7669W        W27949  10.865  14.405  10.765 -0.0055  0.2259  0.5221
 7670W        W27950   5.266   2.608  11.445  0.0753  0.1597 -0.0847
 7671W        W27951   8.232   5.821  11.222 -0.3550  0.0656  0.0295
 7672W        W27952  13.216   2.637  14.444  0.0171 -0.0690 -0.2272
 7673W        W27953   0.840   9.312  11.031 -0.1539  0.1878 -0.3608
 7674W        W27954   0.014   4.124   1.523  0.4199  0.2084  0.0245
 7675W        W27955   8.612   4.392   1.449 -0.1828 -0.1164  0.0011
 7676W        W27956   7.831  16.771   3.271 -0.1142  0.0746  0.1280
 7677W        W27957  15.843  14.883  11.462 -0.1410 -0.0069 -0.0164
 7678W        W27958  14.662  13.017   2.050 -0.1126  0.1195 -0.0076
 7679W        W27959   1.409   5.080  12.127 -0.2097  0.3544  0.1019
 7680W        W27960   4.044  14.715   0.793 -0.2256 -0.0350  0.2580
 7681W        W27961  11.035   7.822   3.389 -0.1440 -0.3485 -0.0584
 7682W        W27962   6.747   2.592  14.283 -0.0607 -0.3372  0.0246
 7683W        W27963  11.736   9.026  11.728  0.0412  0.0815 -0.3010
 7684W        W27964  10.285   5.046   3.443 -0.2555  0.0257  0.1175
 7685W        W27965   7.239  12.805  13.017  0.0135 -0.4101  0.0463
 7686W        W27966  10.603  10.605  10.980  0.0152 -0.0152  0.2905
 7687W        W27967  10.214   5.629   0.937  0.3794 -0.0473  0.1985
 7688W        W27968   4.801   2.631  11.799 -0.0630 -0.0112 -0.0887
 7689W        W27969  11.380   2.556  13.965  0.0468  0.1587 -0.0964
 7690W        W27970  17.070  13.843  13.034  0.2744  0.1036  0.0491
 7691W        W27971   0.272  17.883   3.237 -0.1828  0.3100 -0.0381
 7692W        W27972  12.688   4.529  13.529 -0.0260 -0.2489  0.0128
 7693W        W27973  14.822   1.789   1.398  0.1228 -0.2516  0.0766
 7694W        W27974  18.783  18.650  13.376  0.2961 -0.1589 -0.0428
 7695W        W27975   6.020   2.757  11.126  0.0704  0.4295 -0.2464
 7696W        W27976   3.920  17.790  14.275 -0.3539 -0.1786  0.0967
 7697W        W27977  14.776   7.451   0.984  0.3118  0.0723 -0.1140
 7698W        W27978   6.323  13.960   1.815  0.0803  0.1533  0.0330
 7699W        W27979   5.792  11.194   2.963  0.0491  0.3580 -0.3356
 7700W        W27980  17.905   5.333  14.308 -0.0409 -0.0996  0.1512
 7701W        W27981  14.529   4.933   9.805  0.2283 -0.2324  0.1484
 7702W        W27982  18.543   9.046  12.483  0.2508  0.0386  0.1650
 7703W        W27983  16.832  17.012   1.106  0.2646 -0.2326  0.1514
 7704W        W27984  17.755  19.150  11.136 -0.1421  0.0814 -0.0090
 7705W        W27985   1.633  15.132  14.219  0.2891  0.0410  0.0119
 7706W        W27986   4.814  13.047   0.432  0.2124  0.1489  0.3543
 7707W        W27987   7.613   3.242  12.850  0.1694 -0.0442  0.1953
 7708W        W27988   8.798   1.614   5.466 -0.0025 -0.1585  0.1491
 7709W        W27989  17.664  19.096   1.099  0.3162 -0.2531 -0.1784
 7710W        W27990   9.393   3.192   3.853  0.1282 -0.0635 -0.0315
 7711W        W27991   9.578  15.506  11.968 -0.1301 -0.0969  0.2901
 7712W        W27992  16.328  13.217  14.276  0.0961  0.1503 -0.0740
 7713W        W27993   9.539   7.707  13.140  0.2483  0.2582 -0.3693
 7714W        W27994   5.824   1.523   4.370  0.1411 -0.1375  0.0215
 7715W        W27995   6.637   9.224  14.005  0.0185 -0.2897 -0.2171
 7716W        W27996  15.742  18.522  12.838 -0.0383 -0.0319  0.2606
 7717W        W27997  18.890  13.071   1.178 -0.1067 -0.0090 -0.4185
 7718W        W27998   3.732   8.749  11.416 -0.0711  0.0139 -0.0552
 7719W        W27999  14.474   2.345   0.615  0.0975 -0.1158 -0.0316
 7720W        W28000  10.210   1.309   2.554  0.1015 -0.0804 -0.1495
 7721W        W28001  16.251   6.497   2.698  0.3487  0.0319  0.0037
 7722W        W28002  14.427  16.302   2.594  0.0233 -0.2481 -0.0833
 7723W        W28003  12.930  11.971  11.669 -0.0223 -0.2492 -0.0487
 7724W        W28004  11.333  13.064   0.580 -0.1598  0.1577 -0.3184
 7725W        W28005  16.149  17.846  12.307 -0.1772  0.0822 -0.2532
 7726W        W28006  14.046   7.812  10.743 -0.2435 -0.1094  0.0374
 7727W        W28007  14.500   8.854   2.229 -0.0330 -0.1580  0.0848
 7728W        W28008  10.821   0.473   0.224 -0.0004  0.2913 -0.1535
 7729W        W28009  12.111   7.967  12.380  0.1598 -0.2474  0.0407
 7730W        W28010  15.637  16.554   2.566  0.0395  0.0164  0.2169
 7731W        W28011   3.801  10.598  13.532  0.4275  0.0922  0.0306
 7732W        W28012   4.139  12.707   4.164  0.3410  0.0855 -0.1157
 7733W        W28013  18.385  11.042  11.066  0.0093 -0.1574 -0.1827
 7734W        W28014  13.696  14.413  11.200 -0.4071 -0.1183  0.3570
 7735W        W28015  12.220  12.215   1.121  0.0272  0.0863 -0.0470
 7736W        W28016   3.241  18.875  13.986  0.2286 -0.1790 -0.2084
 7737W        W28017  19.378   7.023  12.779 -0.0506  0.2118 -0.1776
 7738W        W28018  15.661   8.958  14.028 -0.0952  0.3208  0.0236
 7739W        W28019  13.738   5.118  11.520 -0.0276 -0.0630 -0.2308
 7740W        W28020   9.404   8.667   0.114 -0.1006 -0.0293  0.0003
 7741W        W28021  18.343   8.484  14.127 -0.1732 -0.0750 -0.0263
 7742W        W28022   7.402  18.337  13.129 -0.0861  0.4526 -0.0468
 7743W        W28023   9.473   5.242   2.715 -0.0830 -0.0131  0.1652
 7744W        W28024  18.703   0.196   3.352 -0.0051 -0.1269 -0.0043
 7745W        W28025   2.319  10.504  11.855  0.0568 -0.2343 -0.1203
 7746W        W28026  10.752  14.720  13.379  0.0729 -0.3836  0.2916
 7747W        W28027   6.401   5.928  10.830 -0.0379 -0.1983  0.0895
 7748W        W28028   1.863  10.549   2.521 -0.1414  0.0358  0.2021
 7749W        W28029  14.188  13.936   3.387  0.2492  0.1837  0.0922
 7750W        W28030  17.434  12.491  10.768  0.2296  0.0490 -0.2698
 7751W        W28031   9.499  17.044  13.790  0.0673  0.1864  0.4385
 7752W        W28032  11.089  16.503   2.920 -0.0686  0.0265 -0.1398
 7753W        W28033  18.843  10.452  14.452 -0.1015  0.0633 -0.0467
 7754W        W28034  15.782  11.302   2.628 -0.1259 -0.0719 -0.3643
 7755W        W28035   7.341  18.260   0.419 -0.0299  0.2938  0.1975
 7756W        W28036  15.705  14.651  13.742  0.1547 -0.2498  0.0182
 7757W        W28037   6.363   6.068   3.234  0.2381  0.0742  0.5088
 7758W        W28038   8.062  16.425   2.008  0.0947 -0.1532  0.2362
 7759W        W28039   1.683  17.987   0.761  0.2717 -0.2492 -0.2182
 7760W        W28040   9.950  10.770  11.872 -0.2786  0.1393  0.0847
 7761W        W28041  18.394  16.629  12.753  0.1682 -0.1050  0.1820
 7762W        W28042   1.007   9.159  13.712  0.2985 -0.1458  0.5107
 7763W        W28043   0.094  10.782  14.018 -0.1195  0.4917  0.1337
 7764W        W28044   5.624   6.341   1.237  0.1771  0.0678  0.1144
 7765W        W28045  12.516   6.264   2.967  0.0807  0.0017  0.0487
 7766W        W28046   7.995  18.817   2.497 -0.1531  0.1005  0.1045
 7767W        W28047  13.333   8.790  10.654 -0.0893  0.1984  0.1889
 7768W        W28048  16.135  14.158  12.984  0.2869  0.0646 -0.1296
 7769W        W28049   4.524  11.074   3.723  0.0538  0.2955 -0.0445
 7770W        W28050  17.213   0.493   1.727  0.2094  0.2238  0.0214
 7771W        W28051   7.067  13.902   3.187  0.0152 -0.3190 -0.2875
 7772W        W28052   8.144  12.965   4.928  0.1838 -0.0185  0.1599
 7773W        W28053   7.399   4.254   5.274 -0.0879  0.0529 -0.1793
 7774W        W28054  19.187   2.560   4.129 -0.3163 -0.0230 -0.2667
 7775W        W28055   3.730  15.847   1.854  0.3109 -0.1482  0.0924
 7776W        W28056   0.293  12.798  12.688 -0.0459  0.3145 -0.2840
 7777W        W28057   7.696   6.234   1.232 -0.1329  0.2458 -0.2916
 7778W        W28058   5.090   5.289   3.303  0.4722  0.1554  0.1308
 7779W        W28059  15.371   0.911   2.002 -0.0078  0.1498 -0.1522
 7780W        W28060  12.250  16.978  12.842 -0.5003 -0.4670  0.0649
 7781W        W28061   2.895   9.336  10.656 -0.0609  0.0371 -0.0079
 7782W        W28062   8.154  16.608   1.224  0.0662  0.1081 -0.2461
 7783W        W28063  18.640  10.580   3.642  0.2664 -0.0358 -0.0177
 7784W        W28064   6.257   6.966   2.198  0.1246  0.1432 -0.4156
 7785W        W28065  13.817   4.539   3.631  0.1076  0.1151  0.0065
 7786W        W28066   3.520  19.155   1.388  0.2643 -0.2797  0.0505
 7787W        W28067   3.602   9.178  12.218  0.2033 -0.1580  0.0521
 7788W        W28068   9.959  17.152  12.318 -0.1598 -0.0167 -0.0387
 7789W        W28069  12.552   9.669  12.999 -0.0365  0.1674  0.0572
 7790W        W28070   8.580  10.077   4.633  0.0175 -0.0465 -0.1482
 7791W        W28071   5.647   9.564   0.122  0.1981  0.0400  0.0852
 7792W        W28072  10.923   8.297  11.083 -0.2632 -0.0034  0.2768
 7793W        W28073  17.118  15.982   2.229 -0.2910 -0.0944  0.2682
 7794W        W28074  12.153   9.534   0.841  0.3627  0.0785 -0.0518
 7795W        W28075  16.942  15.569  11.729 -0.1622 -0.2283  0.0435
 7796W        W28076   9.389   8.600  13.766  0.1969 -0.1343 -0.0877
 7797W        W28077  11.017   1.380   4.136 -0.2156  0.0018 -0.1327
 7798W        W28078  10.634   3.857  14.141 -0.2624  0.1266  0.1176
 7799W        W28079  13.573  18.014  14.098 -0.2044  0.0492 -0.2200
 7800W        W28080  11.814   1.963  13.209 -0.3939  0.1682 -0.1101
 7801W        W28081   7.282  18.474   2.074 -0.1394 -0.1758 -0.1983
 7802W        W28082  10.333  12.295  12.711 -0.0576  0.2110  0.0791
 7803W        W28083  16.307   3.942  10.380  0.2660  0.0040  0.0906
 7804W        W28084  11.620  13.576  12.634  0.1302  0.2658  0.2619
 7805W        W28085   2.575  16.819  12.826  0.1620 -0.2980  0.2772
 7806W        W28086  11.616   4.201  13.365  0.0585 -0.4615  0.1579
 7807W        W28087   4.925   2.701  12.799  0.0072  0.1804  0.1221
 7808W        W28088   5.727  13.388  14.137 -0.0249  0.1392  0.1534
 7809W        W28089  14.871  10.207  11.076 -0.1648 -0.1781  0.0512
 7810W        W28090  12.752  15.015  13.298  0.1757  0.2346  0.0669
 7811W        W28091  18.784  17.949   4.182  0.1658  0.0562  0.0362
 7812W        W28092   3.758  10.366   1.003 -0.0980  0.0288 -0.0678
 7813W        W28093   3.814  19.295  11.364 -0.4780 -0.0380  0.1940
 7814W        W28094  12.489  14.724   1.509  0.3135 -0.0463  0.0407
 7815W        W28095   3.357  10.238   1.389  0.2398 -0.4106  0.0449
 7816W        W28096   5.649  17.440  12.869 -0.0048  0.0169 -0.2491
 7817W        W28097   3.630  12.424   1.935  0.1240  0.0434 -0.1660
 7818W        W28098   8.023   0.558   3.017 -0.0722  0.0378 -0.0757
 7819W        W28099   7.500  15.334  12.700 -0.1560 -0.3452  0.0519
 7820W        W28100   9.756   5.897   1.085  0.1787  0.0586  0.1484
 7821W        W28101   0.920  14.768  14.237 -0.1351  0.0858  0.1200
 7822W        W28102   3.490   4.532   3.209 -0.0117  0.2016  0.0929
 7823W        W28103  14.545   1.238  14.387 -0.1674 -0.1130 -0.2467
 7824W        W28104  12.867   7.526   3.499  0.1661  0.0694 -0.1102
 7825W        W28105  12.451  16.099  12.351 -0.0442 -0.1613 -0.0640
 7826W        W28106   5.467  10.446   9.561 -0.0554 -0.0046  0.4100
 7827W        W28107   1.731  15.632  11.381 -0.1429  0.2180 -0.1078
 7828W        W28108   1.980   5.637  13.841  0.1346 -0.2041  0.0013
 7829W        W28109  11.432   2.132   3.955 -0.1272 -0.2776  0.2195
 7830W        W28110  16.841  11.184   0.932 -0.0430 -0.0197 -0.4766
 7831W        W28111   9.671  15.782   0.237  0.0852 -0.0728  0.0342
 7832W        W28112  12.581   1.689   1.592 -0.0453  0.2267 -0.3513
 7833W        W28113   0.317  19.398   4.221 -0.0712 -0.0030 -0.0739
 7834W        W28114   3.902   9.503   2.077  0.3046  0.0467  0.0353
 7835W        W28115   1.812   4.966   1.393 -0.2757 -0.3108 -0.1253
 7836W        W28116   3.291  18.541   2.866 -0.2782 -0.2121  0.1012
 7837W        W28117  17.029   8.917   0.907  0.1136  0.2007  0.2364
 7838W        W28118   6.973   3.981   9.471  0.0237 -0.3084 -0.0566
 7839W        W28119   3.154   9.782  12.097 -0.0101  0.0858  0.0517
 7840W        W28120   6.713  10.204  13.235  0.0431 -0.2096 -0.1224
 7841W        W28121  10.046  17.194   3.226  0.0233  0.0655 -0.0821
 7842W        W28122  11.075   7.618   0.292  0.1211 -0.2031  0.2626
 7843W        W28123  15.502  12.557  13.354  0.1925 -0.0151 -0.0253
 7844W        W28124  12.968   6.090   0.896  0.3138  0.0551  0.1450
 7845W        W28125  15.373  10.636   0.277 -0.1376  0.0188  0.5524
 7846W        W28126   5.390  10.548   0.468  0.2266  0.1798  0.1774
 7847W        W28127   2.656   6.155   0.505 -0.3249 -0.0361 -0.1303
 7848W        W28128   3.865  16.958   0.098 -0.1552 -0.1236 -0.2818
 7849W        W28129   1.589  12.271  14.181 -0.2068  0.0892  0.0739
 7850W        W28130  11.367  10.160  12.569  0.2981  0.3601  0.0368
 7851W        W28131  13.893  17.586   0.409 -0.3338  0.2591 -0.2353
 7852W        W28132   3.251   4.691  13.173  0.1890 -0.0128 -0.4429
 7853W        W28133  15.034   4.805   9.851  0.0313  0.2955 -0.1444
 7854W        W28134   8.897   3.530  13.963  0.3656  0.0522  0.3699
 7855W        W28135   9.195   4.372  13.757  0.2484  0.3346 -0.0599
 7856W        W28136   4.356  16.524  12.879  0.5533 -0.2176 -0.1107
 7857W        W28137   4.257   9.824   2.118 -0.0639 -0.0335 -0.0367
 7858W        W28138  11.167   5.784  12.600  0.1543  0.4351 -0.2102
 7859W        W28139   7.320  15.450  12.177  0.1223  0.0515 -0.1615
 7860W        W28140  13.293   4.580  13.340 -0.0814  0.0348 -0.0565
 7861W        W28141  16.125   3.521   3.065  0.1013 -0.2081 -0.0521
 7862W        W28142  16.220  12.898   0.671 -0.2210  0.0259 -0.1800
 7863W        W28143  12.194  17.030  13.869 -0.0304  0.1041 -0.1821
 7864W        W28144   0.287   4.070   0.825  0.0255  0.1337 -0.1561
 7865W        W28145  17.552  18.295   3.596  0.0974  0.0389  0.2976
 7866W        W28146   5.876   8.474  10.335  0.3942  0.4326  0.1764
 7867W        W28147   2.906  18.310   3.518  0.1062 -0.0804 -0.0725
 7868W        W28148   4.151  12.488  10.866  0.2628 -0.1669 -0.0733
 7869W        W28149  14.605   6.054  11.049 -0.5674 -0.0305  0.3347
 7870W        W28150   8.516   3.591  10.317  0.3075 -0.1552 -0.0041
 7871W        W28151  17.444  13.176   0.785  0.1060  0.2672 -0.0809
 7872W        W28152  12.484   4.620   0.480 -0.1541  0.1632  0.1567
 7873W        W28153   1.847   1.020   2.948 -0.1949 -0.1879 -0.1641
 7874W        W28154  13.699   8.119   1.256 -0.0165 -0.1088 -0.0861
 7875W        W28155   6.041   5.779   3.692 -0.0539 -0.0131  0.1705
 7876W        W28156  18.390   6.320  12.897  0.1145  0.2063 -0.2109
 7877W        W28157   6.446   1.604  12.348 -0.0101 -0.0424  0.1280
 7878W        W28158   5.086  16.938   2.146  0.1205  0.4112  0.0450
 7879W        W28159   2.629   0.782  11.226 -0.0410 -0.1092 -0.0547
 7880W        W28160   3.817   3.659   2.511 -0.1654 -0.1555 -0.0960
 7881W        W28161  14.312   9.664   4.157 -0.0958 -0.1243 -0.1425
 7882W        W28162  14.808  16.935   4.080 -0.1597  0.1108 -0.1503
 7883W        W28163  18.785   4.928   2.397  0.0486  0.3598  0.2403
 7884W        W28164  14.066   1.304   4.064 -0.1007 -0.0366  0.0295
 7885W        W28165   1.760  11.737   9.872 -0.0752 -0.0973 -0.1727
 7886W        W28166   0.571  10.922  10.573  0.0178  0.0966  0.1171
 7887W        W28167   6.406   6.402   0.090 -0.2807  0.2276 -0.0551
 7888W        W28168  19.284   1.226   2.800  0.1284  0.0106 -0.2312
 7889W        W28169  11.781  15.220   0.822 -0.1488 -0.1391  0.1071
 7890W        W28170   1.016   6.402   2.265 -0.1303  0.0301 -0.3141
 7891W        W28171  18.844   8.498   0.560 -0.2534  0.1475  0.1582
 7892W        W28172  11.507  17.598  13.289  0.1052  0.2128 -0.1749
 7893W        W28173   5.650   4.768  12.485 -0.0905 -0.3838  0.1650
 7894W        W28174   4.374   9.646   1.231 -0.1144 -0.1323  0.1674
 7895W        W28175  10.276  17.499   2.412  0.1897  0.5500 -0.1734
 7896W        W28176   0.673  18.944   1.119  0.1641 -0.0524  0.1766
 7897W        W28177   6.001   8.963  10.441  0.0536 -0.0236 -0.0901
 7898W        W28178   4.237  13.987  12.610 -0.0038 -0.2046  0.1566
 7899W        W28179  13.844  18.696  11.776  0.1043  0.0737 -0.4265
 7900W        W28180   5.908  15.585   3.468 -0.2235  0.0794 -0.3289
 7901W        W28181   0.812  14.029   3.075 -0.4470 -0.1066  0.1447
 7902W        W28182  12.402  13.553   2.578  0.1114  0.1068  0.0784
 7903W        W28183   3.771   1.343   0.983 -0.0806 -0.0964  0.0577
 7904W        W28184  15.554   2.564  12.763  0.0717  0.0835  0.0398
 7905W        W28185   9.553   5.064   3.583  0.2900 -0.0266 -0.0994
 7906W        W28186   7.522   8.853   2.241 -0.1259  0.1813  0.2227
 7907W        W28187  14.638   6.913  11.263  0.1380  0.2209  0.0467
 7908W        W28188  14.468   1.631   4.159  0.0503 -0.4212 -0.2304
 7909W        W28189  11.777   0.168   1.861 -0.1890 -0.1908  0.4617
 7910W        W28190  18.196   3.022  14.354  0.4275  0.1138  0.2004
 7911W        W28191  10.560  11.543  13.166 -0.2843  0.0032  0.0417
 7912W        W28192  18.117  15.665   0.171  0.1501 -0.1369  0.1847
 7913W        W28193   2.833   1.923   2.558  0.0004  0.5051  0.3591
 7914W        W28194   7.438   8.952  13.969  0.1026 -0.1544  0.0224
 7915W        W28195   7.363   9.160  12.100 -0.1294  0.3474  0.2802
 7916W        W28196   4.674   9.069   2.745 -0.1077 -0.4474  0.0126
 7917W        W28197  11.675  11.657   2.986 -0.1043  0.0185  0.1729
 7918W        W28198   6.068  13.092   2.378 -0.1163  0.2371 -0.2055
 7919W        W28199   7.866  11.457  12.962  0.0007 -0.1915 -0.1964
 7920W        W28200   0.923   7.325  12.005 -0.0263 -0.0198  0.0462
 7921W        W28201   2.906  18.629   0.559  0.0372  0.0206  0.1404
 7922W        W28202  18.592   9.746   1.469  0.0594  0.0372  0.2469
 7923W        W28203   2.394   4.895   2.820 -0.0755 -0.1298 -0.0661
 7924W        W28204  10.714  16.056  11.272 -0.0207  0.1241  0.0871
 7925W        W28205  16.322  10.219   1.551 -0.0962  0.0080 -0.0438
 7926W        W28206  14.278  16.581  13.732 -0.0925 -0.0399  0.0329
 7927W        W28207  14.639   4.263  10.819  0.0826 -0.2045  0.2255
 7928W        W28208   3.433  15.421  12.473  0.1116  0.0856 -0.0615
 7929W        W28209   6.818  15.133  13.750  0.3046  0.0756  0.3323
 7930W        W28210  10.110  14.487   0.706 -0.0948 -0.1294 -0.0747
 7931W        W28211   0.738   4.011  12.009  0.1342 -0.2700  0.0785
 7932W        W28212   5.099   3.318  11.820  0.0693  0.0119 -0.2650
 7933W        W28213   5.662  12.080  10.033  0.1452  0.1195  0.1208
 7934W        W28214   2.478  18.288  14.442 -0.0029  0.3954 -0.2168
 7935W        W28215   0.436   6.171  12.563  0.0701  0.1381  0.0020
 7936W        W28216   3.585   1.526  12.707  0.0099  0.2749  0.2424
 7937W        W28217  18.338   0.713   0.821  0.1992 -0.2265 -0.1688
 7938W        W28218   4.864  10.545  13.642  0.3780  0.1877 -0.0249
 7939W        W28219   4.803  14.478  11.309  0.1736 -0.1527  0.1830
 7940W        W28220   6.897  17.750  11.155  0.2621 -0.1262 -0.1032
 7941W        W28221   2.090  17.318   1.512  0.1216 -0.0316  0.1263
 7942W        W28222   7.441   0.420  12.845  0.1745  0.1736  0.1276
 7943W        W28223   8.855  15.084   0.775 -0.1273 -0.1702  0.2292
 7944W        W28224   7.613  17.480   3.623  0.0101 -0.0760 -0.0685
 7945W        W28225  17.072  18.896  13.591  0.0108 -0.2387 -0.0565
 7946W        W28226   6.903   5.057  14.244  0.2702 -0.1156  0.1802
 7947W        W28227   3.456   7.200   2.907  0.2296 -0.2446 -0.0106
 7948W        W28228   2.368  17.235   3.386  0.1071 -0.1975 -0.1906
 7949W        W28229   8.192  15.293   4.879 -0.1231  0.5489  0.1038
 7950W        W28230  18.648  18.170   1.059 -0.2456  0.0645  0.0510
 7951W        W28231   2.839  16.293  11.607 -0.2728 -0.0587  0.1416
 7952W        W28232  11.973   5.655   4.143  0.0828  0.0051 -0.4290
 7953W        W28233   8.478   4.252   0.470 -0.0402  0.1166 -0.0037
 7954W        W28234  16.877   8.716  13.133 -0.0327 -0.0807 -0.0721
 7955W        W28235   8.411   4.168   1.903  0.2836  0.1023 -0.2365
 7956W        W28236  17.452   6.377  12.887  0.2313  0.1146 -0.0240
 7957W        W28237   2.184   8.684  12.920 -0.1562  0.0158  0.3787
 7958W        W28238  10.183  18.671   3.691 -0.1278  0.0887  0.2144
 7959W        W28239  11.518   9.430  13.902  0.1723 -0.0514  0.0715
 7960W        W28240  13.368  13.868   3.862  0.1118 -0.2071  0.1021
 7961W        W28241  10.332  15.844  14.337  0.0526  0.2951 -0.0422
 7962W        W28242  12.716   3.594  10.308  0.2148 -0.1969  0.1025
 7963W        W28243   9.850  10.793  14.104  0.1516 -0.0952  0.0531
 7964W        W28244  11.967  12.336  10.388 -0.0065 -0.0350  0.1827
 7965W        W28245   7.203   8.520   2.498 -0.0010 -0.0198  0.0416
 7966W        W28246   3.672   3.978  12.603 -0.0504  0.2403 -0.0989
 7967W        W28247  17.386   4.731  11.336  0.0411 -0.2491 -0.0591
 7968W        W28248   8.074   4.018   3.574 -0.0558  0.0999  0.2244
 7969W        W28249   1.207  16.501  11.113  0.2550 -0.2282  0.2178
 7970W        W28250   2.952  16.164  13.843  0.0902 -0.2414  0.0686
 7971W        W28251  14.126   1.070   0.582 -0.0434  0.2367  0.1098
 7972W        W28252  11.730   9.653  13.129 -0.0954  0.2518 -0.3693
 7973W        W28253   0.619  14.776  10.306  0.2446  0.1717  0.0811
 7974W        W28254   1.213   3.189   3.971 -0.5233  0.0345 -0.0815
 7975W        W28255  13.665   8.288   4.059 -0.1152  0.1349 -0.1862
 7976W        W28256   5.101  13.280   1.429  0.0683  0.3000 -0.1059
 7977W        W28257  17.970   9.376   2.127 -0.0482 -0.1470  0.0430
 7978W        W28258   2.687  10.746  11.096  0.1168 -0.0553 -0.1451
 7979W        W28259  15.621  18.916  14.272 -0.3072  0.2770 -0.3198
 7980W        W28260   4.689  13.963   0.494 -0.1458  0.0882  0.1696
 7981W        W28261   4.129  15.851   1.507 -0.1767  0.0576  0.0435
 7982W        W28262   7.508   0.847  12.597 -0.1379 -0.0276  0.0044
 7983W        W28263   6.156   4.508  10.760 -0.0756  0.4809  0.1914
 7984W        W28264  10.189  17.348  13.426  0.0447  0.0381 -0.1369
 7985W        W28265   5.438  17.900   0.263  0.1027 -0.0470  0.0648
 7986W        W28266   6.843   7.126   2.361  0.1725 -0.3187 -0.1560
 7987W        W28267   8.074  17.625   2.848 -0.3644 -0.2422  0.1840
 7988W        W28268   3.011   3.678   2.874  0.1234 -0.0936 -0.0433
 7989W        W28269  16.755   2.210  10.728  0.2687 -0.1384  0.0042
 7990W        W28270  17.275   5.205  12.009 -0.3372 -0.2854  0.0875
 7991W        W28271   3.766   7.619   3.061  0.0168 -0.2063 -0.2585
 7992W        W28272   7.826   8.429  11.727  0.1378 -0.5148  0.2411
 7993W        W28273   7.751  13.383   2.882 -0.0299 -0.1348  0.1237
 7994W        W28274   3.311   4.634   0.371  0.2140  0.0220  0.2060
 7995W        W28275  13.575  18.705  11.341 -0.0991 -0.3932  0.0213
 7996W        W28276  13.895   9.625  10.144 -0.1139 -0.1957 -0.0708
 7997W        W28277  10.886  10.332  10.603 -0.3299  0.4308  0.1656
 7998W        W28278  13.264   1.866  12.241  0.5474 -0.2213  0.1972
 7999W        W28279  12.540   8.412   0.272  0.0168 -0.3683 -0.0998
 8000W        W28280   7.689  18.606  12.023  0.3293  0.3823  0.0768
 8001W        W28281   3.624  10.854  14.279 -0.1055  0.1960 -0.2294
 8002W        W28282   9.403   0.733  13.355 -0.0001  0.0367 -0.0413
 8003W        W28283   5.379  16.618   1.316  0.0078  0.1041  0.2663
 8004W        W28284  13.038  16.104  13.156 -0.2520  0.0606 -0.0775
 8005W        W28285   3.576  18.307   3.853 -0.4036 -0.1272 -0.1852
 8006W        W28286  14.626  12.114   0.201  0.0301 -0.0840 -0.1492
 8007W        W28287  16.525  18.041   3.727 -0.1090  0.2505 -0.1772
 8008W        W28288   5.366   0.339   0.344 -0.0668 -0.3367  0.0354
 8009W        W28289  18.094  12.718   1.184  0.0590  0.0188 -0.0977
 8010W        W28290   5.197   4.724  13.860  0.1056 -0.0632 -0.2820
 8011W        W28291   3.185  11.458   0.626  0.0120  0.1649  0.0167
 8012W        W28292   8.696  13.680   9.878  0.1179  0.1599 -0.0635
 8013W        W28293   3.989   2.601   3.944  0.2177 -0.2468  0.1922
 8014W        W28294   0.199  15.211   1.174  0.0183 -0.0752 -0.2636
 8015W        W28295  13.739  10.847  13.809 -0.2062  0.0331 -0.1177
 8016W        W28296  10.216  17.897   1.519  0.0259 -0.0409 -0.2385
 8017W        W28297   3.615   3.238  13.283 -0.1724  0.2577 -0.2093
 8018W        W28298   0.419  18.709   3.507  0.0387 -0.1620  0.4589
 8019W        W28299  11.910   9.578   2.885  0.4577  0.0055 -0.2506
 8020W        W28300   5.954  12.769   1.383 -0.0007 -0.2409  0.0579
 8021W        W28301  15.821   8.567  13.714 -0.2852 -0.3037 -0.3046
 8022W        W28302   1.060  15.831   1.128 -0.0710 -0.1302 -0.1183
 8023W        W28303  14.822  14.578   2.933 -0.0420  0.0509  0.2100
 8024W        W28304   0.077   2.191   2.536 -0.1634 -0.1776 -0.1563
 8025W        W28305   9.561  18.676   2.878  0.3057  0.0261 -0.4657
 8026W        W28306  19.116   9.063  10.444 -0.2761  0.1974 -0.1522
 8027W        W28307   6.433   8.545   2.948 -0.1170  0.1140 -0.0183
 8028W        W28308  17.375  12.730   1.917 -0.4829 -0.2469 -0.1071
 8029W        W28309  13.051   0.516   0.416  0.1784  0.1679 -0.0666
 8030W        W28310   5.119   6.272  13.072  0.1206 -0.0166 -0.0688
 8031W        W28311   1.206   7.854  10.589  0.2148 -0.1862  0.1391
 8032W        W28312  17.590   6.119   1.578  0.0553  0.1565 -0.0388
 8033W        W28313  12.126   4.992   4.517  0.0662 -0.1138  0.1376
 8034W        W28314   6.620   8.968  12.985 -0.0093  0.0432 -0.0865
 8035W        W28315  14.229   6.561  13.182  0.0550  0.2059  0.0968
 8036W        W28316   5.262   9.452  11.551  0.0920 -0.0975 -0.1533
 8037W        W28317   5.988   0.643  12.980  0.2013  0.1652  0.1920
 8038W        W28318   2.825   4.693   0.553 -0.1910  0.1756 -0.0744
 8039W        W28319  12.989   3.907   0.717 -0.2038  0.0817  0.1475
 8040W        W28320   7.262  11.458   9.057 -0.0451 -0.0897 -0.0992
 8041W        W28321  16.270  11.754   0.247  0.8170 -0.1777  0.0539
 8042W        W28322   4.138   4.746  12.351  0.2094 -0.1731 -0.0826
 8043W        W28323   7.019   8.961   1.178 -0.0165  0.0142 -0.0113
 8044W        W28324  11.719  14.645  11.941  0.2762 -0.0517  0.1084
 8045W        W28325   4.014  13.795   3.413  0.1497  0.3265 -0.2101
 8046W        W28326  19.204  13.914   3.534 -0.1716  0.5158 -0.0806
 8047W        W28327  17.122  10.536  12.636 -0.1205  0.3091 -0.2281
 8048W        W28328  15.099   1.180  14.379  0.0817 -0.1153  0.0669
 8049W        W28329   7.588   7.570  10.458  0.4216  0.0521 -0.2365
 8050W        W28330   9.319  10.312  13.537 -0.1310  0.0903 -0.2715
 8051W        W28331  17.222   7.888   2.630  0.0296 -0.4589  0.2995
 8052W        W28332  13.711  17.976   1.502 -0.0948  0.0179  0.2760
 8053W        W28333  17.232  14.835  14.461  0.0181  0.1299 -0.1888
 8054W        W28334   9.928  15.260   2.353  0.4222 -0.2247 -0.2923
 8055W        W28335   9.343  12.475   3.267  0.1890  0.1577  0.1407
 8056W        W28336   5.474   5.670  13.682 -0.2012 -0.0955 -0.3546
 8057W        W28337  17.109   0.076  13.588 -0.2828 -0.0720 -0.0814
 8058W        W28338  14.888   9.450  13.116 -0.0885  0.0212 -0.1091
 8059W        W28339  14.632   3.957   3.624  0.1387 -0.0387  0.1975
 8060W        W28340  18.128   6.527   2.676 -0.0115  0.0614  0.0894
 8061W        W28341  10.560  14.223  10.346  0.0570 -0.1380 -0.3717
 8062W        W28342  14.236   2.554   2.022  0.0354  0.0353  0.3191
 8063W        W28343  13.351   2.991   1.991  0.1100  0.0875  0.1307
 8064W        W28344  13.502   4.950  10.616 -0.1472  0.1618 -0.1302
 8065W        W28345   6.042   2.246   3.267 -0.0259 -0.2351 -0.1247
 8066W        W28346   6.526  14.357  13.279 -0.0844  0.0604 -0.1703
 8067W        W28347  16.662   6.813   0.584  0.1471 -0.1868 -0.0280
 8068W        W28348   5.925  11.976  12.370  0.3615 -0.2314 -0.0387
 8069W        W28349  15.002  18.043  12.501  0.3051 -0.1786  0.3584
 8070W        W28350  16.310  12.912  11.773  0.0963  0.2168 -0.0183
 8071W        W28351  19.421  19.060  12.433  0.1456 -0.0893 -0.3983
 8072W        W28352  15.505   1.665  12.582  0.2657  0.0581  0.1467
 8073W        W28353  12.367   4.564  13.166 -0.0256  0.1533  0.1410
 8074W        W28354  15.589   4.685  14.444  0.0723 -0.3688  0.1500
 8075W        W28355   2.208   4.607   3.767 -0.0140  0.1053 -0.0477
 8076W        W28356  13.949  17.384  10.966  0.2108 -0.0565  0.1219
 8077W        W28357   7.983   0.344  12.860 -0.2948  0.3511 -0.1842
 8078W        W28358   4.762   8.334  13.874 -0.2631  0.0599  0.0232
 8079W        W28359   9.842  10.114   3.957 -0.0371 -0.1124  0.1516
 8080W        W28360   7.570   9.625   3.984  0.0666  0.2069 -0.1065
 8081W        W28361   1.727  17.959   1.603 -0.1096 -0.2295  0.1385
 8082W        W28362  12.457   6.864   3.010  0.2263 -0.1130  0.0533
 8083W        W28363  19.113  11.241  11.949 -0.3279  0.1101  0.2061
 8084W        W28364  18.627   6.143  11.702  0.0556  0.1224 -0.1094
 8085W        W28365  12.563  14.390   1.956 -0.0750 -0.3207 -0.2108
 8086W        W28366   8.884  19.315  12.036 -0.2372  0.1169  0.1335
 8087W        W28367  14.561   4.269  14.248 -0.0807  0.2231 -0.3479
 8088W        W28368  19.097  15.385   2.753  0.0172 -0.0067 -0.2321
 8089W        W28369  11.667   4.063   1.514  0.1045 -0.3863  0.2782
 8090W        W28370   5.098  13.953  12.218  0.0822 -0.0990  0.2764
 8091W        W28371   3.598  14.762  14.315 -0.2633  0.1347  0.1911
 8092W        W28372  16.922   9.278  11.601 -0.1476  0.0189 -0.5194
 8093W        W28373  11.764   6.781  11.135  0.0633  0.0524 -0.0120
 8094W        W28374  11.608   2.058   0.235 -0.0137  0.2939  0.1915
 8095W        W28375   2.599  13.663  13.584 -0.0839 -0.1553  0.4654
 8096W        W28376   3.431  18.263  11.149  0.2961  0.2932 -0.1394
 8097W        W28377   1.964   6.259  12.882  0.1579 -0.0693  0.0003
 8098W        W28378   3.623  15.910   3.366 -0.2736  0.1922  0.2154
 8099W        W28379   3.724  15.187   1.682  0.1661  0.3289  0.1409
 8100W        W28380   6.240  16.420  11.523 -0.1486  0.1678 -0.4831
 8101W        W28381   1.056   2.522   2.112  0.1646 -0.1767  0.0091
 8102W        W28382  15.242  13.639  12.847 -0.4240  0.2662  0.0671
 8103W        W28383   4.470   2.382   2.215 -0.1279 -0.1892  0.1862
 8104W        W28384   8.090  14.733   2.281 -0.0933 -0.1159  0.1800
 8105W        W28385  12.026  13.140   4.491  0.0820 -0.1882  0.2902
 8106W        W28386   2.556   6.983  11.779 -0.1432 -0.3050 -0.2330
 8107W        W28387   7.868   8.539   2.002  0.1566 -0.2738 -0.2764
 8108W        W28388  15.026   3.835   1.522 -0.0994  0.0800  0.1538
 8109W        W28389  17.521  15.207  11.135  0.1181  0.2622  0.0382
 8110W        W28390  18.016   1.469  14.201 -0.1224  0.3246  0.0414
 8111W        W28391  14.207   9.386  11.096 -0.0506  0.3227  0.5253
 8112W        W28392  13.938   1.112   3.574 -0.1030  0.0013 -0.2066
 8113W        W28393   0.688  15.483   0.237 -0.3430  0.3083  0.1089
 8114W        W28394   2.002   5.087  12.630 -0.0744 -0.2446  0.1243
 8115W        W28395   6.899  15.380  10.863  0.0146  0.1719 -0.0443
 8116W        W28396  13.185  18.257   0.419  0.2255 -0.0826  0.3050
 8117W        W28397  17.469  15.429   1.717 -0.3542 -0.0852  0.1560
 8118W        W28398   6.443  14.944   2.553  0.1110 -0.4739  0.0199
 8119W        W28399  18.559   3.514  10.541 -0.2642  0.2470 -0.2882
 8120W        W28400  18.076   8.411  10.271  0.3985  0.1321  0.1510
 8121W        W28401  17.249   4.091   1.624 -0.1493  0.0825  0.1749
 8122W        W28402   7.796   6.106  12.308 -0.2153 -0.0322 -0.0776
 8123W        W28403  11.918   1.665   0.949  0.0619  0.1195  0.0329
 8124W        W28404  17.631   0.522  11.522 -0.0982 -0.0977 -0.0602
 8125W        W28405   0.745  17.187  13.248  0.0731  0.1574  0.0318
 8126W        W28406  12.091   2.218  12.034  0.1100 -0.1617  0.0405
 8127W        W28407   6.263   1.645  14.262 -0.1205  0.0242 -0.3448
 8128W        W28408  15.781   3.071   2.257 -0.1726 -0.1658 -0.0967
 8129W        W28409   4.386  10.776   2.123  0.0713  0.2086 -0.3668
 8130W        W28410   8.611  14.603  14.427  0.0254  0.0593  0.0066
 8131W        W28411  17.825   7.251  12.970  0.0090 -0.1287  0.0394
 8132W        W28412   5.174   9.434   0.241  0.0677 -0.0161  0.0872
 8133W        W28413  15.869  12.043   0.402  0.0280 -0.0091  0.1353
 8134W        W28414   8.476   2.032  11.668  0.1688  0.2807 -0.0091
 8135W        W28415  10.072  18.177  10.534  0.1796 -0.0729  0.0564
 8136W        W28416   7.011   4.962   0.861  0.2252  0.0272 -0.0797
 8137W        W28417  14.321  18.706  11.579  0.1438 -0.1129  0.1124
 8138W        W28418   2.831   6.485   1.633 -0.0005  0.1858  0.0572
 8139W        W28419   2.274   8.753  13.425 -0.0043  0.0942  0.3315
 8140W        W28420   6.487   6.719  12.476 -0.0403  0.0241 -0.3571
 8141W        W28421  11.005   0.587  14.163  0.1417 -0.3070 -0.2134
 8142W        W28422  17.195  15.106   2.633 -0.0765  0.0847 -0.2000
 8143W        W28423   0.003  17.001  13.318  0.0808 -0.0219  0.1227
 8144W        W28424  10.316   9.451  11.872 -0.0736  0.2242  0.0062
 8145W        W28425   3.427   1.758   1.776  0.1854 -0.0164 -0.3887
 8146W        W28426   1.397   3.428  10.970 -0.2791 -0.2792 -0.1058
 8147W        W28427  14.042  10.167   3.773 -0.2691 -0.2423 -0.2181
 8148W        W28428   8.514   2.339  14.409  0.1464  0.2628 -0.0846
 8149W        W28429  14.167   6.561   0.388  0.1052  0.1629  0.0547
 8150W        W28430   8.312   4.185   1.086  0.1118  0.0647  0.0245
 8151W        W28431   7.042   2.990   2.466 -0.1015  0.0009 -0.0345
 8152W        W28432   2.726  11.867  12.469  0.1141  0.0837  0.1414
 8153W        W28433   9.613   9.013   3.162 -0.0413  0.2026  0.4497
 8154W        W28434   0.903  16.191  11.370  0.1237  0.2788  0.2751
 8155W        W28435  13.001   5.233   1.710  0.0018  0.3335 -0.0706
 8156W        W28436  13.481  10.949   0.513  0.1461 -0.0603 -0.0213
 8157W        W28437   0.685  19.385  13.778  0.2967  0.2152 -0.1267
 8158W        W28438  16.782   5.579   1.428 -0.0187  0.0983 -0.3027
 8159W        W28439   2.775  18.386   2.889  0.0605 -0.0495 -0.0287
 8160W        W28440  12.402  12.058  13.979  0.1588  0.2625 -0.1237
 8161W        W28441   4.189  17.431  11.033  0.2470 -0.0670  0.0448
 8162W        W28442  19.276   8.858   4.336 -0.3134  0.1523 -0.2289
 8163W        W28443   5.127   0.944   0.760  0.2038  0.1285 -0.0222
 8164W        W28444  14.371  17.714   2.311 -0.2471  0.1486  0.1607
 8165W        W28445   4.159   8.731  10.739  0.4294  0.0652  0.1409
 8166W        W28446  10.001  16.774   3.494  0.0319 -0.2750  0.0608
 8167W        W28447   2.253   0.971  14.328 -0.1678 -0.0586  0.1520
 8168W        W28448   2.092   3.419   1.483 -0.0800 -0.0154 -0.2921
 8169W        W28449  16.566   3.347  11.550  0.0820  0.1289  0.1228
 8170W        W28450  15.150  17.406   2.716  0.2487  0.0165 -0.0072
 8171W        W28451  14.908   9.962  14.461 -0.0596  0.0214  0.0751
 8172W        W28452  13.766   3.809   1.921  0.1106  0.1187  0.1055
 8173W        W28453   5.270  11.245  12.942 -0.0107  0.1115 -0.2214
 8174W        W28454   3.767   6.716  12.691  0.2155 -0.5214  0.0386
 8175W        W28455  18.402   6.479  13.379  0.0188 -0.3003 -0.3335
 8176W        W28456  17.068  10.186   0.380  0.1860  0.1805  0.2712
 8177W        W28457  15.261  17.666   0.277 -0.1919 -0.0128  0.3055
 8178W        W28458  16.108   0.521  10.674 -0.0826 -0.1567 -0.0668
 8179W        W28459   3.903   0.283  11.044  0.4370  0.0385  0.0105
 8180W        W28460  18.181  11.885  10.711 -0.0572 -0.1791  0.1472
 8181W        W28461   8.600   9.124   3.038  0.0800  0.1625  0.0481
 8182W        W28462   1.460  18.342  13.179  0.0983  0.2173  0.1904
 8183W        W28463  18.668  16.469  12.315  0.1405  0.2247  0.4822
 8184W        W28464   7.071   6.703  11.757 -0.1282  0.0646  0.0037
 8185W        W28465  18.635   8.511  12.597  0.2697 -0.1760  0.2173
 8186W        W28466  10.834  12.364  12.420 -0.1920  0.0996 -0.0062
 8187W        W28467   1.141   9.108  14.188  0.3066  0.2490 -0.1876
 8188W        W28468   8.729  15.125  11.405 -0.2205  0.0325 -0.0416
 8189W        W28469   3.734   1.666  10.926  0.1085 -0.1079 -0.2691
 8190W        W28470   0.423  12.264  13.384 -0.2905 -0.0291 -0.0378
 8191W        W28471  12.780   8.748  14.424 -0.1634  0.3883 -0.2618
 8192W        W28472  14.577  15.350   9.725 -0.0665 -0.1656  0.0830
 8193W        W28473   9.475  11.423   0.824  0.0196  0.2960  0.2581
 8194W        W28474  12.058  13.947   2.592 -0.1815  0.1240  0.0794
 8195W        W28475   2.965  16.504   3.873 -0.2001  0.0544  0.0378
 8196W        W28476   4.387   7.072   1.993 -0.0879 -0.1357 -0.0322
 8197W        W28477   5.326   7.493  11.905 -0.2442 -0.1910  0.3715
 8198W        W28478  10.428   4.876   2.605  0.5435  0.0972  0.2880
 8199W        W28479   0.131  15.061  13.727  0.0467  0.2504 -0.3237
 8200W        W28480   8.305   6.487  11.011  0.0952  0.1408  0.3637
 8201W        W28481  17.821   2.967   4.278  0.1584  0.0323 -0.1108
 8202W        W28482   9.968  17.088  12.841 -0.0837  0.2221  0.0173
 8203W        W28483  19.136   3.041   3.954  0.0604  0.1469 -0.2899
 8204W        W28484   7.776   1.411   2.412 -0.3085  0.2754 -0.1746
 8205W        W28485  10.711   9.401   0.498 -0.0018  0.0340  0.0112
 8206W        W28486  14.336  17.580   0.878  0.3968 -0.1238 -0.1130
 8207W        W28487   3.713  14.319  11.061  0.0845  0.0170 -0.1850
 8208W        W28488  13.172  12.430  10.828  0.2473 -0.3235  0.0815
 8209W        W28489   7.607   5.456  12.537  0.1256  0.1044  0.0013
 8210W        W28490  19.267  11.185  13.688  0.3027 -0.1514  0.0217
 8211W        W28491  17.273  18.102  12.551 -0.1386 -0.1673 -0.0453
 8212W        W28492   2.782   3.235   2.585  0.0536 -0.0903 -0.0492
 8213W        W28493   3.862   3.465  13.850 -0.2206  0.2856  0.1093
 8214W        W28494   5.759   8.302  13.103 -0.0189 -0.1874 -0.1551
 8215W        W28495   9.064   2.537  12.784 -0.2047 -0.1915  0.0120
 8216W        W28496  18.117   2.024   1.305  0.4499 -0.2689 -0.1348
 8217W        W28497  18.976  17.626   9.378 -0.1212 -0.2105  0.0945
 8218W        W28498   6.683   1.894   1.139 -0.3064  0.0095 -0.0560
 8219W        W28499  18.565  16.417   3.056  0.0060  0.1472 -0.0991
 8220W        W28500  11.690   0.467   2.261  0.4169 -0.2407  0.3297
 8221W        W28501  16.249   8.852  13.864 -0.0662  0.1525  0.3083
 8222W        W28502   4.497   5.028   1.280  0.1547  0.3791 -0.1543
 8223W        W28503  18.401   5.083  12.683  0.0918  0.1639  0.0835
 8224W        W28504   7.706   8.945  11.780  0.0052 -0.4095 -0.0516
 8225W        W28505  12.363   7.842   0.485  0.0707 -0.1594  0.1465
 8226W        W28506  14.463  17.520  12.162  0.1582  0.1878  0.1144
 8227W        W28507  19.115   7.332  13.084  0.2952  0.2989 -0.2973
 8228W        W28508  14.275   2.917   1.064 -0.0559  0.1253 -0.0031
 8229W        W28509   0.285  16.592   4.289  0.2828  0.2137  0.1551
 8230W        W28510   0.709   6.115  12.968  0.1808 -0.0155 -0.2201
 8231W        W28511   8.519   6.355   2.483 -0.0199 -0.2600  0.2748
 8232W        W28512  17.886   9.211  10.662  0.1344  0.1686  0.0386
 8233W        W28513  14.273   6.333   4.210  0.1739 -0.3152  0.0442
 8234W        W28514   0.950  17.724   0.328  0.1030  0.0663  0.1893
 8235W        W28515   8.438  11.845  12.172 -0.1990  0.1695  0.2999
 8236W        W28516   3.576  16.339   2.639  0.1521 -0.2844 -0.0966
 8237W        W28517  18.137  17.438   9.912  0.4619  0.3495 -0.1244
 8238W        W28518  16.149   1.637   5.191 -0.0890 -0.1161  0.1467
 8239W        W28519   1.661   8.060   1.559  0.1539  0.1153 -0.0349
 8240W        W28520  15.559  14.464  11.123  0.1667  0.1058  0.0824
 8241W        W28521   7.999  17.903   1.073 -0.1128 -0.0205  0.0727
 8242W        W28522  18.697   7.578   0.158 -0.0732 -0.0140 -0.1558
 8243W        W28523   9.489   0.709   1.602  0.0903 -0.1893  0.1117
 8244W        W28524   2.840  19.390  12.232  0.0624  0.2487 -0.0891
 8245W        W28525   8.762  18.410   1.757 -0.0485 -0.2270  0.1956
 8246W        W28526   5.217   3.904   2.864 -0.0939  0.3965 -0.0436
 8247W        W28527  18.036   4.841   3.201  0.1748 -0.1179 -0.0031
 8248W        W28528   7.009  11.206   2.278 -0.2486 -0.1112 -0.0510
 8249W        W28529  18.189   4.709  10.744 -0.0222 -0.0163 -0.1395
 8250W        W28530   7.251   7.724  13.890 -0.0181 -0.0715  0.1043
 8251W        W28531   6.659   7.521   4.454  0.1028 -0.0051 -0.1862
 8252W        W28532   4.874   2.986  11.495 -0.0535 -0.2204  0.3303
 8253W        W28533   1.801   8.378  12.942  0.0723 -0.1153 -0.2353
 8254W        W28534   2.310  13.328  10.244  0.3228 -0.3195  0.3094
 8255W        W28535  11.695   0.101   0.194  0.0628  0.0124 -0.1842
 8256W        W28536   1.231   0.234   0.014  0.0779  0.0906  0.0349
 8257W        W28537   5.783  12.047  13.381  0.0869 -0.2522 -0.1660
 8258W        W28538   6.776   1.486   3.406  0.4641 -0.1510  0.0172
 8259W        W28539  10.332   6.456   1.913 -0.1755  0.0432  0.0571
 8260W        W28540  12.811  15.409   4.138  0.0799  0.2732 -0.0432
 8261W        W28541   1.987   9.707   3.116 -0.0452  0.0555 -0.0844
 8262W        W28542   7.377   0.776   1.028  0.3212 -0.1408  0.2199
 8263W        W28543  17.743   1.999  13.651 -0.0635 -0.3125  0.3168
 8264W        W28544   8.253   3.677  12.701 -0.0215  0.1795 -0.1008
 8265W        W28545   2.779   2.747   2.219  0.0809  0.0401 -0.0561
 8266W        W28546  17.661  16.912   1.432 -0.1155 -0.0756  0.0112
 8267W        W28547   1.634  13.515   2.466 -0.2054  0.3717 -0.0768
 8268W        W28548  15.816   8.012  12.748  0.1061 -0.0225 -0.0290
 8269W        W28549  14.070   8.705   9.834  0.1509  0.4085 -0.0249
 8270W        W28550  17.911   2.854  13.945  0.1427  0.0379  0.1616
 8271W        W28551   9.762  15.862   4.563 -0.1150  0.1925  0.1936
 8272W        W28552  15.337  16.905  13.172 -0.0140 -0.3767  0.1490
 8273W        W28553  14.780  13.735  13.540  0.1657  0.1486 -0.0163
 8274W        W28554  11.549   5.988   9.960 -0.1783 -0.0446  0.0751
 8275W        W28555  13.141  16.754  13.849  0.0359 -0.2186 -0.1274
 8276W        W28556  17.928   5.172  12.851  0.0480  0.2510  0.0834
 8277W        W28557   8.086  12.994  10.315 -0.0212  0.5982  0.1353
 8278W        W28558   2.239  14.179   3.590  0.1986 -0.1734 -0.2182
 8279W        W28559  13.362   4.506  10.359 -0.0378 -0.0599  0.0866
 8280W        W28560  13.557   5.912  12.693  0.1822  0.0426  0.2124
 8281W        W28561  14.143   9.496   2.720 -0.0323 -0.4260 -0.0688
 8282W        W28562  14.783  13.062  11.677  0.1501  0.2335 -0.1742
 8283W        W28563  14.827   2.097   3.190  0.0071 -0.1717  0.2309
 8284W        W28564   0.931  16.519   2.490  0.0775 -0.1915 -0.3130
 8285W        W28565  16.397   0.728  12.109  0.2401  0.1519  0.2464
 8286W        W28566  12.688  15.666   3.739 -0.2103  0.2410  0.0520
 8287W        W28567   3.196  10.046  13.890 -0.3681  0.1881  0.0965
 8288W        W28568  13.221  18.985  13.369  0.3392 -0.0840  0.0643
 8289W        W28569  13.065  13.267  13.107  0.4046  0.1345  0.0362
 8290W        W28570   4.914   1.054   9.955  0.2280  0.0323 -0.3109
 8291W        W28571   4.689   6.170   2.093  0.1717 -0.3342 -0.1906
 8292W        W28572  12.300  12.623  12.704 -0.1016 -0.0993  0.3286
 8293W        W28573  16.760  10.698  10.350 -0.0064 -0.1817 -0.0021
 8294W        W28574  14.941  17.742  10.763 -0.2881 -0.1797  0.0659
 8295W        W28575  16.390   5.865   0.265 -0.0753 -0.0287  0.2808
 8296W        W28576  16.996   8.404   0.019 -0.3937 -0.2753 -0.2041
 8297W        W28577   5.536   7.071  11.514  0.1333  0.1546  0.0333
 8298W        W28578  17.996  18.646  13.924  0.1974 -0.2884 -0.0457
 8299W        W28579   1.792  10.825  10.676 -0.2120 -0.1021  0.1264
 8300W        W28580  15.937   7.672   1.874  0.0426  0.0434 -0.0765
 8301W        W28581   0.994   7.610  13.316  0.0163  0.2478  0.0313
 8302W        W28582  11.612  17.156   3.673  0.0920 -0.2063  0.2404
 8303W        W28583   0.410   2.540  11.310 -0.0786  0.1306  0.1057
 8304W        W28584  12.909  12.099   9.851  0.3368  0.0069 -0.3198
 8305W        W28585   9.508  17.387  14.236  0.1635 -0.0839 -0.1035
 8306W        W28586   0.626   0.374   2.272  0.1065  0.2352  0.2251
 8307W        W28587  10.215   8.179   1.856 -0.2588  0.1853  0.1910
 8308W        W28588   2.764  10.388   4.303  0.1238 -0.1357 -0.0479
 8309W        W28589   1.508  12.625  11.426 -0.0707  0.3108 -0.0760
 8310W        W28590  10.525  18.792   0.036 -0.2476 -0.0714 -0.1626
 8311W        W28591   7.156   4.081   2.703 -0.1942 -0.0362  0.1562
 8312W        W28592   5.851  14.486   1.250 -0.2746  0.2012 -0.4018
 8313W        W28593   4.395  10.397  11.396  0.4276 -0.3071  0.1246
 8314W        W28594   2.649   8.902  13.083 -0.1350 -0.2701 -0.1795
 8315W        W28595  10.687   4.215  13.740  0.3487  0.1491  0.2388
 8316W        W28596  12.568   8.208  14.237  0.3412  0.1302  0.1241
 8317W        W28597  16.247   5.303   0.716 -0.1065 -0.0685 -0.0850
 8318W        W28598  16.425   4.281  12.418  0.1230 -0.1245  0.2029
 8319W        W28599   7.954   6.515   0.839 -0.0177  0.1293  0.0219
 8320W        W28600  14.248  14.769   0.137 -0.2519  0.0404 -0.0749
 8321W        W28601   8.211   1.069  14.289  0.1695 -0.0831 -0.0433
 8322W        W28602   8.166   9.454  12.809 -0.0976 -0.0675 -0.0473
 8323W        W28603  14.695   6.070   4.295 -0.0410 -0.0876 -0.1281
 8324W        W28604  13.798  18.528  13.025 -0.0015  0.0609  0.0533
 8325W        W28605  12.975  11.285   3.705  0.0548  0.1838 -0.0006
 8326W        W28606   6.079   2.264  12.370  0.2982  0.2191 -0.2132
 8327W        W28607  18.135   6.485  11.998  0.1267  0.2691 -0.0521
 8328W        W28608   6.656  14.257  11.926 -0.0460 -0.2087  0.0913
 8329W        W28609   0.103  11.130  11.293 -0.1204 -0.0002  0.1759
 8330W        W28610   0.999  18.004   2.617 -0.1644  0.2369  0.2003
 8331W        W28611   1.009   0.581  11.500  0.3956 -0.1335  0.1814
 8332W        W28612   9.763  17.053  14.465 -0.2821 -0.1156  0.0030
 8333W        W28613   3.156   8.396  12.359 -0.1079  0.1404 -0.0157
 8334W        W28614   9.442  12.068  10.667  0.3438  0.0551  0.0060
 8335W        W28615  15.926   9.424  11.250 -0.1944 -0.1407 -0.0244
 8336W        W28616   2.817  13.428   0.573 -0.0022  0.1240 -0.1641
 8337W        W28617   1.292  10.070  13.231  0.1380 -0.1061  0.0882
 8338W        W28618   0.459  18.193  14.062 -0.2269  0.1467  0.1066
 8339W        W28619  11.271   8.241  14.012  0.1047  0.2315  0.0228
 8340W        W28620  10.663   5.328   1.783  0.0024 -0.1224  0.3001
 8341W        W28621  10.789   6.338   2.177  0.1808 -0.0833  0.0046
 8342W        W28622   3.971  18.362  13.482 -0.1233  0.2766  0.0086
 8343W        W28623  12.667  11.359  13.856 -0.0637  0.1795 -0.0026
 8344W        W28624   9.791   6.966   1.020  0.0697  0.4868  0.2457
 8345W        W28625  15.330  17.049   1.431  0.0461  0.1416 -0.0400
 8346W        W28626  11.168  16.262   1.468 -0.1808 -0.0251 -0.1389
 8347W        W28627   6.279   3.718   4.303  0.1420 -0.0399  0.1676
 8348W        W28628   5.631   8.318  12.654 -0.1252 -0.2540  0.1079
 8349W        W28629   5.627  16.658   0.821 -0.0550  0.1288  0.2129
 8350W        W28630  13.831  10.080   0.715 -0.3134 -0.0368  0.2668
 8351W        W28631  11.373   5.155   2.370  0.1603 -0.1467  0.0012
 8352W        W28632  13.968   0.629   3.092  0.2881 -0.1652 -0.2889
 8353W        W28633  10.461  16.469  12.043 -0.1550 -0.2374 -0.0032
 8354W        W28634   6.116  18.743   1.063 -0.1836 -0.2337 -0.2145
 8355W        W28635  18.985   3.931   1.575 -0.0455 -0.0905 -0.0226
 8356W        W28636  14.451   2.743   3.424 -0.3503 -0.1869 -0.0004
 8357W        W28637  17.445  16.581  12.251 -0.1856 -0.1173 -0.1676
 8358W        W28638  11.599  10.588  13.373 -0.0758  0.4284 -0.0728
 8359W        W28639   5.302   7.170   1.700 -0.0250 -0.3523  0.2376
 8360W        W28640   6.658  11.180   1.828 -0.0245  0.1334 -0.0068
 8361W        W28641   9.923  13.450  11.363 -0.1606  0.1256  0.0957
 8362W        W28642   9.326   9.230   0.059 -0.0700  0.0774  0.0574
 8363W        W28643   0.481   4.600  14.023  0.1808  0.0539 -0.2116
 8364W        W28644   2.457  12.526   9.881  0.0362 -0.3204  0.1796
 8365W        W28645   7.273   7.295   2.366 -0.2509  0.0824 -0.3782
 8366W        W28646   0.059  14.076  11.455  0.0398  0.0199  0.3929
 8367W        W28647  18.788  19.165   3.173 -0.3226  0.0311  0.3513
 8368W        W28648   9.513  10.597   2.280 -0.1006  0.2559 -0.0505
 8369W        W28649   5.050  14.110   2.491  0.3784  0.2112  0.2312
 8370W        W28650   8.536   4.838   3.797 -0.0006  0.0868  0.0227
 8371W        W28651  15.536  14.014   0.460  0.0468  0.0741  0.0668
 8372W        W28652  14.577  14.822   4.112  0.1065 -0.1100 -0.2217
 8373W        W28653   2.291   5.795  13.489  0.3151 -0.1821  0.1595
 8374W        W28654   1.672   8.413  13.968 -0.1033 -0.1297 -0.0483
 8375W        W28655  10.431  11.634   1.733 -0.0542  0.0100  0.1236
 8376W        W28656   8.781  16.842  11.039  0.2397  0.1117  0.0556
 8377W        W28657  19.392   1.539   2.436 -0.1663  0.3766  0.1300
 8378W        W28658  11.599   8.737   0.852 -0.0454 -0.1375  0.2123
 8379W        W28659  12.253  16.174  10.562  0.0739  0.4503 -0.1696
 8380W        W28660  17.901  11.288   0.746 -0.0186  0.1185  0.1790
 8381W        W28661   7.951  14.437  12.275  0.2226 -0.3999 -0.0615
 8382W        W28662   5.282  18.628   0.729 -0.1665 -0.0846 -0.2770
 8383W        W28663   2.446  13.728   1.535  0.1606 -0.1136  0.1234
 8384W        W28664  18.465  15.361   1.071  0.2102  0.3189  0.1491
 8385W        W28665  11.321   2.362  14.405 -0.0422  0.0303  0.0320
 8386W        W28666  18.577   0.692   1.602  0.4314 -0.0234 -0.0048
 8387W        W28667   6.637  11.695  14.349  0.0609 -0.0159 -0.2132
 8388W        W28668   5.669  16.631   0.091 -0.0547  0.1655 -0.1404
 8389W        W28669   0.197  10.271  14.047 -0.0407 -0.1315 -0.1285
 8390W        W28670   2.298   0.523   0.071  0.0052 -0.0782  0.2718
 8391W        W28671   8.119   4.302   0.104 -0.0228 -0.0226 -0.0570
 8392W        W28672   3.213   6.881  12.124 -0.0055 -0.1630  0.1336
 8393W        W28673  14.642   2.251  11.326  0.1592  0.0985 -0.0657
 8394W        W28674  10.808   8.568   4.058 -0.3978 -0.2233 -0.0864
 8395W        W28675  15.509   5.528  13.514  0.1423  0.0199 -0.2368
 8396W        W28676   9.307   4.521  10.680  0.2420 -0.1592  0.1746
 8397W        W28677  13.842  14.645  11.652 -0.0809 -0.0093 -0.2358
 8398W        W28678  17.426   5.396   2.770 -0.0630 -0.0666 -0.0064
 8399W        W28679   2.295   3.793   1.716  0.0712  0.3362  0.3358
 8400W        W28680  19.015   2.443   2.524 -0.0079 -0.1691 -0.1176
 8401W        W28681  12.437   1.748  13.698  0.2339 -0.2162  0.1280
 8402W        W28682   2.333  11.510   3.005  0.0503 -0.2627 -0.0455
 8403W        W28683   5.884   3.915  11.453  0.2274 -0.0817 -0.1651
 8404W        W28684   7.028  13.211  11.087  0.3004 -0.1431 -0.3237
 8405W        W28685  18.398  14.259   3.382 -0.2770  0.1752 -0.2120
 8406W        W28686   8.329   1.306   5.271 -0.0324  0.3131 -0.0195
 8407W        W28687   4.004  16.085  11.554  0.1020 -0.0104  0.3754
 8408W        W28688  18.259   6.803   0.693  0.0904  0.1214  0.1961
 8409W        W28689   5.164  12.659   0.159  0.3637  0.1137 -0.0860
 8410W        W28690   4.030   0.824   3.682 -0.1138  0.1739 -0.0593
 8411W        W28691   2.473  15.377   3.152 -0.3019  0.1362 -0.4006
 8412W        W28692  14.268   8.143  13.177 -0.1066 -0.1446 -0.0083
 8413W        W28693  18.130   9.041   2.430 -0.3485 -0.1514 -0.0644
 8414W        W28694   5.021  10.148   1.647  0.1970  0.2356  0.0161
 8415W        W28695  17.833  14.077  11.464  0.3214  0.0567 -0.0187
 8416W        W28696   1.102  18.804  10.471  0.0004  0.2090 -0.1260
 8417W        W28697  13.137   4.227  13.675  0.0175 -0.0965  0.0169
 8418W        W28698  17.630  15.907  14.228  0.2165 -0.3825  0.3653
 8419W        W28699  17.324  14.275   3.487 -0.2030  0.1354 -0.0979
 8420W        W28700  18.551  15.271  11.756 -0.2144  0.3338  0.3958
 8421W        W28701   4.450   7.038  12.163  0.2512 -0.3285 -0.0241
 8422W        W28702  14.657   0.512  13.712 -0.1051 -0.0264 -0.1620
 8423W        W28703   4.923   9.611  12.533  0.1078 -0.0454  0.0198
 8424W        W28704   9.873  17.274  11.822 -0.0339 -0.0666 -0.3054
 8425W        W28705  11.095  10.627  13.509 -0.3109 -0.1113  0.1663
 8426W        W28706  16.818   3.865  12.459  0.1664 -0.2487 -0.1368
 8427W        W28707  16.985  18.914   1.989 -0.4748 -0.0920  0.1179
 8428W        W28708  15.571  16.988   2.319  0.3625 -0.1468 -0.1052
 8429W        W28709  12.096   5.776   2.417  0.0148 -0.1068 -0.0314
 8430W        W28710   7.812  18.135  11.987  0.1424  0.5254 -0.1527
 8431W        W28711   7.964  16.817  14.399 -0.4215  0.3508 -0.0318
 8432W        W28712   1.225  12.726   2.159  0.5332 -0.0907 -0.0643
 8433W        W28713   0.329   9.033   0.286 -0.0785  0.1169 -0.0528
 8434W        W28714   0.969   4.697   1.874 -0.2163  0.2522  0.1135
 8435W        W28715  15.495   2.017  13.033  0.3807  0.2581 -0.2369
 8436W        W28716  18.492   9.576  12.288 -0.1929 -0.0837  0.1146
 8437W        W28717  15.464   1.648   3.072 -0.0525 -0.1758  0.0593
 8438W        W28718  14.133   6.028   0.174 -0.1264 -0.1315 -0.0573
 8439W        W28719   3.412  10.247  13.461  0.0711  0.1831  0.0468
 8440W        W28720   4.126   8.798   0.531  0.0585  0.2770  0.0016
 8441W        W28721   4.478  17.727  14.451 -0.0371  0.0949 -0.1600
 8442W        W28722  12.506  14.128   0.878  0.3842 -0.1583 -0.0803
 8443W        W28723  16.343  14.385   0.587  0.3919  0.0347  0.0125
 8444W        W28724  11.954   6.382   0.152 -0.5626  0.0632  0.1507
 8445W        W28725  11.028   3.258  14.496 -0.1219 -0.4653 -0.0481
 8446W        W28726   9.047  10.152  12.095 -0.1364  0.0220  0.0134
 8447W        W28727   1.903  13.020   3.811  0.0287  0.1704 -0.3604
 8448W        W28728   2.141   2.721   3.039 -0.0258 -0.0247 -0.2989
 8449W        W28729  13.152  17.690  12.334 -0.1066  0.2024 -0.2482
 8450W        W28730  18.949  14.357  10.329 -0.0126  0.1733  0.0845
 8451W        W28731  16.626   3.053   9.838  0.0453 -0.0458  0.1538
 8452W        W28732   1.069  16.586   0.805 -0.0597 -0.2698  0.0260
 8453W        W28733  10.462   0.560  11.224 -0.1005 -0.0880  0.0297
 8454W        W28734   1.358   9.568  14.177  0.0425  0.4282  0.0427
 8455W        W28735   5.700   7.029   3.837 -0.0835  0.0096 -0.1276
 8456W        W28736  10.336  16.753   3.137 -0.2158  0.2499 -0.1607
 8457W        W28737   8.977  11.794  10.444  0.0380  0.0423  0.4480
 8458W        W28738   8.430   7.761   0.346 -0.0823 -0.0348 -0.1773
 8459W        W28739   1.959  16.259   3.995  0.1995 -0.0996  0.1569
 8460W        W28740   6.069   2.251  11.420 -0.0168  0.0332 -0.0043
 8461W        W28741  17.958  11.295  13.623  0.3406 -0.1369 -0.2151
 8462W        W28742   8.356  13.637   3.324 -0.2723 -0.0706 -0.2188
 8463W        W28743   1.702   0.884  12.275 -0.1914  0.1269 -0.1933
 8464W        W28744   0.920   2.923   2.602 -0.0762  0.1970  0.1511
 8465W        W28745   7.163  12.384  12.744 -0.0049 -0.0753 -0.1495
 8466W        W28746   6.128  15.256  12.776 -0.1178  0.1829  0.3121
 8467W        W28747  13.181  16.269   3.991 -0.1559 -0.3003  0.2651
 8468W        W28748  14.733   6.439   0.745 -0.0110 -0.2197  0.1812
 8469W        W28749   0.839  10.291   0.807 -0.3389 -0.1263 -0.0826
 8470W        W28750   0.688  15.183   0.680 -0.1903  0.1056  0.1344
 8471W        W28751   5.793   6.066  11.600 -0.0933  0.0648  0.0254
 8472W        W28752  11.411  14.766  10.376  0.1570 -0.3082  0.2217
 8473W        W28753  11.060   4.743   1.428  0.1062 -0.0012 -0.2092
 8474W        W28754   8.709   9.596  11.289 -0.0715 -0.2544 -0.1877
 8475W        W28755  18.490   6.554   4.097 -0.0497  0.0924 -0.0968
 8476W        W28756   2.898   2.078  13.621  0.1637 -0.0018 -0.1153
 8477W        W28757   3.531  10.630   9.897 -0.0782 -0.0085 -0.1456
 8478W        W28758   4.342   4.314   3.205 -0.0800  0.1674  0.1592
 8479W        W28759  15.064   6.480   1.226  0.1022 -0.0376 -0.2225
 8480W        W28760  16.021  11.017   2.098 -0.0338 -0.2458 -0.1103
 8481W        W28761   1.848  14.717  12.681 -0.0327 -0.0277 -0.1310
 8482W        W28762   1.430   0.260   1.602 -0.0951  0.1613 -0.1583
 8483W        W28763  14.028  17.557   1.273 -0.0419 -0.2594 -0.0684
 8484W        W28764  10.981  18.996   2.893  0.0665  0.0323  0.1607
 8485W        W28765  17.415   7.726  11.082  0.2191  0.0052 -0.0562
 8486W        W28766   5.684  17.298   0.063 -0.0434 -0.2163 -0.0633
 8487W        W28767   7.317  15.317   3.517 -0.1751  0.0671 -0.0747
 8488W        W28768  17.275   2.038  13.877  0.0609 -0.1288 -0.0242
 8489W        W28769  12.385   8.685  11.266 -0.1126 -0.1002 -0.2294
 8490W        W28770  12.181   7.400   1.938  0.0612  0.0493 -0.1186
 8491W        W28771  15.049  13.038   0.324 -0.1283 -0.2777 -0.2530
 8492W        W28772   1.264  19.202   0.409  0.0252  0.0128 -0.0800
 8493W        W28773   6.757   7.674  14.036  0.1203 -0.1450  0.1672
 8494W        W28774   9.680  10.708  10.841 -0.2078 -0.2759  0.3862
 8495W        W28775  14.481   2.071  12.788 -0.3014  0.2478 -0.1451
 8496W        W28776  15.811   6.165   4.183  0.0451  0.0526  0.0975
 8497W        W28777   8.935  10.182  10.478 -0.0521  0.0172 -0.2389
 8498W        W28778   1.761   2.053  12.089 -0.0479  0.1296 -0.1775
 8499W        W28779   6.010   7.404   3.792 -0.2157  0.0727 -0.3743
 8500W        W28780  11.528  19.068   0.452 -0.1867  0.1713 -0.1161
 8501W        W28781  16.497   3.026   1.773  0.0512 -0.1233  0.1170
 8502W        W28782  16.980   9.780  13.327  0.2207  0.0536 -0.2680
 8503W        W28783  14.353  10.168   1.099  0.2328  0.0226  0.1344
 8504W        W28784  18.107   9.281  12.540 -0.1197  0.1363 -0.0010
 8505W        W28785  18.816  12.149   2.878 -0.0583  0.0494  0.0537
 8506W        W28786  17.914   5.577  13.207 -0.1263 -0.0445 -0.1159
 8507W        W28787  16.578   7.735  11.734  0.1252  0.2580  0.3686
 8508W        W28788  17.960   8.599   1.673 -0.1667  0.0231  0.0218
 8509W        W28789   1.289  13.841  11.589 -0.1914  0.1118 -0.3669
 8510W        W28790   7.007   2.122   1.496 -0.0549  0.0357 -0.4350
 8511W        W28791  13.291   4.524  10.926  0.0290  0.1380  0.0040
 8512W        W28792  16.358   5.264  12.514 -0.0701 -0.1372 -0.1886
 8513W        W28793  15.902   2.906   2.755 -0.2461 -0.3270 -0.0394
 8514W        W28794  14.083   4.350  11.494  0.0170 -0.2620 -0.0612
 8515W        W28795  12.839   6.881   3.319 -0.3682 -0.0091 -0.0861
 8516W        W28796  13.813  15.520   3.672  0.0703 -0.1532  0.1387
 8517W        W28797   2.980  17.750  13.032 -0.0460 -0.4517  0.2117
 8518W        W28798  13.542   8.648   1.256  0.1058  0.1349  0.2509
 8519W        W28799  16.720   2.906  11.307  0.3337  0.2513 -0.1258
 8520W        W28800  16.465   2.785  12.400  0.0875  0.0090  0.2279
 8521W        W28801   1.865  16.754   4.039 -0.3071 -0.0035  0.0839
 8522W        W28802  16.961  14.594   1.829 -0.3268 -0.2278 -0.0307
 8523W        W28803   3.878  11.928   0.130  0.0480  0.0506  0.0204
 8524W        W28804  14.120  15.744   2.886 -0.1271  0.0189 -0.0920
 8525W        W28805   2.626  12.858   1.383 -0.2306  0.2895 -0.0462
 8526W        W28806  15.807  15.563   2.017  0.3397 -0.0591 -0.1001
 8527W        W28807   2.113  14.052   0.279 -0.0329 -0.0811  0.1096
 8528W        W28808   5.450   6.745   4.153  0.0583 -0.0265  0.2359
 8529W        W28809   9.854   6.012   2.465  0.1755  0.1286 -0.2858
 8530W        W28810  14.514   4.786  10.640  0.1253 -0.1131  0.0382
 8531W        W28811  18.571   0.561  14.344  0.2269  0.1134  0.1352
 8532W        W28812   2.867   3.826  12.119  0.4093 -0.1995  0.2468
 8533W        W28813  10.075   8.632  14.242  0.4213 -0.0722 -0.4188
 8534W        W28814   5.606  16.593  11.155 -0.0431 -0.0732  0.0404
 8535W        W28815   7.699   8.421   2.468  0.2271 -0.1253 -0.2409
 8536W        W28816  17.299   0.456  11.080 -0.0147  0.0670  0.1190
 8537W        W28817   8.750  18.625   9.949 -0.4088 -0.2713 -0.0693
 8538W        W28818  11.394  19.396  13.796  0.2118 -0.1050 -0.0105
 8539W        W28819  18.851  18.400   1.495  0.3864  0.1233  0.1854
 8540W        W28820   6.205  19.373   0.165 -0.2942  0.0717 -0.2209
 8541W        W28821   4.954   0.521   4.062  0.1121 -0.1718  0.0243
 8542W        W28822   8.907   4.802   4.684 -0.1353  0.1188  0.1857
 8543W        W28823  18.365  11.711  12.966 -0.0543  0.1329  0.1243
 8544W        W28824   9.302   3.559   3.504 -0.0229 -0.1660  0.1092
 8545W        W28825   0.078   0.936   1.856  0.0901  0.3823 -0.0443
 8546W        W28826  18.627   6.541   2.812 -0.0540 -0.0213 -0.3664
 8547W        W28827   8.739  11.251  12.634 -0.1544 -0.3677 -0.2689
 8548W        W28828  12.210  12.349   3.802  0.0985 -0.3460  0.1133
 8549W        W28829  12.843   1.964   4.101  0.0935  0.0360 -0.0006
 8550W        W28830   8.098  14.217  14.059  0.0363 -0.1392 -0.2631
 8551W        W28831   9.203  15.847   1.989  0.0944  0.5083  0.0942
 8552W        W28832  15.776  13.429  14.443 -0.1210  0.1566 -0.0793
 8553W        W28833   7.741   8.795   3.269 -0.0097 -0.0454  0.0813
 8554W        W28834  16.270  11.362   2.413 -0.2328 -0.1792  0.0074
 8555W        W28835  13.513  11.269   3.424 -0.0391  0.2004 -0.1605
 8556W        W28836  10.094  17.712  12.566  0.1529 -0.0258 -0.1359
 8557W        W28837   4.318   6.526   2.170 -0.0101 -0.3361 -0.1206
 8558W        W28838  14.239  16.303   3.031 -0.0363  0.2522  0.3992
 8559W        W28839   8.664  17.853   0.440 -0.1537  0.1874 -0.1060
 8560W        W28840  15.498  17.821   0.726 -0.0220  0.4208  0.2764
 8561W        W28841  10.018  16.129  14.012  0.0408 -0.0347  0.0910
 8562W        W28842  11.734  18.239   2.622  0.2260  0.3212  0.2951
 8563W        W28843  17.822   5.917  10.281 -0.0242 -0.1257 -0.0936
 8564W        W28844   8.918  15.146  12.541  0.1752  0.0135  0.0785
 8565W        W28845  14.562   9.608   1.862 -0.0095 -0.1183  0.1456
 8566W        W28846  16.420  16.101   1.254 -0.1846 -0.1058 -0.0344
 8567W        W28847  10.696   8.188  14.307 -0.1492 -0.3094  0.1203
 8568W        W28848   6.948   1.704   0.679  0.2440  0.2658 -0.0261
 8569W        W28849   4.066   6.314   3.149 -0.1074 -0.3659 -0.1224
 8570W        W28850   2.871  13.084  11.117 -0.3411  0.3636  0.5168
 8571W        W28851   0.224  15.940  13.497  0.0689 -0.2606 -0.0302
 8572W        W28852  15.636   0.389   1.166  0.0488 -0.2254  0.2562
 8573W        W28853  18.515  13.824   4.085 -0.3673  0.2816 -0.2886
 8574W        W28854   5.573   3.924  13.401  0.5618 -0.0325 -0.1047
 8575W        W28855   2.474  15.807   2.865 -0.0234  0.1817 -0.0705
 8576W        W28856   3.231   2.642  12.619 -0.1724  0.1303 -0.3720
 8577W        W28857   1.060  18.819   4.173  0.1023  0.1882  0.3110
 8578W        W28858  10.518  11.632  11.928  0.2413  0.0081  0.5596
 8579W        W28859   6.223  18.566  13.281  0.0651  0.2581 -0.2452
 8580W        W28860   6.738   7.335   0.884 -0.2308  0.2358 -0.2182
 8581W        W28861  14.106   3.772  11.917 -0.0492 -0.1022 -0.3447
 8582W        W28862  10.464  12.957  11.264  0.1581 -0.0923 -0.1169
 8583W        W28863   2.212   2.824  11.892 -0.1481 -0.1508  0.0229
 8584W        W28864   2.627  15.303  12.567  0.0117  0.0546 -0.1977
 8585W        W28865   3.886   3.811  12.121  0.2105 -0.1217 -0.1480
 8586W        W28866   7.041   3.908  12.010  0.0331  0.1945  0.2271
 8587W        W28867   4.195   1.627  12.467  0.0045  0.3488 -0.1603
 8588W        W28868  19.159  13.537   1.208 -0.2734  0.1194 -0.2640
 8589W        W28869   1.733   3.105   4.023  0.0335 -0.1184  0.4231
 8590W        W28870   4.197  17.472   0.271 -0.0032  0.1036  0.3116
 8591W        W28871  19.419  10.085  11.387 -0.1977 -0.0650  0.0769
 8592W        W28872  15.989  13.978   1.538  0.2127  0.1846  0.0308
 8593W        W28873   7.653   6.577  11.925 -0.1155 -0.1608 -0.4562
 8594W        W28874   8.946   6.150   2.732 -0.2043 -0.0733  0.2785
 8595W        W28875   7.653   4.943   1.333 -0.4817  0.0775  0.0996
 8596W        W28876   6.463   6.904   2.707  0.1865  0.0770 -0.0336
 8597W        W28877  11.480   0.682   4.128 -0.2406  0.1918  0.0114
 8598W        W28878  13.118  12.605  12.609  0.2815  0.2334  0.0684
 8599W        W28879   9.719  18.777   3.470  0.2316  0.1169  0.1028
 8600W        W28880   1.982  13.567  12.189 -0.0999 -0.1452  0.2405
 8601W        W28881   1.863   1.961   4.359  0.2777 -0.0313  0.0159
 8602W        W28882  14.722  15.658   3.875 -0.2000 -0.0272  0.1692
 8603W        W28883   9.326  11.644   2.686  0.1126 -0.5244  0.2656
 8604W        W28884  15.940   0.653   3.165  0.0887 -0.0532  0.1195
 8605W        W28885  13.253  10.226   1.752  0.2908 -0.0093  0.3405
 8606W        W28886   8.504   7.539   4.876 -0.0419 -0.2302  0.0195
 8607W        W28887  10.442   2.695  14.173 -0.0626  0.1164  0.0430
 8608W        W28888  15.741  10.197  11.763  0.2471  0.1747 -0.1275
 8609W        W28889   3.884   2.631  11.980 -0.3061  0.0980  0.2168
 8610W        W28890   0.326  15.727   3.886 -0.0811  0.1195  0.0844
 8611W        W28891   9.555   5.630  11.428 -0.0525  0.1695 -0.1570
 8612W        W28892   5.307   6.880  11.934  0.0661 -0.0287  0.0694
 8613W        W28893  15.997   5.263  13.969 -0.1334  0.0752  0.0571
 8614W        W28894  17.462   7.683  12.412  0.0758 -0.0532  0.0532
 8615W        W28895  10.960  12.120  11.375  0.2297 -0.0623  0.2875
 8616W        W28896   8.080   8.700  13.158 -0.1392 -0.0974  0.2112
 8617W        W28897  11.224  14.003  10.633 -0.1100  0.0368  0.1979
 8618W        W28898  18.932  10.407  13.191 -0.2274 -0.2500  0.2555
 8619W        W28899  17.803   5.831   3.202 -0.1153 -0.0035 -0.1502
 8620W        W28900  10.709   4.462   0.257 -0.1642 -0.0637 -0.2319
 8621W        W28901  15.037   3.123   1.708  0.2579  0.1970  0.1126
 8622W        W28902  10.675  17.668   1.585 -0.2121  0.0935 -0.1536
 8623W        W28903  13.849   1.783   4.199 -0.0697 -0.3515 -0.0583
 8624W        W28904   2.772  10.626   2.572  0.1301  0.1387  0.0635
 8625W        W28905  19.315   9.260  11.167  0.2580  0.1765 -0.1711
 8626W        W28906  13.339   2.742   3.012  0.3524  0.1216 -0.0409
 8627W        W28907   3.928   7.617   4.021 -0.2444 -0.1193  0.1445
 8628W        W28908  12.483   2.620   2.258  0.1872 -0.1075 -0.0400
 8629W        W28909   5.042  12.417  12.428 -0.2381  0.1819 -0.0227
 8630W        W28910   8.657  14.127   0.516  0.1399 -0.0543  0.0051
 8631W        W28911   5.371   4.282  11.467  0.1745  0.2613 -0.1309
 8632W        W28912  17.821  10.174   1.031 -0.1605 -0.0559 -0.0060
 8633W        W28913  14.800   9.747  12.049  0.0394 -0.0102 -0.2293
 8634W        W28914   2.994  15.290  11.579 -0.1728 -0.1717  0.1210
 8635W        W28915   5.313  10.758  10.910  0.0175 -0.0638  0.1947
 8636W        W28916  15.898   4.767  12.925  0.3962 -0.2134  0.0556
 8637W        W28917  15.507   2.314  11.978  0.0420  0.1465 -0.2583
 8638W        W28918   7.175  12.874   0.543  0.1028 -0.1809 -0.2853
 8639W        W28919   5.256  10.769   2.250 -0.1833  0.2807 -0.1061
 8640W        W28920   0.773  16.574   9.031 -0.2339 -0.2143 -0.3221
 8641W        W28921  14.962  16.380   3.836 -0.0309  0.2892  0.3401
 8642W        W28922  18.358   0.027  12.935 -0.0996 -0.0500  0.0493
 8643W        W28923  10.210  14.765  11.424  0.0061 -0.1251 -0.0254
 8644W        W28924   6.194   1.574  11.066  0.1962 -0.2391 -0.2973
 8645W        W28925   9.479  14.834   4.194  0.0295 -0.2168 -0.1499
 8646W        W28926  16.363  15.597  13.209  0.1337  0.1973  0.0979
 8647W        W28927   8.978   0.030  13.755 -0.0395  0.5076  0.1310
 8648W        W28928  12.483   2.439  12.272  0.0122 -0.1489 -0.1220
 8649W        W28929   0.878  11.011   2.181 -0.0257 -0.1417  0.1253
 8650W        W28930   1.043  14.489  10.464 -0.1443 -0.3182 -0.1808
 8651W        W28931   9.767   3.177   2.729 -0.0819  0.0515  0.0797
 8652W        W28932  18.340  13.912  11.596  0.0027 -0.0371  0.3241
 8653W        W28933   1.583   0.514  13.669  0.0341 -0.0804 -0.1276
 8654W        W28934  16.860   6.500   1.208 -0.4055  0.2654  0.0130
 8655W        W28935   8.232  17.430  13.107  0.2540  0.1343 -0.1013
 8656W        W28936  12.456   5.450  12.887  0.2278 -0.3919  0.1597
 8657W        W28937  18.864  10.164  10.601 -0.0307 -0.2466  0.1624
 8658W        W28938   3.350  12.192  14.153  0.1436 -0.0431 -0.1603
 8659W        W28939   0.316  12.573   0.231 -0.3153 -0.3655 -0.1708
 8660W        W28940  10.321  17.769  10.876 -0.2983 -0.1406 -0.1138
 8661W        W28941   5.817   7.701   3.370 -0.0692 -0.1686 -0.2252
 8662W        W28942  14.807  17.580   1.059 -0.0654  0.0961 -0.2993
 8663W        W28943  16.657  17.921   0.555 -0.2419  0.1523  0.1971
 8664W        W28944  17.738  19.233   1.814  0.1229  0.1451 -0.0154
 8665W        W28945  12.636   2.357  13.705  0.0256 -0.0921  0.1402
 8666W        W28946  18.250   2.229  13.601  0.0495  0.1020 -0.0299
 8667W        W28947  18.062   2.599  12.584  0.1519  0.2040  0.2713
 8668W        W28948   6.002  14.410   1.788 -0.2799  0.0375 -0.2822
 8669W        W28949   9.110  10.938   4.678  0.1780 -0.0710  0.0356
 8670W        W28950   4.756  12.158   0.303 -0.0377  0.0923 -0.2238
 8671W        W28951   0.791   7.903   3.045 -0.1248 -0.1373 -0.5289
 8672W        W28952   7.679  12.524   1.895  0.2766  0.3294  0.2596
 8673W        W28953   9.898  18.493  11.437 -0.0332 -0.3630  0.0201
 8674W        W28954  11.037  16.357   1.994  0.1244 -0.0475 -0.0673
 8675W        W28955  18.233  10.926  12.848  0.0096 -0.0198 -0.0551
 8676W        W28956  15.450  10.680  14.186 -0.1354 -0.1129 -0.0678
 8677W        W28957  13.276   0.034  13.157  0.0048 -0.0322  0.1575
 8678W        W28958  12.411   6.274  13.749 -0.0005 -0.0185  0.0551
 8679W        W28959  12.092  10.717  12.610 -0.0871  0.0943  0.0736
 8680W        W28960   2.038   1.590   2.848 -0.3661  0.3790 -0.0596
 8681W        W28961  17.801  12.221  12.097 -0.1205  0.1282 -0.0658
 8682W        W28962  15.671   3.865  11.041  0.0885  0.0425  0.2672
 8683W        W28963  12.836  14.790   1.864  0.0749 -0.1878  0.0025
 8684W        W28964  11.158  16.336   9.553  0.1273 -0.1312  0.0465
 8685W        W28965  17.351   6.008   0.785 -0.0930  0.0410  0.1385
 8686W        W28966   2.453   1.652   0.164 -0.1516  0.1982  0.3847
 8687W        W28967   9.047   0.855  12.493 -0.1665  0.2298  0.1786
 8688W        W28968  15.208   9.186  12.697 -0.0484 -0.1553 -0.0733
 8689W        W28969   5.310  17.979   2.596  0.1787  0.0784 -0.0114
 8690W        W28970   6.733   9.522   0.891  0.2582  0.0135  0.2259
 8691W        W28971   0.820  14.731   0.770  0.2193 -0.1668  0.1646
 8692W        W28972   0.284   3.090  12.334  0.2871  0.3467  0.0133
 8693W        W28973   2.247   8.030  11.581 -0.1220  0.0232  0.0719
 8694W        W28974   1.972   2.381  10.937  0.0776  0.0192 -0.2668
 8695W        W28975   3.122   3.923   1.462 -0.1437 -0.1358 -0.4324
 8696W        W28976  13.273  18.951   4.329  0.1077  0.0409  0.0509
 8697W        W28977  10.272  17.417   1.333 -0.3648  0.2003  0.0004
 8698W        W28978   7.652  17.711  12.302  0.3438 -0.3093  0.0440
 8699W        W28979   2.213  12.946   2.951  0.0795 -0.0433 -0.1981
 8700W        W28980  10.257  13.433  12.142  0.0608 -0.1180  0.0622
 8701W        W28981   5.022   8.140  13.549 -0.0038 -0.1729 -0.1929
 8702W        W28982  11.894  18.863   1.322 -0.1952  0.0610 -0.2638
 8703W        W28983  12.572  15.227   0.814  0.1359 -0.0490 -0.1735
 8704W        W28984   3.803  10.178   3.215 -0.3567  0.3161  0.2504
 8705W        W28985  17.070  18.872   2.474  0.0164  0.1470 -0.1651
 8706W        W28986  12.995   1.133   0.251 -0.3364 -0.1525 -0.1197
 8707W        W28987  13.395   1.392   0.493 -0.5279  0.1589 -0.3296
 8708W        W28988   5.948  14.733  12.627 -0.2426  0.0868 -0.1446
 8709W        W28989  10.964  13.756   3.526 -0.0953 -0.0472  0.0101
 8710W        W28990   6.006   4.465  12.139  0.3201 -0.0616  0.1639
 8711W        W28991  10.140   6.594  13.599  0.5069  0.1511 -0.0741
 8712W        W28992   6.390   8.080  13.873 -0.4059  0.0703 -0.0994
 8713W        W28993   6.985  11.428   0.714  0.0138 -0.0277 -0.0035
 8714W        W28994   7.562  15.305  10.707 -0.2613 -0.3655 -0.0358
 8715W        W28995  13.660   4.769   1.086 -0.1165 -0.1218 -0.1706
 8716W        W28996  16.248   1.607   0.251 -0.1404 -0.1736  0.1369
 8717W        W28997   9.837  16.899  13.377  0.0523  0.1143  0.0958
 8718W        W28998   7.383  13.510   3.302 -0.0099 -0.2441 -0.1357
 8719W        W28999   9.725   4.847  10.537 -0.2333 -0.1777 -0.1638
 8720W        W29000  17.932   0.648  13.672  0.1903 -0.1190 -0.0268
 8721W        W29001   3.206  15.796   0.038 -0.0890  0.3145 -0.1581
 8722W        W29002  16.947   2.780  10.848 -0.3050  0.0498  0.1651
 8723W        W29003   0.347  12.960  12.199 -0.1121 -0.0793  0.2229
 8724W        W29004  19.132   3.314  14.140  0.0927 -0.0485 -0.3843
 8725W        W29005  10.486  15.704  11.625 -0.3464 -0.1189  0.0948
 8726W        W29006  15.913  14.146  11.925 -0.1824 -0.0495  0.1030
 8727W        W29007  13.147   2.171   2.938 -0.1738 -0.2492 -0.0171
 8728W        W29008   6.161   7.830  14.322 -0.0122  0.0712 -0.2193
 8729W        W29009  16.698  12.028  11.126  0.1219  0.1181 -0.0319
 8730W        W29010   0.931   3.240  14.408 -0.1288  0.3572  0.0455
 8731W        W29011   5.747  17.916  12.518 -0.2083 -0.2398 -0.2975
 8732W        W29012   9.335  14.918   0.550 -0.0612  0.0848  0.1801
 8733W        W29013   2.206   4.040   0.639  0.1036 -0.0408  0.1600
 8734W        W29014   3.062   2.637   3.972  0.4678 -0.1839  0.1113
 8735W        W29015  17.698   8.952  12.451 -0.2025  0.1103 -0.0485
 8736W        W29016   8.331   8.895   3.915 -0.2273  0.0282 -0.0974
 8737W        W29017  10.394   3.566  12.289 -0.1126 -0.1648  0.2495
 8738W        W29018   5.595  13.126  11.220 -0.0486 -0.3902  0.1637
 8739W        W29019  13.716  11.401   2.015 -0.0567 -0.0043 -0.0298
 8740W        W29020   6.236   7.811   2.602  0.0685 -0.0650  0.0623
 8741W        W29021   4.366   8.632   1.490 -0.2555  0.2849  0.2057
 8742W        W29022   1.827   0.101  13.709 -0.0063 -0.0462  0.3541
 8743W        W29023   3.219  11.146   2.915 -0.1256 -0.2851  0.2645
 8744W        W29024  19.386  11.173   2.143 -0.2416 -0.2958  0.0678
 8745W        W29025   6.049   0.819  14.142  0.2229  0.1673 -0.0930
 8746W        W29026   6.364   8.064  11.020 -0.0637  0.1652 -0.1338
 8747W        W29027   6.527  18.187   2.663  0.1266 -0.1202 -0.2191
 8748W        W29028  16.772  14.176   3.102 -0.2149 -0.1701  0.1026
 8749W        W29029   2.811   2.984   1.768  0.0091  0.0581 -0.0178
 8750W        W29030  16.563  10.491   2.789 -0.4035  0.1321  0.1151
 8751W        W29031  12.633  18.466  11.329 -0.1433 -0.1305 -0.2503
 8752W        W29032   0.112  14.276  12.814 -0.0150 -0.0977  0.0767
 8753W        W29033  15.643  18.905  13.384 -0.1584 -0.0449  0.1785
 8754W        W29034  14.356  15.625  13.332 -0.1138 -0.5103 -0.0786
 8755W        W29035  10.274  10.862   0.481  0.0728 -0.0837 -0.2947
 8756W        W29036   2.912   9.778   2.135 -0.0244  0.2273 -0.0558
 8757W        W29037  15.772   2.031   2.978 -0.1098  0.2656  0.3156
 8758W        W29038  11.331   6.035  13.577  0.3233 -0.1953  0.1349
 8759W        W29039   7.159  10.039   3.643 -0.3689  0.2678 -0.3899
 8760W        W29040   3.075  15.776  11.492  0.1534 -0.0058 -0.0541
 8761W        W29041   8.717  19.135   2.954  0.0821  0.3482 -0.0591
 8762W        W29042   0.771   1.979  14.134 -0.0324  0.1334 -0.3001
 8763W        W29043   6.928   8.858  13.830  0.3074 -0.0810  0.2100
 8764W        W29044   7.391   7.726   3.524  0.0022  0.1308  0.3407
 8765W        W29045  12.627  15.632  12.224 -0.0430 -0.1790  0.2120
 8766W        W29046   6.720  10.421  13.690  0.1044  0.1708 -0.0369
 8767W        W29047  16.947   0.815  12.227  0.0508  0.2818 -0.0112
 8768W        W29048  10.248  12.313   0.280 -0.0420 -0.1826  0.0662
 8769W        W29049  12.375  15.541  12.660 -0.0922  0.2000 -0.1306
 8770W        W29050   7.664  11.304   1.788 -0.2174 -0.2662  0.2238
 8771W        W29051   1.820   3.844   0.396 -0.2033 -0.2454 -0.1418
 8772W        W29052   6.875   2.162   0.205 -0.2647  0.1726 -0.1501
 8773W        W29053  11.098   5.770  11.696  0.1332 -0.0732  0.0087
 8774W        W29054   8.035  12.862   2.592 -0.0967  0.0465 -0.1849
 8775W        W29055  18.013   8.117   0.315  0.2292  0.0611  0.0718
 8776W        W29056   9.990   8.245  13.336 -0.1082 -0.0516  0.2259
 8777W        W29057   3.324  16.541   1.178  0.0985  0.2154  0.0747
 8778W        W29058  13.830   1.095  11.867 -0.3875  0.1913 -0.0677
 8779W        W29059   6.770   6.841   1.080  0.0025  0.2121  0.0615
 8780W        W29060  13.284  15.766  11.996  0.0041 -0.2800  0.2179
 8781W        W29061  11.076  14.831   0.664 -0.0471 -0.1143 -0.0275
 8782W        W29062   0.705   0.870   2.163 -0.1054 -0.0316  0.0406
 8783W        W29063  14.988  19.097   2.210  0.0475  0.0575  0.2291
 8784W        W29064   4.145   1.302  13.278  0.0944 -0.1492  0.2164
 8785W        W29065   2.452   7.388   2.992  0.1124 -0.3042  0.2329
 8786W        W29066   9.518  16.824   0.991  0.1954  0.1463 -0.0177
 8787W        W29067   1.263  19.320   3.158  0.2527  0.4326 -0.0375
 8788W        W29068  12.840  13.244   1.735 -0.1497  0.2684 -0.0904
 8789W        W29069  14.077   2.647   0.686  0.0849  0.0662  0.1228
 8790W        W29070  10.786  13.111  10.837 -0.1393 -0.4085 -0.1648
 8791W        W29071  19.151  13.320  13.399  0.0754  0.2088  0.1585
 8792W        W29072  15.417  17.626   2.166  0.1234 -0.3423  0.2503
 8793W        W29073  10.156  12.406   2.302 -0.0958  0.2607 -0.1199
 8794W        W29074  15.180   3.300   2.347  0.0141 -0.0973  0.1118
 8795W        W29075   2.152  13.431  10.712 -0.1425  0.3036 -0.3539
 8796W        W29076   7.180   5.988  11.456 -0.0060  0.0648 -0.0365
 8797W        W29077  15.344   3.737  12.822 -0.0869  0.0218 -0.2113
 8798W        W29078   1.172  17.130   3.652 -0.1192 -0.1735  0.0490
 8799W        W29079   4.213  13.134  12.675  0.0901  0.1217  0.3580
 8800W        W29080   8.871  15.610  14.174  0.0602  0.0401 -0.1348
 8801W        W29081  16.382   7.491  10.443  0.0206  0.0962  0.3254
 8802W        W29082   8.986  12.379  10.609  0.1713 -0.0349 -0.0400
 8803W        W29083   6.319  11.623   1.907  0.0324 -0.0034 -0.2019
 8804W        W29084   8.843   2.779   1.425  0.1533 -0.0220 -0.1971
 8805W        W29085  13.080  11.975   1.361  0.2176 -0.2258  0.2045
 8806W        W29086  15.366   6.289  12.209 -0.0523 -0.0473 -0.0917
 8807W        W29087  18.617   4.280  13.138 -0.4378 -0.2845  0.3759
 8808W        W29088   2.770   5.449  12.150  0.0347  0.0058 -0.1184
 8809W        W29089   7.277  17.446  14.151  0.3238  0.1905 -0.1764
 8810W        W29090  11.388   2.680   3.243  0.2654  0.1333  0.0312
 8811W        W29091   6.135  12.378  10.326 -0.0004 -0.0953 -0.1279
 8812W        W29092  14.041  10.516   1.023  0.1468 -0.0788 -0.3214
 8813W        W29093   6.132  11.797  11.490 -0.1130  0.1745  0.0247
 8814W        W29094  12.851  17.341  13.943  0.1556  0.1055 -0.1231
 8815W        W29095   9.246   6.909  11.225 -0.0674 -0.0507  0.0709
 8816W        W29096   0.154   8.558   0.297 -0.3743 -0.0562  0.0150
 8817W        W29097   4.308  11.393  11.581 -0.3044  0.2349  0.0271
 8818W        W29098   3.974   2.486   4.900 -0.2490 -0.1243  0.1624
 8819W        W29099  10.489  13.807  13.303  0.2368 -0.0687 -0.1151
 8820W        W29100  18.514   0.385  13.772  0.1719 -0.1976  0.0717
 8821W        W29101   7.842   5.514  13.335  0.0744  0.0757 -0.2775
 8822W        W29102   5.704  12.623  10.141  0.0317 -0.0008 -0.0606
 8823W        W29103   4.817   0.428   3.118 -0.0325 -0.1510 -0.0008
 8824W        W29104   2.830  10.201  12.159 -0.2171  0.0408  0.1058
 8825W        W29105   3.705   0.310  11.526 -0.3561 -0.0829 -0.0009
 8826W        W29106   5.314  13.799   2.173 -0.3626 -0.0477  0.0061
 8827W        W29107   5.197   3.679  10.873  0.0213  0.0857 -0.1683
 8828W        W29108  10.933   3.682   1.958  0.0384  0.1205  0.0781
 8829W        W29109   3.004  11.592   1.133 -0.3118  0.2226  0.1228
 8830W        W29110   1.054   9.743   3.363 -0.0958  0.4219  0.0981
 8831W        W29111   6.492   4.702   4.523 -0.2993  0.0080  0.0637
 8832W        W29112   6.407  11.514   1.430  0.1277  0.1254  0.3130
 8833W        W29113   7.414   3.121  13.951  0.3307  0.1476  0.0134
 8834W        W29114   7.093   2.850   4.059 -0.1345 -0.3924  0.2475
 8835W        W29115  18.940   5.284  12.061  0.1036  0.1495 -0.1759
 8836W        W29116  12.861   9.656   1.342  0.2130 -0.5381  0.0806
 8837W        W29117  14.862   1.096   0.306  0.0647  0.0684  0.1029
 8838W        W29118   3.449   8.234   2.293  0.3620  0.0823  0.0572
 8839W        W29119  15.360   1.645   3.939  0.1803  0.0867  0.0457
 8840W        W29120  17.461  17.679  12.367 -0.2056 -0.3779  0.0575
 8841W        W29121  11.445   3.858   2.899  0.1747 -0.0395 -0.1412
 8842W        W29122   1.598  19.267  12.418  0.0097  0.0422  0.0683
 8843W        W29123   9.513   9.956   0.160 -0.3305 -0.0527  0.4208
 8844W        W29124  16.766   1.935   1.616 -0.0460  0.2549 -0.1881
 8845W        W29125  18.870   5.756  11.909  0.1828  0.0641 -0.1278
 8846W        W29126  17.952  18.923  12.612  0.1688 -0.0052  0.1338
 8847W        W29127  10.646  17.549  13.295  0.2486 -0.3113  0.1972
 8848W        W29128  14.404   9.109   3.525  0.1586  0.0550 -0.2037
 8849W        W29129   3.010   4.241   2.743 -0.1056  0.0881  0.1780
 8850W        W29130  10.676   8.904  13.640  0.0738  0.1705  0.0330
 8851W        W29131   7.363  18.883   1.182 -0.1246  0.3316 -0.0908
 8852W        W29132   9.570  16.434  11.491  0.0707  0.0334 -0.0962
 8853W        W29133   6.311  13.747  10.063  0.0979 -0.0680 -0.1320
 8854W        W29134   3.848   8.546   2.820  0.1375 -0.5242 -0.1481
 8855W        W29135  10.039  10.935  13.609  0.0494  0.2632  0.3171
 8856W        W29136  14.994   1.740   2.911 -0.2005  0.0707 -0.0153
 8857W        W29137   0.697  15.766  11.096  0.3729  0.2242  0.1319
 8858W        W29138  13.666   4.213  14.107  0.2119  0.0476  0.0026
 8859W        W29139   7.474   4.982  11.441  0.1410 -0.2858  0.0344
 8860W        W29140  10.502  16.827  10.638 -0.3731  0.1688 -0.3830
 8861W        W29141  12.203   5.058   0.742  0.2563  0.3680  0.3071
 8862W        W29142  14.671  17.000   3.017  0.1884 -0.2050 -0.0570
 8863W        W29143   8.847  17.425   3.504  0.0613 -0.3006  0.0726
 8864W        W29144  13.450  16.213   3.573  0.0156 -0.0069  0.2632
 8865W        W29145  18.989  17.873  12.965  0.0012 -0.1636 -0.0416
 8866W        W29146   9.112   3.109   3.388  0.3064 -0.0128 -0.3426
 8867W        W29147  13.319   1.109  13.852 -0.3356  0.3651 -0.0775
 8868W        W29148  13.680  15.376  11.152 -0.1506  0.3154  0.0467
 8869W        W29149   6.502   5.991   3.781  0.0729 -0.2508  0.3819
 8870W        W29150   5.533   8.772  13.382 -0.0426 -0.0523  0.2533
 8871W        W29151   4.161  14.839   0.191  0.1028  0.1555 -0.0473
 8872W        W29152  12.355  18.310  14.072  0.0417  0.0985 -0.4197
 8873W        W29153  19.253   4.965  11.718  0.0793  0.0465 -0.0602
 8874W        W29154  13.897   5.010   0.187  0.2137 -0.3115 -0.1058
 8875W        W29155   0.682  11.619   9.521  0.2320 -0.0711 -0.2698
 8876W        W29156   4.043   8.444  10.265  0.1386 -0.2839 -0.0377
 8877W        W29157   7.526   7.584  12.730  0.0063 -0.1065  0.1742
 8878W        W29158  11.341   3.457  10.819  0.0779  0.3892 -0.0838
 8879W        W29159  12.224  13.989  11.188  0.0647 -0.1153  0.0878
 8880W        W29160  13.709   9.121  10.842  0.0453 -0.4322  0.1029
 8881W        W29161  13.257  18.260  12.249  0.1764  0.1086 -0.1082
 8882W        W29162   3.000  18.362  11.356 -0.0013  0.1951  0.0685
 8883W        W29163   3.024  16.245   1.619  0.0074  0.4134  0.0603
 8884W        W29164  14.698   0.314  13.107  0.0876  0.0514  0.0565
 8885W        W29165  15.948  14.694  13.204 -0.0820 -0.1304 -0.3252
 8886W        W29166   5.496   0.118   1.926 -0.4294 -0.0665 -0.0955
 8887W        W29167  14.187   9.736   0.863 -0.1887  0.0377  0.1814
 8888W        W29168  15.739  18.554  10.561 -0.0946 -0.0097  0.2301
 8889W        W29169  11.690   5.560   2.588  0.2151 -0.0806 -0.3988
 8890W        W29170   6.405  15.712   3.762 -0.0260 -0.2763  0.0822
 8891W        W29171  10.256   9.919   1.813 -0.1908  0.2140 -0.0317
 8892W        W29172  16.627  10.146  14.144 -0.0059  0.0524 -0.3155
 8893W        W29173  18.196  19.127  11.530 -0.1126  0.0479  0.3562
 8894W        W29174  19.324   8.051   1.433 -0.1409 -0.1813 -0.0389
 8895W        W29175  13.647  16.542  13.107  0.0657  0.2071  0.2281
 8896W        W29176   3.186   6.400  11.072 -0.1040 -0.1276 -0.0311
 8897W        W29177   0.492   3.543  11.316 -0.1230  0.3311 -0.0644
 8898W        W29178   6.661   5.339  13.270  0.2928 -0.0418 -0.3277
 8899W        W29179   6.747   1.717  11.766 -0.1177 -0.1836 -0.2231
 8900W        W29180  19.099  19.410  10.177  0.0945 -0.2207  0.0268
 8901W        W29181  19.346   3.009  12.722  0.1431 -0.1041  0.0802
 8902W        W29182   2.751  17.883   1.675  0.1186 -0.1524  0.3027
 8903W        W29183   2.717   9.592   3.691 -0.1790 -0.1934  0.0228
 8904W        W29184  11.387  14.329   3.737 -0.0697 -0.0377  0.1238
 8905W        W29185   0.305  14.783   0.970  0.2187 -0.0421 -0.2471
 8906W        W29186  10.178   8.415   3.475  0.0702 -0.3107  0.0321
 8907W        W29187  11.453   0.477   3.594  0.3706 -0.0801 -0.0439
 8908W        W29188  14.403   1.613   2.455  0.1298 -0.0212  0.0687
 8909W        W29189  17.780   2.515   0.396  0.3966 -0.0326 -0.1697
 8910W        W29190   6.428  18.204   3.267 -0.0493 -0.0642  0.1286
 8911W        W29191   1.614  14.644  10.707  0.1677 -0.0075 -0.1288
 8912W        W29192   0.030   2.328   0.479 -0.1286  0.0370 -0.0961
 8913W        W29193   0.133   4.287  13.123 -0.0880 -0.1986 -0.1324
 8914W        W29194  10.183  12.288   1.819  0.0152  0.1215  0.1529
 8915W        W29195  18.579   9.204   1.032 -0.2640 -0.0181  0.1174
 8916W        W29196  17.429   2.964  13.566  0.0628  0.1253 -0.0687
 8917W        W29197  13.937   7.597   0.379 -0.2308  0.0756  0.1912
 8918W        W29198   4.455   9.148  10.960 -0.1540 -0.0309 -0.2184
 8919W        W29199   4.319   9.114   0.852 -0.0423 -0.1321 -0.1340
 8920W        W29200   3.286   4.723   4.014  0.2266  0.3505  0.1009
 8921W        W29201   4.502  18.008   1.384  0.3771 -0.0570 -0.0962
 8922W        W29202   5.916   0.627   3.686  0.2008  0.0370 -0.0874
 8923W        W29203   4.675   7.023   3.764 -0.3887  0.1919 -0.4739
 8924W        W29204   8.800   4.636  10.890 -0.2332  0.2369  0.0145
 8925W        W29205   4.548   6.681  10.866  0.0997  0.1801  0.1558
 8926W        W29206  15.339   1.342   0.272  0.1279  0.6176  0.1322
 8927W        W29207   7.595   7.918  14.315  0.2369 -0.0349  0.0387
 8928W        W29208   8.949   8.158   3.463 -0.0682 -0.0911  0.3354
 8929W        W29209   6.670  10.665   0.971  0.3116 -0.0218  0.2415
 8930W        W29210   1.948  11.806   3.214  0.1084  0.0389  0.1534
 8931W        W29211  14.255   7.288  13.762  0.1079 -0.2669 -0.1272
 8932W        W29212   1.270  16.291   1.294  0.0462  0.1369 -0.2101
 8933W        W29213  11.023   4.995   3.968  0.1144  0.1748 -0.0953
 8934W        W29214   0.204   0.347   2.632 -0.0268  0.0256  0.1137
 8935W        W29215   4.762  15.845  13.029  0.0566  0.2111 -0.1242
 8936W        W29216  17.617   3.478  12.335 -0.0293  0.2038  0.4859
 8937W        W29217   9.131  10.142   0.405  0.0332  0.0118  0.0281
 8938W        W29218  12.345  17.999  13.068  0.0344 -0.4093 -0.0768
 8939W        W29219  17.518  17.169  12.446  0.0065  0.1005 -0.4159
 8940W        W29220   6.904  15.278  13.237  0.1487 -0.1404 -0.3817
 8941W        W29221  11.863   3.082   1.656 -0.1228 -0.1216 -0.0662
 8942W        W29222   6.732  15.864  10.531  0.1166  0.1509  0.1680
 8943W        W29223  13.473   3.341  11.324 -0.1046 -0.0897 -0.3693
 8944W        W29224  16.178  16.737  11.924 -0.0833 -0.0741  0.2014
 8945W        W29225   0.639  11.824  10.525  0.3737  0.2259  0.2079
 8946W        W29226  15.027  17.536  13.378 -0.2876  0.2243  0.2342
 8947W        W29227  12.899  16.461  12.040  0.2291 -0.3337  0.2661
 8948W        W29228   0.344   2.699   2.081  0.1924  0.0830 -0.0782
 8949W        W29229   9.792  12.238   3.341 -0.0426  0.2293 -0.2531
 8950W        W29230  19.146   6.388  10.720 -0.1183 -0.0236  0.1859
 8951W        W29231  19.326   9.590  11.605  0.0605 -0.2224  0.3073
 8952W        W29232   4.191   7.540  11.338 -0.3082 -0.0201 -0.3307
 8953W        W29233   7.925   1.006  11.727  0.0140  0.1363  0.0571
 8954W        W29234  16.531   7.533   1.849  0.1735 -0.3273  0.1283
 8955W        W29235  17.548   5.856   2.011  0.3721  0.0146  0.1748
 8956W        W29236   3.649   9.980   3.651 -0.2878 -0.0707 -0.3330
 8957W        W29237   2.912  11.511  14.192 -0.0601  0.5306  0.1507
 8958W        W29238   2.448  13.091  10.856  0.0539 -0.1778 -0.0085
 8959W        W29239   4.714   6.900  13.668  0.2064  0.3487 -0.1700
 8960W        W29240   8.353   7.833  12.647  0.1763 -0.0698  0.0485
 8961W        W29241  19.206  10.685   2.967  0.1460  0.0616 -0.2423
 8962W        W29242  14.100   6.432  12.702 -0.2561 -0.0504  0.0423
 8963W        W29243  13.225  16.326   3.036  0.5003  0.3744  0.3166
 8964W        W29244   3.883   9.452  12.635  0.0329  0.1413  0.4555
 8965W        W29245  15.059  11.630  12.453 -0.0672  0.1251 -0.2601
 8966W        W29246  15.779   1.459   1.817 -0.0837 -0.1581  0.1971
 8967W        W29247   2.977   7.953   2.375  0.0655 -0.0596  0.0912
 8968W        W29248  16.370  11.344   1.815 -0.0592  0.1357 -0.0540
 8969W        W29249   9.957   0.565   4.198 -0.1158  0.1835 -0.0678
 8970W        W29250   9.722  18.771  12.536  0.3362  0.3936  0.0906
 8971W        W29251   7.258  11.407   3.350  0.3540  0.0833  0.1730
 8972W        W29252  10.410   6.030  13.957  0.1669 -0.0680  0.1364
 8973W        W29253   6.947  11.653  10.310 -0.3425  0.6274 -0.0390
 8974W        W29254  13.749   0.224   3.996  0.4158 -0.1520 -0.1024
 8975W        W29255   2.198   5.456  12.377 -0.0943 -0.2931 -0.0201
 8976W        W29256   2.749   3.743  11.582 -0.0920 -0.1216 -0.3046
 8977W        W29257   1.279   4.262   2.652  0.1220  0.1461  0.0405
 8978W        W29258  14.781  15.055  11.785  0.1528  0.3223 -0.1043
 8979W        W29259   0.853  14.527   1.210  0.0806  0.3085 -0.0197
 8980W        W29260   7.954  11.288  10.728 -0.1067 -0.1988  0.3254
 8981W        W29261   7.338   1.913   0.870  0.0452 -0.0826 -0.1299
 8982W        W29262  14.921  11.226  12.130  0.3629 -0.4998  0.1729
 8983W        W29263   5.913   5.894   1.300 -0.1862  0.2485 -0.1875
 8984W        W29264  18.980  16.806  12.957 -0.4245  0.0450 -0.0973
 8985W        W29265  13.605   0.110   3.128 -0.0871 -0.0247 -0.0476
 8986W        W29266   2.452  14.992   3.483 -0.0220 -0.1411  0.2573
 8987W        W29267   5.133   5.975  12.663 -0.1080 -0.0649 -0.2160
 8988W        W29268   4.385  19.124  13.347  0.0377  0.1138 -0.0227
 8989W        W29269   6.284   4.995   9.525  0.0197 -0.0784  0.0355
 8990W        W29270  18.735   1.551   9.481  0.1643 -0.1611 -0.1866
 8991W        W29271   5.698   0.450   4.114 -0.1135 -0.1414  0.1568
 8992W        W29272  15.434   0.894   1.183  0.1346  0.3854  0.1306
 8993W        W29273  14.378   2.510   4.355 -0.0847 -0.0674 -0.1566
 8994W        W29274  15.040  12.124   4.238  0.3075  0.0710 -0.4602
 8995W        W29275   8.115   4.901   1.109  0.0731 -0.0385 -0.2555
 8996W        W29276   4.729   4.137  12.090 -0.0098 -0.3425  0.0050
 8997W        W29277   9.590   1.458  13.466  0.1146  0.0757 -0.1976
 8998W        W29278  17.529   2.631   2.331 -0.0342  0.0098  0.0623
 8999W        W29279  15.890  19.406  14.203  0.0024  0.0157 -0.3246
 9000W        W29280  13.003   7.138   4.251 -0.1381 -0.2325  0.0537
 9001W        W29281   5.650   2.005  13.776 -0.3929 -0.1416 -0.5243
 9002W        W29282  16.937  16.631  13.899 -0.2636  0.1380 -0.1043
 9003W        W29283  15.928   7.597  11.244  0.1467 -0.1516  0.2928
 9004W        W29284   8.991   8.068   2.910  0.1002 -0.0535 -0.0695
 9005W        W29285   9.592  15.196  13.754  0.2214 -0.3313  0.1803
 9006W        W29286  13.668  12.637  10.928 -0.1339  0.2710  0.3055
 9007W        W29287   5.973   7.046   0.407 -0.1749 -0.0770  0.0965
 9008W        W29288   0.915   4.841  12.919  0.1129  0.3277  0.3342
 9009W        W29289  10.433   3.743   0.716 -0.1432  0.0517  0.2584
 9010W        W29290  11.281  17.405   3.344 -0.1370 -0.0249 -0.3687
 9011W        W29291  12.278   5.400  11.192  0.2201 -0.0154 -0.0309
 9012W        W29292  15.904   1.561   2.826  0.1294  0.0551 -0.1324
 9013W        W29293  16.746  12.295  14.426  0.1201 -0.0195 -0.2779
 9014W        W29294  11.740   8.672  12.755  0.0606 -0.4295  0.1816
 9015W        W29295  14.409   6.783  13.591  0.0552 -0.0358  0.1352
 9016W        W29296   8.997   6.407   2.294 -0.1286  0.0873 -0.0189
 9017W        W29297  13.714  16.345   0.403  0.0010 -0.2182  0.0664
 9018W        W29298   3.751  15.759   0.800  0.1222 -0.0181 -0.1120
 9019W        W29299   3.745  14.129   1.420 -0.3239  0.0501  0.1667
 9020W        W29300   2.795   2.211  10.856 -0.2292 -0.0006  0.4668
 9021W        W29301   4.358  13.549   2.806 -0.1937 -0.2739 -0.1384
 9022W        W29302   3.888   9.654  12.193  0.0506  0.0569 -0.0151
 9023W        W29303   1.252  19.233  14.118 -0.0845  0.0779 -0.2955
 9024W        W29304  13.983   0.977   0.105 -0.0955 -0.1546  0.1114
 9025W        W29305   6.282   4.240  14.441 -0.0698 -0.1617 -0.0498
 9026W        W29306   1.379  13.941   1.622 -0.0973  0.0056 -0.0368
 9027W        W29307  17.789  18.837   4.038  0.0906  0.0850 -0.0265
 9028W        W29308   2.710  16.560   9.776 -0.0505  0.0101  0.3393
 9029W        W29309  13.983  13.538   2.652 -0.0635  0.0454  0.1817
 9030W        W29310  15.954   0.969   0.886  0.0289  0.0653 -0.0401
 9031W        W29311  17.528   6.242  10.431 -0.2874 -0.3642 -0.0245
 9032W        W29312  10.188  12.764  12.729 -0.1268  0.0108  0.2343
 9033W        W29313   5.243   6.821   2.733  0.0061 -0.0516 -0.3529
 9034W        W29314   1.141   0.078  11.338  0.1884  0.1255  0.3277
 9035W        W29315   3.975  11.833   2.744  0.1851  0.0528 -0.0111
 9036W        W29316  12.150  15.110   2.555  0.1696  0.1240 -0.1047
 9037W        W29317   0.057  12.075  13.684 -0.0799  0.1847 -0.1246
 9038W        W29318  12.394   4.386   2.138  0.0704  0.1416  0.0110
 9039W        W29319  12.914  12.479   3.317  0.1931  0.2959 -0.1432
 9040W        W29320  16.988  14.285   2.643  0.0916 -0.0497 -0.0958
 9041W        W29321   4.304   1.258  11.156 -0.0086  0.3135 -0.0919
 9042W        W29322   2.267  18.130   2.889 -0.2169  0.0302  0.2611
 9043W        W29323   7.628  12.318  12.598  0.2409  0.5195  0.0365
 9044W        W29324   8.318  18.290  13.478  0.1767 -0.0461 -0.1738
 9045W        W29325   9.981  18.488   3.143  0.1547  0.3757 -0.4415
 9046W        W29326  10.318  10.345   1.177 -0.1595 -0.1961  0.0123
 9047W        W29327   4.362   5.312  12.409 -0.0221  0.0637 -0.1797
 9048W        W29328  15.129   2.672  11.961 -0.0786  0.1948 -0.0733
 9049W        W29329  16.442  13.609   2.693 -0.3265  0.1078 -0.2419
 9050W        W29330   7.854   8.334   0.018 -0.2353 -0.1160  0.0680
 9051W        W29331  14.810  17.262   0.286 -0.1397  0.2266 -0.1937
 9052W        W29332  12.704   1.168   1.077  0.0997  0.0843  0.1624
 9053W        W29333   6.460   6.511   3.022  0.0911  0.1171 -0.1465
 9054W        W29334  11.791  18.231   2.010  0.2887 -0.3028 -0.1872
 9055W        W29335  11.182  18.303   1.529  0.1028 -0.0854  0.1607
 9056W        W29336   0.505   6.234  14.323 -0.2852  0.1810 -0.0745
 9057W        W29337   9.366  13.297  12.061  0.2373  0.0229  0.0246
 9058W        W29338  16.519   6.684  10.723  0.0743 -0.1634  0.0151
 9059W        W29339   5.413  12.037  10.891 -0.1602 -0.1245  0.2049
 9060W        W29340   5.071   7.269   1.283  0.0633 -0.2000 -0.1431
 9061W        W29341  17.442  11.397  11.132 -0.3781  0.0663 -0.2870
 9062W        W29342   9.909   6.130   1.964  0.1721 -0.1457  0.0638
 9063W        W29343   7.211   4.939  12.086 -0.3104 -0.1188 -0.2918
 9064W        W29344   6.905  10.277   3.204  0.2611  0.0165  0.1893
 9065W        W29345   2.862   9.612  11.726  0.0675  0.0523  0.1895
 9066W        W29346   6.479   4.157   1.185 -0.2557  0.0642 -0.1986
 9067W        W29347   5.143   6.568  14.411 -0.2112  0.1308 -0.2536
 9068W        W29348   8.371   6.742   0.611 -0.0139  0.2033  0.0649
 9069W        W29349   1.419  17.008   3.117  0.0892 -0.2725 -0.0684
 9070W        W29350  18.455   8.111  14.480 -0.0225  0.0863 -0.0330
 9071W        W29351  11.120   5.989   2.139  0.1027 -0.2667  0.0137
 9072W        W29352  16.413   9.645  11.629  0.2361  0.2779 -0.0047
 9073W        W29353  13.991  11.416  11.346 -0.0755  0.1715 -0.0005
 9074W        W29354   5.238  12.016   3.122 -0.2884 -0.0387  0.1706
 9075W        W29355   3.392  10.589  13.845  0.0170  0.0642  0.1476
 9076W        W29356  12.719   7.993   1.396 -0.0545 -0.3143 -0.1663
 9077W        W29357   6.837   0.113   2.743  0.1122  0.0744 -0.1694
 9078W        W29358   3.132  18.054   2.686 -0.2345 -0.0476 -0.2335
 9079W        W29359   4.083  10.356   2.045  0.2548  0.0971 -0.0311
 9080W        W29360  17.133   9.462   1.817 -0.3536  0.0589 -0.1882
 9081W        W29361   9.304   7.915  11.144  0.1456  0.0032  0.0230
 9082W        W29362  10.524   1.984   1.390  0.0590 -0.1383 -0.2855
 9083W        W29363  13.170   5.368  11.469 -0.2383  0.0818  0.0304
 9084W        W29364   4.263  12.036  10.862 -0.1274  0.0835 -0.0218
 9085W        W29365  13.187  12.086  13.416  0.3426 -0.0259 -0.2308
 9086W        W29366   8.912  18.425  14.058  0.1630 -0.0704 -0.2093
 9087W        W29367   3.727   2.882  12.438  0.1281  0.1093 -0.3158
 9088W        W29368  16.099   7.586   1.362 -0.0593 -0.2038  0.0981
 9089W        W29369   4.657  15.923   3.088 -0.2054  0.1766 -0.3429
 9090W        W29370  14.609  18.452  12.391 -0.1572 -0.0305 -0.1533
 9091W        W29371   9.245   9.897  12.489  0.1754  0.3998 -0.2470
 9092W        W29372   2.797   8.580  11.096 -0.2922 -0.0497  0.1585
 9093W        W29373   1.516   7.617  11.487 -0.0611  0.0601 -0.0276
 9094W        W29374  16.020  17.926  11.749  0.0248  0.3318 -0.3647
 9095W        W29375  14.486  11.773  13.942 -0.1247  0.0479  0.1926
 9096W        W29376   2.751  13.460  11.816 -0.0770  0.0328  0.2188
 9097W        W29377   6.928   4.316   2.282 -0.2838 -0.1059 -0.2024
 9098W        W29378   3.435   6.107  13.961 -0.0921  0.3020 -0.1496
 9099W        W29379   8.002   7.762   1.286 -0.0875 -0.1067 -0.3477
 9100W        W29380  12.658  10.583  11.366  0.2312 -0.1679 -0.1092
 9101W        W29381   0.136  15.481  12.510  0.1065 -0.3164 -0.1534
 9102W        W29382   9.186  12.161  13.049 -0.0854  0.0350 -0.0017
 9103W        W29383  19.014  11.629  14.390 -0.1012 -0.2961 -0.0035
 9104W        W29384   2.214   1.042  11.473 -0.5920  0.0055 -0.0478
 9105W        W29385  14.167  12.956   0.667  0.3040  0.1758 -0.0124
 9106W        W29386  13.895   2.955   0.312 -0.0271  0.0745  0.1328
 9107W        W29387   6.341  14.413   3.666  0.3221 -0.3007 -0.1296
 9108W        W29388  13.312   0.134  11.860 -0.0505 -0.1402 -0.1520
 9109W        W29389   9.052  17.305  11.301  0.0151  0.0175  0.2605
 9110W        W29390   7.534  16.707  14.283  0.1457 -0.1340  0.1171
 9111W        W29391  10.185  15.277  11.426  0.0834  0.2106  0.0466
 9112W        W29392   0.092   1.453  13.729 -0.0040 -0.0492 -0.0830
 9113W        W29393   0.916  11.984  13.787 -0.0811 -0.1911  0.0126
 9114W        W29394   6.925   4.905   4.355 -0.1410  0.0031  0.2605
 9115W        W29395  10.695   4.607   2.243  0.1080  0.1362 -0.1215
 9116W        W29396  15.951   0.215   1.483  0.0434 -0.0129 -0.0041
 9117W        W29397   1.667  15.226   3.185 -0.1002 -0.1269  0.1230
 9118W        W29398   4.963  18.027   3.547 -0.3887 -0.0753 -0.0992
 9119W        W29399   8.819  11.489   3.412 -0.0779  0.1495  0.0808
 9120W        W29400   3.011  14.017   3.796  0.2524  0.0496  0.0730
 9121W        W29401  10.697   7.944   0.240  0.2239  0.1097  0.0483
 9122W        W29402  17.587   4.373  13.905 -0.0894  0.1734  0.1967
 9123W        W29403   6.520  13.060  11.170 -0.2057  0.0129 -0.2337
 9124W        W29404   7.717   1.024   2.026 -0.1201  0.0911 -0.0760
 9125W        W29405   5.745   8.783   1.490 -0.0905 -0.3922  0.0808
 9126W        W29406   7.646  12.969   1.576  0.2359  0.0381  0.0520
 9127W        W29407  11.094  10.559   2.111 -0.1787 -0.1446 -0.0466
 9128W        W29408  10.782  17.611  10.648 -0.3070  0.2421  0.1149
 9129W        W29409   1.764   6.431  12.036 -0.1476  0.0630  0.0112
 9130W        W29410   2.832  17.604  12.549 -0.2218  0.1856  0.1913
 9131W        W29411   6.505  14.122  13.787  0.0169 -0.2119 -0.3967
 9132W        W29412  18.285  16.498  13.368  0.0531  0.3226  0.3849
 9133W        W29413  15.124   4.904   2.754  0.3064  0.0205  0.0563
 9134W        W29414   7.962  12.172   1.660  0.0900  0.2354 -0.1095
 9135W        W29415  13.299   6.079   0.510 -0.4603  0.2002  0.0519
 9136W        W29416  12.059   2.335   0.562 -0.1386 -0.0101 -0.0246
 9137W        W29417   2.175   8.269   5.004 -0.0285 -0.1554  0.1409
 9138W        W29418  11.610   2.462   5.890  0.3926 -0.2220 -0.1476
 9139W        W29419  11.851  15.549  13.143  0.2862  0.2562  0.0842
 9140W        W29420   3.136  13.322   4.158  0.2167 -0.0935  0.0125
 9141W        W29421  12.791  18.919   0.044  0.2710  0.2535 -0.0126
 9142W        W29422  16.028   0.342  12.947  0.2399 -0.1898 -0.3353
 9143W        W29423  10.349  12.098  10.477 -0.0168 -0.1822  0.0572
 9144W        W29424   1.654   2.711  12.908 -0.0869  0.0822 -0.0814
 9145W        W29425  17.488   3.889  11.733 -0.2916 -0.2013 -0.1036
 9146W        W29426   0.546   0.970  13.062  0.0350 -0.2331 -0.0160
 9147W        W29427  15.664   8.786  13.300 -0.1024 -0.2190  0.1890
 9148W        W29428   0.915   3.761  14.221 -0.2016  0.0994 -0.0913
 9149W        W29429   8.176   1.016   2.907  0.1625 -0.1251 -0.1143
 9150W        W29430  18.641   7.979   0.414 -0.0163  0.0594 -0.0521
 9151W        W29431   3.301  11.530  10.209 -0.0126  0.0608 -0.2296
 9152W        W29432  13.075   2.504  12.941 -0.1870 -0.0722  0.3521
 9153W        W29433  18.816   6.076   2.296  0.1020  0.1540 -0.0502
 9154W        W29434  10.401  10.725  14.029  0.0164 -0.0589 -0.1493
 9155W        W29435   4.820  17.707  12.767 -0.2074 -0.1660 -0.2520
 9156W        W29436  18.239   8.467   2.268 -0.2870  0.1696 -0.2418
 9157W        W29437   7.379   2.353   1.123 -0.0672  0.1477 -0.0666
 9158W        W29438   3.421   2.195  13.406 -0.1381  0.1561 -0.3155
 9159W        W29439   3.117   2.197   2.945  0.0316  0.1535  0.0101
 9160W        W29440   2.996   5.307   0.397 -0.0480 -0.0977 -0.0890
 9161W        W29441   1.930   1.175  11.052 -0.1284 -0.2200  0.0970
 9162W        W29442   4.638   0.913  11.247  0.0762  0.2138  0.0345
 9163W        W29443  17.623   3.611  12.789 -0.0422  0.2853  0.3557
 9164W        W29444  18.679   1.501   1.549  0.0344 -0.0433  0.1488
 9165W        W29445   6.261  17.406   0.063 -0.1358  0.0275 -0.0366
 9166W        W29446  11.287   3.372  11.352  0.0553  0.2952 -0.1476
 9167W        W29447  13.401   8.844  11.170  0.0481 -0.3309  0.1180
 9168W        W29448  16.978  11.778  13.509 -0.0165  0.0096  0.0246
 9169W        W29449  10.553   4.233   3.137  0.2297  0.0750 -0.0110
 9170W        W29450  16.197  14.819  12.740  0.2152  0.2272  0.1237
 9171W        W29451  12.179  10.991  12.102  0.1125 -0.0599  0.0907
 9172W        W29452   9.819   4.453  10.985  0.0962 -0.1024  0.4653
 9173W        W29453  15.450  17.204  12.616 -0.3115 -0.0737  0.3684
 9174W        W29454  13.803   3.327  11.683 -0.0726  0.1041  0.0232
 9175W        W29455  14.467   2.162   1.694  0.0745  0.0546  0.0214
 9176W        W29456  15.135  15.120   0.685  0.2226 -0.2960 -0.1092
 9177W        W29457  13.932  10.834  12.972 -0.1889  0.0240 -0.0797
 9178W        W29458  13.443  13.453  13.432 -0.1364 -0.2506 -0.1817
 9179W        W29459   2.706   5.250   2.757  0.0459  0.0544 -0.1643
 9180W        W29460  17.908  14.976  10.961 -0.0061  0.0847 -0.0842
 9181W        W29461   3.725   6.196   1.575 -0.5469  0.2042 -0.2997
 9182W        W29462   7.669   0.416   0.789 -0.0857  0.1203  0.2628
 9183W        W29463  15.854  12.139   2.253 -0.0473  0.0630 -0.0013
 9184W        W29464   3.704   6.768  13.260 -0.3794 -0.2329  0.0139
 9185W        W29465  12.157  12.210  11.275 -0.1710 -0.2787  0.0055
 9186W        W29466  18.833  11.829   0.337  0.1165  0.1617  0.2996
 9187W        W29467  16.063   0.575   3.986 -0.0593  0.3247 -0.0607
 9188W        W29468   8.861   7.283  11.956  0.0735 -0.3147  0.0077
 9189W        W29469  11.372   6.181  10.362 -0.1244  0.0158  0.0070
 9190W        W29470  13.502  10.752  11.385 -0.0169  0.0157  0.4313
 9191W        W29471   4.767  13.589  12.247 -0.2445  0.4234  0.1766
 9192W        W29472  13.970  13.943  14.184 -0.1334  0.0208 -0.1344
 9193W        W29473   8.603   2.912  11.207  0.1620 -0.0931 -0.1594
 9194W        W29474   0.487  16.819  12.963 -0.3641  0.2497 -0.1022
 9195W        W29475   8.528  10.741   1.163 -0.0487  0.1263 -0.0556
 9196W        W29476  12.368  13.654   1.057 -0.0842  0.0922  0.0284
 9197W        W29477   6.651   2.804   2.723  0.2190 -0.2088  0.0019
 9198W        W29478   0.191  13.950   0.173 -0.2873  0.2574 -0.0103
 9199W        W29479   8.968   3.084  13.788 -0.0437  0.1610 -0.0165
 9200W        W29480   2.351   1.081   2.915  0.3166  0.1036  0.0858
 9201W        W29481   8.233  17.809  13.497  0.1630  0.2024  0.4002
 9202W        W29482   1.641   6.438  12.502 -0.1232  0.3514 -0.1002
 9203W        W29483  10.022   4.831  13.841  0.1328 -0.0380 -0.1693
 9204W        W29484  10.713  18.635   9.997  0.3662  0.3729  0.4966
 9205W        W29485   3.265  16.179  11.369  0.0189  0.0844  0.2318
 9206W        W29486  12.409  13.404   1.945  0.1349 -0.0516 -0.0713
 9207W        W29487  10.186   5.615   2.020  0.3492 -0.3348  0.0899
 9208W        W29488   9.166   0.896  11.254 -0.0204 -0.2152  0.0954
 9209W        W29489  16.042   7.064  11.117  0.2264  0.0759  0.1248
 9210W        W29490  14.607  12.062  13.340 -0.1821  0.0760  0.0964
 9211W        W29491   4.872  12.130   2.670 -0.3170 -0.2921 -0.2997
 9212W        W29492  10.337   0.355   0.276  0.1045  0.0358 -0.4400
 9213W        W29493   7.707   5.298   0.310  0.3019 -0.0138 -0.2936
 9214W        W29494  13.451   1.334  13.438  0.0019 -0.3604 -0.0123
 9215W        W29495  18.951   8.899   1.038  0.0828  0.2690  0.1825
 9216W        W29496   1.465   4.993  11.215 -0.1148  0.1170 -0.0860
 9217W        W29497   3.254  15.118   2.939 -0.0801  0.1007 -0.3193
 9218W        W29498  11.534  11.380   0.124 -0.2292 -0.1666 -0.1164
 9219W        W29499   8.672   9.924   9.474 -0.2539 -0.1683 -0.4351
 9220W        W29500   4.103  19.201  12.887  0.4388  0.0395 -0.0123
 9221W        W29501  11.447   9.931   0.165 -0.0204  0.2031 -0.0799
 9222W        W29502   6.553   4.752  13.896 -0.1992  0.3268  0.0217
 9223W        W29503  14.313  18.844   1.589  0.2239 -0.0889  0.1481
 9224W        W29504   4.493  10.908  10.610  0.0675 -0.4838 -0.2832
 9225W        W29505   8.741  10.467   0.813 -0.0217  0.1598  0.1918
 9226W        W29506   2.693  12.983  11.694  0.1451  0.2873  0.0629
 9227W        W29507  12.812   5.434  13.276 -0.0046 -0.3683  0.0463
 9228W        W29508   7.148  14.816  10.693  0.1135  0.2273 -0.2683
 9229W        W29509   3.006   1.510  13.878  0.1442  0.2763  0.0126
 9230W        W29510  11.898  10.605  14.174  0.0843  0.0830  0.2407
 9231W        W29511  16.405   2.498   3.307 -0.0995 -0.0982 -0.1007
 9232W        W29512   3.594   7.222  13.699  0.0980 -0.3080 -0.2172
 9233W        W29513   3.610  13.981  10.751  0.1495 -0.0723  0.0710
 9234W        W29514  12.648   5.121   3.511 -0.0064  0.0361 -0.0611
 9235W        W29515   3.718   3.809   0.794  0.1483 -0.0614 -0.1538
 9236W        W29516   2.291   5.210  13.694 -0.1893 -0.1886 -0.1359
 9237W        W29517   4.060   4.814  11.413  0.0950 -0.0869  0.0017
 9238W        W29518   5.910  18.399   1.417 -0.1409  0.0715 -0.2021
 9239W        W29519   4.600  15.580   1.712 -0.0475  0.0245 -0.2212
 9240W        W29520  19.396   0.772   3.575  0.0884 -0.4029  0.0095
 9241W        W29521   4.269   0.778  12.158  0.1953 -0.1959 -0.0957
 9242W        W29522   0.231  17.518  11.918 -0.0159  0.1412  0.2317
 9243W        W29523  12.432   3.073  12.979 -0.1064  0.1475 -0.1374
 9244W        W29524   5.665  15.328  13.450 -0.1752 -0.2420 -0.0566
 9245W        W29525   5.431  18.151   3.566  0.0289 -0.2711 -0.3470
 9246W        W29526   9.399   8.387   3.673  0.1592 -0.2790  0.0514
 9247W        W29527   2.151   2.003  13.547  0.1125  0.0703  0.1040
 9248W        W29528  10.671  18.648  12.836 -0.1924 -0.1114  0.1516
 9249W        W29529  17.716  15.992  10.984 -0.0202 -0.4080  0.0137
 9250W        W29530   6.013   8.612   0.458 -0.2613 -0.0611  0.3215
 9251W        W29531   1.837  12.167  12.931 -0.1906 -0.1660 -0.0901
 9252W        W29532  11.296   8.867  11.893  0.1807  0.1418  0.2497
 9253W        W29533  10.880  12.723   1.291 -0.1093 -0.0630 -0.0306
 9254W        W29534  11.983  17.842  13.745  0.1677 -0.0808  0.0072
 9255W        W29535  12.209  18.182   3.485  0.5346  0.1674 -0.0479
 9256W        W29536  13.388   8.910  12.587 -0.0267 -0.0285  0.1982
 9257W        W29537   8.188  12.965   0.683  0.3441  0.0327  0.2989
 9258W        W29538  18.968   0.474   0.282  0.3289 -0.0422 -0.0066
 9259W        W29539   7.956  13.563  12.318  0.0019  0.1019  0.1253
 9260W        W29540   1.866  18.052  13.287  0.1167 -0.2462 -0.2396
 9261W        W29541   2.428  11.166   3.860  0.4796  0.2592  0.0817
 9262W        W29542   7.770  14.381   1.148  0.2386 -0.0885  0.0378
 9263W        W29543   4.769  18.670   2.374  0.1076  0.1243  0.2369
 9264W        W29544   8.717   6.324   0.636  0.0889  0.3589  0.0603
 9265W        W29545  14.191   4.053   4.859 -0.1770  0.2050 -0.0419
 9266W        W29546   3.919  15.898   2.469 -0.0580 -0.3000  0.2357
 9267W        W29547   1.465  18.426   1.487  0.0361  0.1728 -0.0438
 9268W        W29548   2.746   9.798   3.199  0.0275  0.0355 -0.0514
 9269W        W29549  18.079  16.893  13.083  0.0446 -0.2974 -0.0200
 9270W        W29550   5.434  17.971   0.784 -0.1942 -0.1920 -0.3510
 9271W        W29551   8.721   0.492  11.472 -0.1292 -0.2492 -0.0831
 9272W        W29552  14.704   6.922   3.671 -0.2646 -0.1006 -0.0519
 9273W        W29553   9.428   6.431  11.109  0.0910  0.1664  0.0624
 9274W        W29554   5.432  16.681   3.203  0.0636 -0.4674  0.0006
 9275W        W29555  12.170   4.018  11.339 -0.3361  0.4739 -0.0263
 9276W        W29556   3.582   0.309  12.331 -0.0767  0.2027 -0.0948
 9277W        W29557  13.189   1.663   0.879  0.2844 -0.0249 -0.1845
 9278W        W29558  18.132  11.999   4.078  0.0094  0.0458  0.1332
 9279W        W29559   7.641   4.793   3.881 -0.1420 -0.0313 -0.0919
 9280W        W29560  18.675  19.251   0.924 -0.3329  0.1330  0.3127
 9281W        W29561  16.923   0.536   4.389  0.2463  0.0162 -0.1020
 9282W        W29562  18.905   0.010  11.755 -0.2062 -0.1920  0.2672
 9283W        W29563   5.712   9.068   3.094 -0.3307  0.0826 -0.1225
 9284W        W29564  16.011   2.494  10.671  0.0659 -0.4260  0.0170
 9285W        W29565  16.833   1.025   5.311  0.0250 -0.0077  0.4291
 9286W        W29566  17.654  17.397   2.355  0.0548  0.2019 -0.0168
 9287W        W29567   2.951  13.953  10.690  0.1008 -0.2174 -0.0081
 9288W        W29568   6.222  10.079   2.455 -0.3519  0.2536  0.0703
 9289W        W29569   1.203   9.309  10.683  0.1782  0.1533 -0.1351
 9290W        W29570   8.998   2.119  11.788  0.2730  0.0191 -0.2707
 9291W        W29571  13.997  12.854  13.119 -0.2818 -0.2421 -0.0320
 9292W        W29572  15.011   5.371   4.708 -0.0693  0.1365  0.1570
 9293W        W29573   1.776  18.432  14.465  0.0593 -0.0293  0.2222
 9294W        W29574  14.241  13.481   2.102 -0.0240 -0.0581 -0.2587
 9295W        W29575   6.061   8.026   9.218 -0.0988  0.4923 -0.0841
 9296W        W29576   9.867   8.509   4.392  0.2623  0.3711  0.1893
 9297W        W29577  17.094   6.542   2.135  0.2084 -0.1160  0.2257
 9298W        W29578  10.648   8.415   2.106 -0.1267  0.2173 -0.4297
 9299W        W29579  15.880  12.417  13.704 -0.0574 -0.1021  0.0081
 9300W        W29580   3.046   9.506   0.804 -0.1713  0.0087  0.0021
 9301W        W29581  10.746  19.229   2.489 -0.2679  0.1400 -0.2344
 9302W        W29582  11.645   8.521  11.779  0.1706  0.1531  0.3461
 9303W        W29583  11.590  19.238   1.413  0.2684 -0.1762 -0.0902
 9304W        W29584   7.708  14.402   0.582 -0.3858 -0.0061 -0.2817
 9305W        W29585   5.098  19.143  13.607  0.0072  0.5077 -0.0842
 9306W        W29586   0.050  15.873  14.082  0.0137  0.2534 -0.0850
 9307W        W29587   3.296   1.236  13.640 -0.3094  0.2569 -0.2659
 9308W        W29588  13.657  17.824  11.976 -0.1816 -0.4061 -0.1011
 9309W        W29589   2.635  14.976   1.354 -0.2863 -0.1693  0.0476
 9310W        W29590   0.888  11.466  13.957 -0.1875  0.0773  0.1105
 9311W        W29591   5.957  16.754   1.956 -0.0198  0.4025 -0.2484
 9312W        W29592   0.711   8.235   1.027  0.2611 -0.3721 -0.0413
 9313W        W29593   5.008  14.710  13.111 -0.0952  0.1659  0.0871
 9314W        W29594  18.463  16.275  13.754 -0.1372  0.0066 -0.0610
 9315W        W29595  15.862   2.871  12.950 -0.0162  0.2469  0.0588
 9316W        W29596  14.145   5.823   3.319  0.1002  0.0777 -0.1907
 9317W        W29597   1.578  16.456   0.635  0.3073 -0.0440 -0.2327
 9318W        W29598  12.016   3.261  13.193  0.1975  0.0106  0.0572
 9319W        W29599  16.592  15.191   2.490  0.1922  0.0632 -0.1117
 9320W        W29600   5.886  15.238   0.305  0.0481  0.3082 -0.0105
 9321W        W29601   3.645   4.661   0.758  0.2838  0.1106 -0.1385
 9322W        W29602  14.339   4.932  13.709  0.1867  0.2391  0.0669
 9323W        W29603  19.330   1.829  12.436  0.0926 -0.0462 -0.1056
 9324W        W29604  12.299  18.959   4.678  0.0067  0.1756  0.0226
 9325W        W29605   5.489   9.362   0.604 -0.0763 -0.2750 -0.0064
 9326W        W29606   4.189  12.390   1.513  0.0032  0.0722 -0.2919
 9327W        W29607  11.975   5.731  12.046  0.0316  0.3224  0.0631
 9328W        W29608   9.696   3.873   4.331 -0.0017 -0.0923 -0.2337
 9329W        W29609   5.877  17.692  12.003  0.0697 -0.2278  0.0766
 9330W        W29610  12.935   8.770  12.829  0.2586  0.0537  0.1783
 9331W        W29611   0.178  11.583  13.507 -0.1900  0.0716 -0.1524
 9332W        W29612  11.887  14.437  11.274 -0.1970  0.3139  0.2935
 9333W        W29613  15.617   4.624   0.470  0.1955  0.0696  0.2820
 9334W        W29614   2.012  10.620   0.000 -0.1547 -0.2944 -0.2455
 9335W        W29615  16.368  10.962   1.399 -0.1124 -0.0190 -0.2265
 9336W        W29616   2.741   5.602  11.617 -0.2619 -0.2351 -0.0687
 9337W        W29617  13.422   5.947   1.113  0.1507  0.1107 -0.3679
 9338W        W29618   8.297  11.276  11.611 -0.0234 -0.1332 -0.0245
 9339W        W29619   8.858  15.442   1.845  0.4354  0.1891 -0.0555
 9340W        W29620   6.480   2.360   2.092  0.2048  0.2452  0.1256
 9341W        W29621  11.592   2.518  11.214  0.0493 -0.0031 -0.3780
 9342W        W29622  14.359  10.745  13.886  0.0011  0.3693 -0.0277
 9343W        W29623   4.244  12.170   1.030 -0.1815  0.0016  0.0916
 9344W        W29624  10.670  15.031  11.284  0.1480  0.1595 -0.2767
 9345W        W29625  12.184  11.058   1.584  0.4334 -0.0669 -0.1700
 9346W        W29626  14.668   5.032   2.541 -0.1609 -0.1248 -0.2391
 9347W        W29627  10.563   2.274  13.070  0.0077  0.0885  0.2899
 9348W        W29628  12.027   3.141  14.221  0.3631  0.0493 -0.1023
 9349W        W29629   7.970  14.908  12.099 -0.1365 -0.0643  0.2058
 9350W        W29630  11.692   3.363  13.581  0.3897  0.1765 -0.2441
 9351W        W29631  16.442   5.637   2.219  0.2983 -0.1616  0.0127
 9352W        W29632  11.399  15.565  11.782 -0.3793  0.0217 -0.1937
 9353W        W29633   4.206   9.101  13.878  0.1330 -0.1220  0.0930
 9354W        W29634  15.611  16.526   0.376  0.2600 -0.0413  0.2752
 9355W        W29635  11.724   7.415  12.909 -0.0594 -0.1529 -0.0552
 9356W        W29636  12.819  16.602   4.200 -0.2882 -0.2021  0.0342
 9357W        W29637   6.235   2.633  14.221  0.1562 -0.1332  0.1737
 9358W        W29638   6.279  13.318  10.260  0.1206 -0.0116 -0.1882
 9359W        W29639  18.070  12.116   0.675  0.0580  0.2253 -0.0491
 9360W        W29640  15.316  15.928  10.815 -0.0576 -0.0434 -0.2204
 9361W        W29641  18.411  17.187  11.351 -0.1632  0.0481 -0.1692
 9362W        W29642  18.905   7.764   1.369 -0.2478  0.0633 -0.0436
 9363W        W29643   0.903   1.883   1.846  0.0906  0.0845  0.0473
 9364W        W29644   9.123   9.498   1.027 -0.0188 -0.2314 -0.2269
 9365W        W29645  14.495   4.123  13.170  0.3337  0.1573  0.2217
 9366W        W29646  12.350  16.477   4.113  0.1278  0.2818 -0.1471
 9367W        W29647   0.854   0.230   3.261 -0.2523 -0.2889  0.3721
 9368W        W29648   0.320   9.033  10.320 -0.4074  0.0161  0.2780
 9369W        W29649  14.340  17.042   3.869  0.3080  0.0694 -0.1203
 9370W        W29650   3.785   2.531   0.242 -0.0980 -0.0280 -0.0247
 9371W        W29651   2.223  16.587   3.665  0.2701  0.2900  0.0861
 9372W        W29652  15.046  10.496   1.713 -0.0573 -0.0732 -0.0196
 9373W        W29653   6.905  13.342  11.933 -0.0834  0.1468 -0.3557
 9374W        W29654  15.329   6.978   1.645 -0.0147  0.2000  0.2386
 9375W        W29655  18.002   7.674   2.463  0.0687  0.0865 -0.0284
 9376W        W29656  15.980   2.612  11.872  0.2096  0.4422 -0.2584
 9377W        W29657   0.382   0.297  13.578  0.2223 -0.1987 -0.2620
 9378W        W29658   0.487   7.873  10.598  0.0095  0.0402 -0.0381
 9379W        W29659  12.345  14.831  10.606 -0.1179  0.3848  0.2690
 9380W        W29660  13.669   6.418   1.190  0.0891  0.1273  0.0499
 9381W        W29661  18.124  12.389  13.428 -0.0170 -0.0057 -0.3341
 9382W        W29662   5.381  16.653  12.034  0.0348 -0.1462 -0.2263
 9383W        W29663   4.410   6.240  12.536  0.2202  0.1108  0.2805
 9384W        W29664   1.939  12.708   3.347 -0.0510 -0.2757  0.3870
 9385W        W29665   8.848  18.349   0.490  0.0709  0.2096  0.1335
 9386W        W29666  18.835  15.306  13.096  0.1073  0.1471  0.1901
 9387W        W29667  18.248  11.483  11.603 -0.1556 -0.1242 -0.2783
 9388W        W29668   2.786   4.729   1.933 -0.2648 -0.0101  0.0888
 9389W        W29669   0.228   7.244  11.569  0.0406  0.0362 -0.2457
 9390W        W29670  12.899  18.027  12.580  0.0976 -0.4486  0.2988
 9391W        W29671  13.094  16.898   3.933 -0.1103  0.1624  0.0937
 9392W        W29672  13.863   0.481   2.391 -0.0292  0.2784 -0.1722
 9393W        W29673   8.817   3.581   1.043 -0.1301  0.0982  0.0005
 9394W        W29674   4.051  10.459  12.645  0.3806 -0.1618 -0.1001
 9395W        W29675  10.672   8.803   0.496  0.0302  0.3504 -0.0182
 9396W        W29676  17.766   4.136  12.649  0.2449  0.2233 -0.2142
 9397W        W29677  15.826  10.387   2.850  0.1024 -0.2475  0.0886
 9398W        W29678  13.331   1.049  12.722 -0.1238 -0.0348 -0.0820
 9399W        W29679  15.184  13.740  11.080 -0.1677 -0.1127  0.0091
 9400W        W29680  11.998  18.883  12.912  0.1005 -0.2971  0.1803
 9401W        W29681  18.127   8.080  13.804 -0.2713  0.0694  0.1457
 9402W        W29682   7.636   2.576  11.980  0.0116 -0.1414 -0.1622
 9403W        W29683   7.476  10.560   1.803 -0.0644  0.0841  0.2140
 9404W        W29684  19.090  13.144  14.294  0.0188 -0.0089 -0.0076
 9405W        W29685  13.087  10.260   3.162  0.0015  0.0816  0.0698
 9406W        W29686   8.141   5.405   3.766  0.0635 -0.1203  0.0108
 9407W        W29687  19.411   2.324  11.302 -0.0619  0.1676  0.3649
 9408W        W29688   8.849  19.386  14.219  0.0615 -0.0742 -0.1667
 9409W        W29689  12.954   0.463  14.350 -0.0371 -0.1106  0.2862
 9410W        W29690  15.643   4.425   2.520  0.0261  0.1332 -0.1592
 9411W        W29691   3.251  16.692   2.675 -0.0171  0.1659 -0.4360
 9412W        W29692   0.339   4.757  11.976  0.0779 -0.1131 -0.1164
 9413W        W29693   3.977   4.654  11.911 -0.1555  0.2426 -0.2528
 9414W        W29694  10.892   5.055   0.290  0.3556 -0.0760 -0.2980
 9415W        W29695  12.949   3.836   3.536  0.2647  0.0007 -0.4610
 9416W        W29696   0.638   7.032   0.574  0.1759  0.3390 -0.0118
 9417W        W29697  12.255   6.965   1.020  0.0973 -0.1016 -0.1004
 9418W        W29698  16.633  12.442  11.448  0.0020 -0.2556 -0.2275
 9419W        W29699   6.363  10.925  12.008 -0.0653 -0.0142 -0.0532
 9420W        W29700  17.647  18.752   0.096  0.0689 -0.1857 -0.0756
 9421W        W29701   8.437  15.278  13.304 -0.1290 -0.0440  0.2199
 9422W        W29702   1.114   3.113  10.707  0.4402 -0.2966  0.0581
 9423W        W29703   5.780   5.424  13.279  0.0606 -0.1515  0.1594
 9424W        W29704  10.721   0.755  12.070 -0.0597 -0.3002 -0.1782
 9425W        W29705  15.229  14.294   2.198  0.2093 -0.0146 -0.0404
 9426W        W29706   8.833  14.065  10.955  0.2231  0.2360  0.0804
 9427W        W29707   1.000   3.723   2.997  0.0961  0.0071  0.2115
 9428W        W29708   1.566   2.567   2.072  0.1898 -0.2045  0.2732
 9429W        W29709   9.064   1.902   2.547 -0.1800  0.1653 -0.1373
 9430W        W29710  15.508   4.464   2.013 -0.1230 -0.1352 -0.4138
 9431W        W29711  11.761   5.407   4.489 -0.2766  0.0754  0.0153
 9432W        W29712   0.495  12.673   3.261 -0.2322 -0.0103 -0.0299
 9433W        W29713  14.399   9.577  12.896 -0.0886  0.1026  0.1729
 9434W        W29714   6.893  12.377   0.573  0.0353  0.2447  0.3759
 9435W        W29715   3.302  15.221   0.209  0.0386  0.0782 -0.1191
 9436W        W29716   6.763   4.524   0.958  0.1316  0.0932  0.0873
 9437W        W29717  18.459   6.267  14.490 -0.1599 -0.2133  0.1791
 9438W        W29718   7.292   0.019  12.471  0.2666  0.0805  0.0285
 9439W        W29719  15.041  18.184   1.403  0.2273  0.0537 -0.1964
 9440W        W29720  17.570   9.141  13.403 -0.3743  0.0293  0.0500
 9441W        W29721   1.198   1.050   2.163  0.1023 -0.1862 -0.1175
 9442W        W29722  16.117   3.484   4.112  0.0896 -0.0516 -0.0845
 9443W        W29723   6.886   4.733   0.187 -0.2808 -0.2680  0.0039
 9444W        W29724  11.344   1.231  12.950 -0.1340 -0.1898  0.0535
 9445W        W29725  13.552   0.935  12.324 -0.0519  0.0714  0.1417
 9446W        W29726  17.957   9.778  10.161  0.1587 -0.0504 -0.1422
 9447W        W29727   7.961   1.725  13.002 -0.5396 -0.0075 -0.0781
 9448W        W29728  18.536  12.440  10.519 -0.1799  0.0592  0.0675
 9449W        W29729  15.158  16.364   0.540 -0.0266 -0.1384  0.0945
 9450W        W29730   9.782  11.738   4.545  0.0029 -0.1291  0.0588
 9451W        W29731   9.636  13.838  13.728  0.0857  0.1372  0.0708
 9452W        W29732  12.652  12.513   2.892  0.0599  0.0539  0.2055
 9453W        W29733  18.363   5.051   1.217 -0.2702  0.2888  0.1982
 9454W        W29734  18.130   7.729   1.974 -0.1422  0.1612 -0.3445
 9455W        W29735   7.525   0.541  13.967 -0.1189  0.0862 -0.2719
 9456W        W29736  18.463  10.223  13.669 -0.1698 -0.3703 -0.4371
 9457W        W29737  16.231   9.460  13.767 -0.1619  0.1224 -0.1924
 9458W        W29738   7.922   8.128   0.502 -0.1455 -0.0832 -0.1150
 9459W        W29739  10.967  17.890  13.597  0.2789  0.2122 -0.0741
 9460W        W29740   0.424  16.541  10.568 -0.0228  0.2730 -0.2119
 9461W        W29741  10.321  10.484  13.601 -0.0287 -0.0379 -0.3233
 9462W        W29742  11.331  11.010  12.720 -0.1677  0.0610  0.0817
 9463W        W29743  15.725  12.450  11.199 -0.1084  0.0329  0.1527
 9464W        W29744   9.450   9.479   1.615  0.0224  0.1618 -0.0498
 9465W        W29745   6.519  18.418  12.867  0.0929  0.0592  0.0729
 9466W        W29746  13.758   0.978  11.090 -0.2297  0.0421  0.2653
 9467W        W29747   0.971  14.207   3.891 -0.0507 -0.3520 -0.0244
 9468W        W29748   6.987  12.472  10.602 -0.2497 -0.2871 -0.1550
 9469W        W29749   5.519  14.456  10.186 -0.0821  0.0053  0.3117
 9470W        W29750   3.357  18.066  13.041 -0.2493  0.0509  0.0150
 9471W        W29751   0.967  16.711  10.633  0.2860  0.3033 -0.0095
 9472W        W29752  12.491  17.765  12.634 -0.2236 -0.2647 -0.0849
 9473W        W29753  11.111  18.067  10.782 -0.2199 -0.0122 -0.0068
 9474W        W29754   3.686   4.148  13.549 -0.1335  0.0036 -0.2718
 9475W        W29755   6.153   7.550   9.448 -0.1887 -0.1539 -0.0937
 9476W        W29756   6.403   0.990   0.754 -0.1964 -0.2609  0.1561
 9477W        W29757  13.884  10.653  11.061 -0.0978 -0.3011  0.2906
 9478W        W29758   6.776  12.437   1.681  0.0247  0.0077 -0.0959
 9479W        W29759  18.447  15.577  12.661 -0.0063 -0.1032 -0.0576
 9480W        W29760   7.145  13.697  12.702  0.0723  0.1620 -0.2619
 9481W        W29761  15.163   0.803  11.758 -0.5540  0.2505 -0.2632
 9482W        W29762  16.902   6.695   0.183 -0.0509  0.0566  0.2210
 9483W        W29763   0.371   3.149   3.544  0.0593  0.0111 -0.3395
 9484W        W29764   6.110   5.188  13.626  0.0081  0.2645  0.0271
 9485W        W29765  13.943  13.349   0.869 -0.0194  0.0121 -0.0473
 9486W        W29766   7.518  18.471  13.942 -0.1688 -0.0971 -0.0683
 9487W        W29767  13.429  14.517   3.189 -0.0086  0.0226 -0.0551
 9488W        W29768  14.193   4.831   2.785 -0.0969 -0.6274  0.0986
 9489W        W29769   4.984   7.366   3.625  0.1915 -0.1367  0.1786
 9490W        W29770  18.121   2.469   0.075 -0.0750 -0.1891  0.2295
 9491W        W29771   1.448   2.936   3.559 -0.0051  0.0523 -0.4250
 9492W        W29772  15.327  14.748   1.933  0.2238  0.1036 -0.1845
 9493W        W29773  13.800   1.523  10.185 -0.1930 -0.1036  0.2105
 9494W        W29774  16.328  18.389   2.841 -0.3031 -0.4960 -0.0842
 9495W        W29775  13.151  10.231   2.291  0.1167  0.1124 -0.2800
 9496W        W29776  15.731   7.319   1.603 -0.0381 -0.1695 -0.0504
 9497W        W29777  13.736  13.333   3.957 -0.0229  0.4989 -0.0804
 9498W        W29778  15.781  13.154  11.429  0.0699  0.1197 -0.0872
 9499W        W29779   6.289  12.077   0.204  0.1862 -0.0473  0.1146
 9500W        W29780  15.983   0.706   1.429  0.0432 -0.1799 -0.0157
 9501W        W29781  11.692   2.161  13.860  0.0945  0.5065 -0.0150
 9502W        W29782  18.395  18.206  11.354 -0.2952  0.0930  0.1478
 9503W        W29783   1.262  14.210   2.040 -0.0115 -0.3861 -0.0677
 9504W        W29784   8.353  11.050   2.859 -0.1190  0.1293  0.0742
 9505W        W29785   1.169   7.006  14.253 -0.1487  0.0704  0.0435
 9506W        W29786  18.390  11.424   0.743 -0.0235  0.1123  0.3256
 9507W        W29787   5.470   9.363   2.092 -0.3411 -0.0131 -0.0820
 9508W        W29788   4.410  12.224  13.129  0.0971 -0.0189  0.0137
 9509W        W29789   7.680   2.894   1.453  0.0489  0.0948  0.0246
 9510W        W29790   1.670   5.660  12.734 -0.0986 -0.0678  0.2998
 9511W        W29791   0.791   4.563   2.684  0.1430  0.1597 -0.2168
 9512W        W29792   1.360   9.591   2.801  0.0860  0.2045 -0.1971
 9513W        W29793  15.701  16.619   3.128 -0.1392 -0.0201 -0.2564
 9514W        W29794   1.782  19.380   0.492 -0.0281  0.4395 -0.0731
 9515W        W29795  14.414   7.906  11.081  0.1371 -0.0625 -0.0462
 9516W        W29796  17.971   5.279   0.767 -0.0243  0.2757 -0.1082
 9517W        W29797  13.180  19.040  14.223  0.1818 -0.0715  0.1322
 9518W        W29798  11.978  11.170   0.593 -0.2518  0.2598  0.1677
 9519W        W29799   0.925  11.587  12.183 -0.3459  0.0507  0.1418
 9520W        W29800  18.293  13.152  12.968  0.1926  0.0785 -0.1620
 9521W        W29801  14.068   2.084   0.755 -0.0376 -0.1815  0.3149
 9522W        W29802  14.469   3.893  12.275  0.3533  0.2713 -0.2921
 9523W        W29803   7.929  12.225   2.271 -0.1112 -0.0693  0.2968
 9524W        W29804   5.147   9.753   3.051 -0.1644  0.1075 -0.0848
 9525W        W29805   4.596  15.954   3.608  0.4787 -0.1279 -0.2350
 9526W        W29806  16.512  10.767   0.633  0.0047 -0.1855 -0.1302
 9527W        W29807  13.817  11.325   2.570 -0.0370 -0.3287 -0.0223
 9528W        W29808   1.391  14.655  14.424  0.0105  0.4121 -0.0031
 9529W        W29809  14.132  16.636   1.241 -0.2588 -0.2005 -0.2549
 9530W        W29810  10.326  14.475  12.009  0.3260  0.1301 -0.0634
 9531W        W29811  10.881   6.590   3.836 -0.0811 -0.3978  0.1617
 9532W        W29812  18.984   4.595  12.086 -0.0595  0.1546 -0.0394
 9533W        W29813  10.823   6.955   3.463  0.0053 -0.2813 -0.1333
 9534W        W29814  11.182   0.038   0.388 -0.0926 -0.0277  0.0995
 9535W        W29815   1.663  16.964  13.993 -0.2987 -0.3347 -0.1179
 9536W        W29816   4.202   8.982   2.381  0.2025  0.0939  0.0903
 9537W        W29817  11.217  17.491   1.836 -0.0972  0.2548  0.1346
 9538W        W29818   7.597   4.216   0.351 -0.0676  0.0882 -0.1903
 9539W        W29819  17.832  10.397   2.935 -0.1091  0.3137 -0.1282
 9540W        W29820  16.391   3.197   2.725  0.0949 -0.1004 -0.3884
 9541W        W29821   3.946   4.318  14.352 -0.0881 -0.0407 -0.1136
 9542W        W29822   2.106  13.348   1.753 -0.1447 -0.0251 -0.0860
 9543W        W29823   5.716   9.338   1.145  0.2035 -0.0883  0.2756
 9544W        W29824  15.530   8.685   1.840 -0.0177 -0.0523 -0.2805
 9545W        W29825   3.992  10.278  11.669  0.2256 -0.2742  0.2049
 9546W        W29826   5.255   8.439  12.951  0.0040 -0.3108 -0.0717
 9547W        W29827   7.412  18.988  11.272  0.1113  0.1718  0.2018
 9548W        W29828  10.750   3.342  14.050  0.3014  0.2504  0.2310
 9549W        W29829   6.173  13.524   2.042  0.1913  0.1754  0.0506
 9550W        W29830  12.651   5.346  13.859 -0.2959  0.1127 -0.1835
 9551W        W29831  17.808   1.514  10.534 -0.1667  0.1152  0.3158
 9552W        W29832   1.024   6.682   1.334  0.0357 -0.1045 -0.1449
 9553W        W29833   5.964   0.449  11.705  0.0663  0.1346 -0.4007
 9554W        W29834   3.731   5.159   0.905 -0.2337  0.2229  0.1321
 9555W        W29835  13.738   9.215   1.892 -0.0043  0.0701 -0.0532
 9556W        W29836  14.127  11.958   3.007  0.4969  0.0920 -0.0234
 9557W        W29837  16.100  15.923   3.274  0.0873 -0.0932  0.1288
 9558W        W29838   2.759  15.405   3.728 -0.0556 -0.0668  0.3135
 9559W        W29839  11.765   3.692   3.259 -0.0961  0.1579  0.0515
 9560W        W29840   8.127  15.140  12.892  0.0427 -0.2149  0.3155
 9561W        W29841  11.328   6.265   3.512  0.3099  0.0774  0.1321
 9562W        W29842  15.368  17.873   2.921  0.0027 -0.1131  0.2653
 9563W        W29843  13.391   3.300   3.030 -0.1142 -0.2232 -0.1772
 9564W        W29844   0.344   9.849  11.616 -0.1766 -0.1888  0.0378
 9565W        W29845  14.244  12.474   0.407 -0.1068  0.0072 -0.0359
 9566W        W29846   6.272  11.381  11.679 -0.3820  0.0617  0.0593
 9567W        W29847   3.678  11.453  14.489  0.0721 -0.0718 -0.0774
 9568W        W29848  12.624   5.514  11.577  0.0407 -0.0846  0.1186
 9569W        W29849   7.815   5.024  13.231  0.0577 -0.0804 -0.3384
 9570W        W29850   8.547  18.215  10.704  0.2028  0.0372  0.2786
 9571W        W29851  12.368  14.256   3.872  0.3471 -0.1854  0.0792
 9572W        W29852   6.948  13.532  13.587  0.0384 -0.2435 -0.2003
 9573W        W29853   3.798  12.817  12.794 -0.1011  0.0793 -0.1811
 9574W        W29854   2.480  13.025  12.759 -0.1245 -0.3606  0.0619
 9575W        W29855   9.094   2.354   2.783  0.0867  0.0945  0.0653
 9576W        W29856   7.641  12.998   0.093  0.0249 -0.1566  0.2361
 9577W        W29857  10.028  15.558   1.997 -0.1357 -0.0723  0.1156
 9578W        W29858   1.927   7.971   0.317 -0.0440 -0.3134 -0.1545
 9579W        W29859  16.784  18.466   0.369 -0.2239 -0.1128  0.0324
 9580W        W29860  17.678  13.127  13.584 -0.3158 -0.1207 -0.0646
 9581W        W29861   4.998   2.646   0.436 -0.1029 -0.2892 -0.1437
 9582W        W29862  10.363  15.759   1.204 -0.1892 -0.0678  0.0230
 9583W        W29863  15.781   6.093   3.315 -0.0030 -0.0660  0.2428
 9584W        W29864  12.240   3.864   3.342 -0.0247  0.0961 -0.0312
 9585W        W29865   5.123   1.976  13.815 -0.1051 -0.1752 -0.1238
 9586W        W29866  10.411  13.919  12.056 -0.2213 -0.0992 -0.0173
 9587W        W29867  11.158  19.209   3.887  0.0952  0.1451  0.1234
 9588W        W29868   1.649  12.170  10.677  0.0995 -0.0369 -0.2528
 9589W        W29869   2.756  11.971  12.931  0.0309 -0.2301 -0.0414
 9590W        W29870  17.248   2.884  14.165 -0.0482 -0.0427 -0.0235
 9591W        W29871   8.176  18.508   3.830 -0.0097 -0.0514 -0.3238
 9592W        W29872   4.076  17.729   0.686  0.3264  0.1552  0.0428
 9593W        W29873   5.258  13.807  13.354 -0.0623  0.1132  0.0586
 9594W        W29874   0.446  12.785  13.267 -0.0277  0.0617 -0.2542
 9595W        W29875  17.919  11.013  11.974 -0.1465 -0.2758 -0.1357
 9596W        W29876   7.841  11.295   3.227  0.0120 -0.0965  0.4036
 9597W        W29877  18.394   1.362  12.175 -0.0495 -0.1294  0.0989
 9598W        W29878  15.263   2.117  12.599  0.0858 -0.0535  0.2395
 9599W        W29879   5.385   1.840   4.199  0.0657 -0.1393  0.3454
 9600W        W29880  13.928  18.558   2.855 -0.1833 -0.0441  0.0609
 9601W        W29881  13.190   7.476   3.942 -0.2679 -0.0512  0.0678
 9602W        W29882  18.285  13.207  13.498 -0.3576  0.0409 -0.1079
 9603W        W29883  13.269   9.438   2.210  0.3624 -0.0435 -0.0835
 9604W        W29884  14.251   2.715   1.518 -0.0363  0.0959 -0.2519
 9605W        W29885  16.371  15.054  14.391 -0.2816  0.2197 -0.0179
 9606W        W29886   5.310   2.794  13.243 -0.2212 -0.1613 -0.0960
 9607W        W29887  10.826  18.449  11.359 -0.0161  0.0288 -0.1552
 9608W        W29888  12.820  10.311   3.807 -0.1404 -0.0326 -0.0435
 9609W        W29889  17.621   6.900   1.522  0.0878  0.1992  0.1255
 9610W        W29890   8.993   0.535   4.431  0.1818  0.1400  0.0765
 9611W        W29891  19.089   7.358  14.269  0.0337  0.0350 -0.0088
 9612W        W29892   0.396  13.548  12.392 -0.1698 -0.3881 -0.2300
 9613W        W29893   6.512  13.158   2.118 -0.0800  0.0802  0.0912
 9614W        W29894  12.888   2.179  11.968 -0.1184 -0.0062  0.2181
 9615W        W29895   5.647   6.924  13.903 -0.1497 -0.1553  0.0600
 9616W        W29896  19.350  15.013  12.486  0.0187  0.2713 -0.0779
 9617W        W29897   6.488  11.244   2.319  0.1854 -0.1473 -0.1406
 9618W        W29898  13.824   8.181  10.429 -0.1441  0.2638 -0.3424
 9619W        W29899   6.514   7.649  12.872  0.0557  0.1031  0.1039
 9620W        W29900  15.097  13.470  11.962  0.2094 -0.0611  0.2279
 9621W        W29901  19.121  19.051   0.061  0.3209  0.0155 -0.0436
 9622W        W29902  14.533  13.972  11.208  0.0145  0.0445 -0.0124
 9623W        W29903   0.549  19.315   2.476 -0.0878  0.2503 -0.1412
 9624W        W29904  18.456   3.831  11.920  0.2772  0.0402  0.0428
 9625W        W29905   3.895   1.391   3.296  0.4446 -0.1208  0.0362
 9626W        W29906  11.528  16.514   0.280  0.0680  0.1912 -0.2372
 9627W        W29907   2.341  13.911   9.572 -0.0579 -0.0607 -0.4154
 9628W        W29908   2.328  12.687   2.497  0.3384 -0.1241 -0.0091
 9629W        W29909  13.210   5.582  12.531  0.1272  0.0445  0.2427
 9630W        W29910  18.612  11.682   2.746  0.4427 -0.0236 -0.0521
 9631W        W29911  12.352  18.317  10.808  0.0444 -0.2768 -0.2112
 9632W        W29912   3.566   0.079   2.760 -0.2376  0.2021 -0.1240
 9633W        W29913   2.756   7.403   0.306  0.0495 -0.2668  0.1037
 9634W        W29914   3.814  11.430  10.278  0.4901  0.1344  0.0914
 9635W        W29915  10.505  17.401   3.176  0.1922  0.1240  0.0798
 9636W        W29916  14.816  11.182  10.852 -0.3365 -0.0830  0.1568
 9637W        W29917   6.545  13.884  11.484  0.2282 -0.3614  0.1131
 9638W        W29918  17.818  15.102  13.014 -0.1734 -0.0138 -0.0245
 9639W        W29919   3.936   9.351  11.111 -0.2435  0.2752 -0.1506
 9640W        W29920   0.401  19.422   0.251  0.1369  0.2066  0.1582
 9641W        W29921  15.387  12.300   3.048 -0.1276 -0.0055 -0.0282
 9642W        W29922  12.762  18.490   0.338 -0.3918  0.0630  0.0337
 9643W        W29923  14.683   2.744  12.250  0.1961  0.2569  0.1565
 9644W        W29924   6.115   7.312  14.407  0.0935  0.0728  0.0393
 9645W        W29925   6.083  12.413   1.036  0.0211  0.2936 -0.2132
 9646W        W29926  16.224   1.774   1.763  0.3502  0.4134  0.1459
 9647W        W29927   0.160  10.613  10.390 -0.0885  0.2391  0.0564
 9648W        W29928   0.630  15.131  13.785  0.1065  0.2197  0.4527
 9649W        W29929  17.166   4.672   5.342  0.1797 -0.2138 -0.2019
 9650W        W29930   2.197  13.579   3.651 -0.2481  0.0662 -0.2414
 9651W        W29931   8.071  13.143   3.199 -0.0231  0.0818  0.1236
 9652W        W29932   6.631   6.821  10.597 -0.1237  0.0165  0.2454
 9653W        W29933   0.583   0.697   0.912  0.0872  0.2371 -0.0229
 9654W        W29934   7.188  14.106   3.740  0.0217  0.0474  0.1100
 9655W        W29935  18.359  18.702   0.793 -0.3236 -0.1960 -0.0984
 9656W        W29936   8.938  11.604  12.253  0.0431  0.1874 -0.2329
 9657W        W29937  16.445  10.888   0.102  0.1991  0.0586 -0.3745
 9658W        W29938  17.119  14.090   0.611  0.1913  0.0958  0.0471
 9659W        W29939  13.079   5.793  12.070  0.1627 -0.1261 -0.0196
 9660W        W29940   5.139  12.685   4.161  0.2767 -0.0781 -0.0370
 9661W        W29941  11.280  19.301   0.881 -0.3128  0.0040  0.0229
 9662W        W29942   7.489   8.729   1.679 -0.2276 -0.2927 -0.0296
 9663W        W29943   1.474   7.526   2.195  0.0287 -0.2600  0.0566
 9664W        W29944   2.566  16.086   2.445  0.0060  0.0069  0.3220
 9665W        W29945   8.652  15.089   2.610  0.0911  0.0306  0.0880
 9666W        W29946   7.616  17.959  12.807 -0.1745  0.2158  0.0165
 9667W        W29947   6.469  10.235   0.080 -0.0990  0.3073  0.1117
 9668W        W29948   7.476   9.458  11.694  0.0230 -0.2199 -0.0529
 9669W        W29949   6.678   4.408  13.059  0.0122 -0.0948 -0.3232
 9670W        W29950   2.158  14.627   2.698  0.0318 -0.3897 -0.3010
 9671W        W29951  14.699   4.067   2.321 -0.2168  0.0920 -0.0986
 9672W        W29952  14.159  12.049   0.603 -0.0171  0.0689 -0.0150
 9673W        W29953   5.392   0.711   3.763  0.1335  0.1935  0.2011
 9674W        W29954  12.915   5.751   2.139  0.2346 -0.0206 -0.0035
 9675W        W29955  10.518   7.232  10.294 -0.3169 -0.1183 -0.3672
 9676W        W29956   4.347   4.775   1.736 -0.0409  0.0010  0.2608
 9677W        W29957  14.857   0.912   2.070  0.0680 -0.2210 -0.0646
 9678W        W29958   0.882  15.008   3.846  0.4577  0.0713  0.0821
 9679W        W29959  15.908  15.829  13.061  0.2124 -0.1254  0.0171
 9680W        W29960  11.093   2.460   2.503  0.1031  0.0632  0.0215
 9681W        W29961   6.564   2.248   2.856 -0.0446  0.0577 -0.3295
 9682W        W29962  15.046   0.237   0.813  0.0477  0.1451 -0.1433
 9683W        W29963  14.337  16.199   0.178  0.1066  0.0334  0.1602
 9684W        W29964   9.071  14.861   5.019  0.1530 -0.4513 -0.2371
 9685W        W29965   4.936  16.471   3.300  0.2324  0.1902  0.1768
 9686W        W29966  14.931  14.681   2.467 -0.4216 -0.0046 -0.0880
 9687W        W29967   1.835  11.861   2.203  0.3450  0.2666 -0.0389
 9688W        W29968   8.505  15.998  12.415  0.1973  0.0164 -0.0366
 9689W        W29969   4.894  16.907   1.608  0.2807  0.2372 -0.2494
 9690W        W29970  12.616  15.277   2.509  0.1122 -0.0222 -0.1446
 9691W        W29971  15.202  14.292   3.179 -0.1502 -0.0470  0.3057
 9692W        W29972   1.149  16.869   1.220 -0.0339  0.1823 -0.0433
 9693W        W29973  16.674   9.919  12.021  0.0275 -0.1966 -0.0457
 9694W        W29974  10.269  12.728  11.740  0.1128  0.1619  0.0706
 9695W        W29975   8.708   5.858  14.298 -0.0494  0.0677  0.0899
 9696W        W29976   6.791   5.206  13.750  0.0246  0.2065 -0.2940
 9697W        W29977  13.978   3.623   3.146  0.4036  0.2193  0.1048
 9698W        W29978   0.724   8.271  10.487 -0.1192 -0.0748  0.1634
 9699W        W29979  11.761   3.925  12.713  0.0672  0.0084 -0.1546
 9700W        W29980  19.244   8.029  12.034  0.1001 -0.1527  0.1382
 9701W        W29981   6.797   3.382   3.808 -0.3859 -0.1036 -0.2923
 9702W        W29982   0.650   2.534   2.455  0.1903 -0.0596 -0.1769
 9703W        W29983  17.369   2.916  11.108 -0.2691  0.1161 -0.0839
 9704W        W29984  13.122  12.584  11.538 -0.2562  0.0577  0.0519
 9705W        W29985  14.662  14.812   0.390 -0.0617  0.0077  0.0741
 9706W        W29986   2.447   6.946   3.277  0.0835  0.0349  0.3390
 9707W        W29987   6.345  15.579   3.202 -0.3855 -0.0942  0.1358
 9708W        W29988  15.433   4.886  11.045 -0.0388  0.0188  0.0047
 9709W        W29989  18.839  13.696   1.633  0.5217 -0.0273 -0.0693
 9710W        W29990  10.634   1.317  12.323 -0.0720  0.1659  0.3230
 9711W        W29991  10.984   2.198   0.211  0.0677 -0.1789 -0.0381
 9712W        W29992   2.629   6.510  14.068 -0.0970  0.1641  0.1520
 9713W        W29993   4.879  15.604   2.153  0.0207 -0.0040 -0.0393
 9714W        W29994  11.227   2.301   1.029  0.1092 -0.1213  0.1070
 9715W        W29995  17.339  12.873  11.089  0.1157  0.1344 -0.1891
 9716W        W29996   6.144  10.147   0.472  0.3196  0.1163  0.3097
 9717W        W29997   0.106  13.206  11.086  0.0765  0.1339  0.1535
 9718W        W29998   6.296   5.787   4.187 -0.0763 -0.1848 -0.1269
 9719W        W29999  15.362  18.333  14.125 -0.1409 -0.1008 -0.0893
 9720W        W30000   2.571   5.730   2.712  0.1348  0.2383 -0.0621
 9721W        W30001   4.855   5.808   0.308  0.3491 -0.1075  0.0183
 9722W        W30002   6.642  16.251   2.524  0.0145  0.0901 -0.1793
 9723W        W30003  14.960  12.007  13.641 -0.1918 -0.0978  0.1995
 9724W        W30004   7.194   8.183   4.616 -0.2526  0.0350 -0.1526
 9725W        W30005  15.757   2.616   3.158 -0.1270 -0.1333  0.2212
 9726W        W30006  19.119   8.785  12.104  0.2088 -0.4793 -0.0755
 9727W        W30007   1.525   2.285   0.233 -0.0343  0.2018 -0.4102
 9728W        W30008   1.132  14.718   3.031 -0.2288 -0.3506  0.3335
 9729W        W30009  12.046  10.186   5.078  0.0223 -0.1502  0.1080
 9730W        W30010   4.587   3.765   3.969 -0.3863 -0.1295 -0.0209
 9731W        W30011   0.143   0.090   0.844  0.0365 -0.1422  0.1216
 9732W        W30012   6.394   5.083   3.536  0.0432  0.0086  0.0055
 9733W        W30013  17.611   0.125  13.803 -0.0874 -0.1845  0.2486
 9734W        W30014  10.068   3.971   1.650 -0.1079 -0.0701  0.1560
 9735W        W30015  14.801  11.850  12.839 -0.1738 -0.0999  0.1653
 9736W        W30016  17.222  17.156   0.897 -0.0388  0.0593  0.0293
 9737W        W30017   5.680   7.385  10.669  0.1710  0.3618 -0.3178
 9738W        W30018   4.805   6.431   3.533 -0.2373 -0.2187  0.1405
 9739W        W30019   6.816  11.759   2.936  0.0689 -0.1871 -0.0551
 9740W        W30020  10.243  14.130   1.596  0.0658 -0.3168  0.0015
 9741W        W30021  18.237   9.787   2.420  0.0752  0.0879  0.2427
 9742W        W30022   8.066   8.950  10.881  0.0944 -0.0206 -0.0255
 9743W        W30023  13.388   2.533  12.130 -0.0944  0.2620  0.1275
 9744W        W30024   1.422  12.477   1.398 -0.0662 -0.1896  0.0851
 9745W        W30025   0.277   5.404   3.505  0.3171  0.0677  0.1278
 9746W        W30026   9.718  16.760  11.887  0.0611 -0.1256 -0.0094
 9747W        W30027   6.160   8.967  14.214 -0.0602  0.0860  0.1605
 9748W        W30028   4.329  13.708  14.046  0.0488 -0.1179  0.0020
 9749W        W30029  18.011  14.811  14.303 -0.0342 -0.0261 -0.3144
 9750W        W30030  14.053   9.403   3.226  0.2474 -0.1867  0.1319
 9751W        W30031   2.669  14.627  11.966 -0.2448  0.1779 -0.2424
 9752W        W30032   4.647  14.058  11.658  0.2312  0.0514 -0.0712
 9753W        W30033  14.977  14.037  11.461  0.1008  0.3041 -0.0207
 9754W        W30034  11.102   7.505   0.864  0.2569  0.1567  0.0898
 9755W        W30035  17.970   1.103  12.293  0.4873  0.0581 -0.1522
 9756W        W30036   0.206  14.693   1.431 -0.2494  0.0257 -0.4016
 9757W        W30037   7.092  18.773   1.628  0.0117 -0.0415  0.1810
 9758W        W30038  19.285   1.298  11.107  0.3100 -0.1899 -0.0968
 9759W        W30039   2.510  18.677   1.604  0.1288 -0.0962  0.1732
 9760W        W30040   8.401  16.978  11.985  0.0690 -0.0457  0.2480
 9761W        W30041  15.031   3.167  10.558 -0.2373  0.0371  0.0914
 9762W        W30042  15.646   0.465   2.050  0.0480  0.0956  0.0344
 9763W        W30043  14.504   9.566   3.205  0.0739  0.0203  0.1911
 9764W        W30044   9.570  14.635   2.148 -0.0637  0.0926  0.1865
 9765W        W30045  12.229   9.247  11.508  0.0220 -0.1160  0.0062
 9766W        W30046  18.582  10.999   1.024 -0.0950  0.0864 -0.0556
 9767W        W30047  18.595   9.765  10.506  0.0941  0.1996 -0.0906
 9768W        W30048  16.291   0.056   1.902  0.2120  0.0899 -0.1586
 9769W        W30049  12.145   3.508   1.032 -0.0473  0.0366  0.2087
 9770W        W30050  18.197   3.195  11.359 -0.1071  0.2344 -0.1504
 9771W        W30051   0.235   0.981  13.715 -0.2888 -0.2727  0.1468
 9772W        W30052  11.471   7.490   2.114 -0.1096 -0.1785  0.3934
 9773W        W30053  16.993  12.071  10.687 -0.0672  0.1603  0.0244
 9774W        W30054   8.032  15.894   3.174 -0.0120  0.1335 -0.0864
 9775W        W30055   4.120  14.377   1.230  0.1596 -0.1786  0.0726
 9776W        W30056  13.841   9.629   2.363  0.0216  0.0324  0.0071
 9777W        W30057  16.766   5.337   3.532  0.1273 -0.1510  0.3325
 9778W        W30058   7.654  16.057  14.241 -0.2392 -0.0610 -0.1773
 9779W        W30059   4.268   3.013   0.088  0.0028  0.1204  0.1665
 9780W        W30060  17.740   2.894  10.704  0.0272 -0.1556 -0.0884
 9781W        W30061   9.811  18.539   4.690  0.2379  0.0643 -0.2578
 9782W        W30062  14.790  18.485   1.118  0.2190 -0.0451  0.0247
 9783W        W30063  17.455  12.420   3.393 -0.2307 -0.0059 -0.4200
 9784W        W30064  12.151  17.538  12.422  0.4081  0.2095 -0.0559
 9785W        W30065  15.986  12.947  13.526 -0.1718  0.3050 -0.0837
 9786W        W30066  14.419  13.718   1.293  0.3299 -0.1331  0.1868
 9787W        W30067  17.113   0.872  11.302 -0.0420 -0.0736 -0.0933
 9788W        W30068  17.033   1.149  13.659  0.2625  0.2433 -0.3990
 9789W        W30069   7.846  14.922   2.798 -0.0229  0.1698  0.1619
 9790W        W30070   9.689   1.065   4.204  0.0450  0.1902  0.3680
 9791W        W30071   0.033  17.357   5.328 -0.0724 -0.1183  0.0225
 9792W        W30072  10.837   2.431   0.668  0.1849  0.5107  0.1373
 9793W        W30073  15.613   9.176  10.900 -0.3311  0.1056  0.2630
 9794W        W30074  15.475   4.832   3.390 -0.1052  0.2186 -0.0063
 9795W        W30075  18.777  10.862  14.045 -0.0567  0.0033  0.1701
 9796W        W30076  17.637   4.608  12.474  0.0016  0.2298 -0.1200
 9797W        W30077  14.751  14.634  14.377 -0.2460  0.0559 -0.2182
 9798W        W30078  13.012  13.172   0.735  0.1841 -0.0568  0.0121
 9799W        W30079  10.430   9.426   2.782 -0.0260 -0.0041 -0.1943
 9800W        W30080   7.436   6.270  12.956 -0.1460  0.0453 -0.1155
 9801W        W30081  15.319   5.186  13.882 -0.1562  0.0582  0.2362
 9802W        W30082   8.312   8.518   1.877  0.1497 -0.1591 -0.2875
 9803W        W30083   0.916   5.741  11.020  0.0744 -0.1740  0.0139
 9804W        W30084   5.930   1.872  12.174 -0.0852  0.1522 -0.1840
 9805W        W30085  16.536   7.936   1.337 -0.1552  0.1471 -0.1481
 9806W        W30086  12.459   8.386  12.101  0.0728  0.2003 -0.0910
 9807W        W30087  14.833  12.517   2.015  0.0532 -0.0743 -0.1711
 9808W        W30088  17.738   1.935  12.701 -0.0128 -0.0846 -0.0574
 9809W        W30089  14.615   5.372  13.590  0.0015  0.0291  0.2770
 9810W        W30090  13.399  11.722   1.774 -0.0973  0.1030  0.3399
 9811W        W30091  11.276   1.362   2.876  0.0205 -0.0025  0.1840
 9812W        W30092  12.352   8.406   1.280  0.3129 -0.0069 -0.1728
 9813W        W30093  19.331  10.809   1.804  0.0938 -0.1282  0.0071
 9814W        W30094   8.183  15.074   9.903 -0.2267  0.1102  0.0951
 9815W        W30095   1.071  14.333   0.212 -0.0065 -0.2135  0.1293
 9816W        W30096  13.476  12.761  13.823  0.0664 -0.1129 -0.0457
 9817W        W30097   7.021   3.910  13.391 -0.0371  0.1260  0.1668
 9818W        W30098   1.324   6.823  10.665 -0.0139 -0.0444 -0.1575
 9819W        W30099  13.774  14.347   1.841 -0.4349  0.1536 -0.0176
 9820W        W30100   3.110   8.481  11.477 -0.2148 -0.0088  0.0350
 9821W        W30101   7.018  17.359  13.244  0.0034  0.0650  0.2184
 9822W        W30102   8.918  17.258  13.815  0.2691  0.0469  0.1583
 9823W        W30103  10.522   6.770   2.339  0.3249 -0.0941  0.1305
 9824W        W30104  18.325  16.798   3.271  0.0904  0.0937 -0.1269
 9825W        W30105  15.485  10.359   2.075 -0.0553  0.1500  0.3154
 9826W        W30106   4.665  15.067   3.527 -0.2972 -0.0866  0.2438
 9827W        W30107   2.959  12.025   2.914 -0.0722 -0.0055  0.2159
 9828W        W30108   8.357  14.702  14.029  0.1132  0.0926 -0.0513
 9829W        W30109   9.680  13.292   3.501  0.0219  0.3785 -0.2391
 9830W        W30110   7.271  14.392   3.291 -0.4270 -0.0235  0.1311
 9831W        W30111  19.161   7.527  11.801 -0.2720 -0.1993 -0.0074
 9832W        W30112  17.226   1.867   2.916  0.1663 -0.0953  0.2280
 9833W        W30113  18.121  14.348  13.614 -0.0893  0.0400  0.0180
 9834W        W30114  10.709   0.547   1.177  0.0221 -0.2521 -0.1248
 9835W        W30115  14.665  17.865   3.727  0.0687  0.1215 -0.1236
 9836W        W30116  17.096   0.602  12.672  0.2421  0.0401 -0.3095
 9837W        W30117   1.690  12.007  13.795 -0.0912 -0.0139 -0.2011
 9838W        W30118  11.135  13.104  11.282  0.0569 -0.2832  0.4135
 9839W        W30119   5.579   5.467   2.866 -0.1198 -0.2062  0.1395
 9840W        W30120  16.148   9.897  13.359  0.5024  0.1995 -0.0740
 9841W        W30121  15.809   7.344  10.728  0.0474 -0.1692 -0.4504
 9842W        W30122   8.476   8.453   4.124 -0.0234  0.1631  0.0637
 9843W        W30123   2.903  16.848   1.206  0.0027  0.0681  0.0868
 9844W        W30124   6.189  12.861   0.903 -0.0779  0.1710 -0.1837
 9845W        W30125  11.763  18.352   3.405 -0.0230 -0.4220  0.1900
 9846W        W30126   8.108   3.050   3.447 -0.2701  0.3594 -0.0258
 9847W        W30127  11.560  17.593   3.980 -0.0604  0.0290 -0.0353
 9848W        W30128  10.119   6.002   0.600  0.1402 -0.1392 -0.0262
 9849W        W30129   4.740   2.317  13.837 -0.0524 -0.2529  0.0683
 9850W        W30130  12.361  15.521  14.012 -0.0152 -0.1780 -0.1018
 9851W        W30131   6.927  16.432   1.698 -0.1174  0.1467 -0.2750
 9852W        W30132   9.921   7.146  13.917 -0.0899 -0.0098  0.1606
 9853W        W30133  18.532  16.503  10.541 -0.0468 -0.0161 -0.0412
 9854W        W30134  15.957  14.740   0.006 -0.1005  0.1338 -0.0416
 9855W        W30135   1.530   3.273  12.172  0.1184 -0.1737 -0.0049
 9856W        W30136   9.288  12.731   0.947 -0.0252  0.0820  0.0588
 9857W        W30137  15.543   7.166  11.211  0.1583 -0.3122 -0.1379
 9858W        W30138   9.668  16.475   1.551 -0.1394  0.0892  0.0947
 9859W        W30139   4.483  11.198  11.992 -0.0856  0.1267 -0.1681
 9860W        W30140   9.437  12.666  13.090  0.0229 -0.3150 -0.1789
 9861W        W30141  18.882  18.041   1.831 -0.1371 -0.0439 -0.3769
 9862W        W30142   7.243  13.846   1.806  0.3052 -0.2461  0.5924
 9863W        W30143  19.144   4.578   0.153  0.0260 -0.2417 -0.0212
 9864W        W30144   1.197   1.327  14.171  0.0830 -0.0581  0.1333
 9865W        W30145   1.285  16.164  12.822 -0.2193 -0.1634 -0.2266
 9866W        W30146  19.367   5.357  14.305  0.0377  0.0289 -0.0032
 9867W        W30147  17.828  12.669   0.417 -0.1086 -0.1386 -0.2263
 9868W        W30148   8.991  18.089  13.125 -0.0075 -0.1115  0.2663
 9869W        W30149  13.789   3.533   4.363  0.0570  0.4333 -0.0645
 9870W        W30150  13.927  16.390  11.610 -0.0060 -0.2671 -0.2169
 9871W        W30151   8.921   6.043  11.801 -0.1371 -0.0277 -0.1901
 9872W        W30152   0.247  10.184   1.579 -0.0135 -0.0657  0.0765
 9873W        W30153  12.626   1.602   0.049  0.0504  0.2204 -0.3621
 9874W        W30154   0.599  18.667   4.110  0.2572  0.1876 -0.0922
 9875W        W30155  19.064   3.810  14.075 -0.1930  0.1069  0.1401
 9876W        W30156   0.224   6.030  11.081  0.2996  0.0265  0.3167
 9877W        W30157  13.847   4.969  13.899  0.2398  0.0296  0.1728
 9878W        W30158  10.663   7.185  10.886 -0.0949 -0.4081  0.1481
 9879W        W30159   4.180  14.160  11.405  0.1729 -0.0562 -0.0185
 9880W        W30160   8.426  15.286   1.550 -0.0374 -0.2311  0.1595
 9881W        W30161   6.295  10.135  14.100 -0.0544 -0.1226  0.0324
 9882W        W30162   9.520  15.462  13.379 -0.0889  0.0501  0.0869
 9883W        W30163  11.799   8.983   3.463 -0.1824 -0.0676  0.0862
 9884W        W30164   1.096  16.564  12.648  0.2909 -0.0281  0.1285
 9885W        W30165  10.347  11.560  10.859  0.1017 -0.0473 -0.2706
 9886W        W30166  11.011  15.836  13.245 -0.0008 -0.2737 -0.1729
 9887W        W30167  18.015  17.521  11.015  0.0129 -0.1768 -0.1439
 9888W        W30168   5.220   8.261  14.055  0.4598  0.1600 -0.0392
 9889W        W30169  13.111  15.697  12.427 -0.1953 -0.4725  0.0819
 9890W        W30170  13.383   9.801  13.647  0.0110 -0.2114  0.0497
 9891W        W30171  19.285   9.541   3.200  0.0107 -0.2040  0.0325
 9892W        W30172  11.224   3.177   1.435  0.2034 -0.0476 -0.0781
 9893W        W30173   5.434   8.970   0.960  0.1553 -0.1314  0.0836
 9894W        W30174  12.236  17.781   1.254  0.1358  0.2108  0.2407
 9895W        W30175   6.852   9.748   0.450  0.0691  0.0387  0.2959
 9896W        W30176   8.060  15.208  10.792  0.1734  0.4963 -0.1592
 9897W        W30177   5.344   0.065   2.459 -0.0195 -0.1536  0.0165
 9898W        W30178   4.790  19.094  11.188 -0.1545 -0.0511  0.1562
 9899W        W30179  12.554   3.342  11.422 -0.2046  0.2922 -0.1351
 9900W        W30180  16.358  18.941   2.847  0.0621  0.0392  0.0152
 9901W        W30181   8.211   3.199  11.108 -0.1460  0.1501 -0.1449
 9902W        W30182   1.339   8.834   1.920  0.3337 -0.1667 -0.0139
 9903W        W30183   4.129  10.914  13.868 -0.0497  0.0590  0.2488
 9904W        W30184   9.551   1.662   2.777 -0.0089 -0.2702  0.0150
 9905W        W30185   8.696  17.869   1.745  0.1209 -0.1585 -0.0649
 9906W        W30186  19.417   7.937   9.983 -0.0383 -0.0921 -0.1154
 9907W        W30187  17.361   6.773  11.133 -0.2657  0.0705  0.0713
 9908W        W30188   4.952   8.596   4.191 -0.0737 -0.1015  0.0943
 9909W        W30189   0.639   4.350   0.988  0.2342 -0.3367 -0.3681
 9910W        W30190  17.370  16.459   0.279 -0.3979 -0.1553 -0.2021
 9911W        W30191   6.080  12.337   4.041 -0.2108  0.0826  0.3142
 9912W        W30192   1.278   2.324   3.031 -0.3089 -0.2177 -0.0002
 9913W        W30193  14.896  19.298  14.009 -0.1677  0.1710  0.0260
 9914W        W30194   5.668  16.035  10.901  0.3412 -0.0133  0.0589
 9915W        W30195   4.885   1.065   2.109 -0.1936  0.0805 -0.0381
 9916W        W30196  12.947   1.783   3.301 -0.0796 -0.1301  0.1904
 9917W        W30197   2.129  15.897  11.224  0.1046 -0.1208 -0.0296
 9918W        W30198  10.947  13.992   0.306 -0.3435  0.1565  0.0129
 9919W        W30199  13.641   4.511  13.713  0.0916  0.2320 -0.1490
 9920W        W30200  15.542   6.032  13.785 -0.0061  0.2507  0.2164
 9921W        W30201  14.277   7.331  10.843  0.1624 -0.2576  0.0468
 9922W        W30202   6.049  15.546  10.957  0.2811  0.3984 -0.2545
 9923W        W30203  13.374  16.081  10.711 -0.2492  0.0360  0.1202
 9924W        W30204  13.677   9.628   0.938  0.2330 -0.1649 -0.0100
 9925W        W30205   5.390   5.018   3.616  0.1496  0.2685 -0.2544
 9926W        W30206  14.695   0.088  11.393  0.1542  0.1702  0.2008
 9927W        W30207  12.016   8.270   2.373  0.1247  0.0122  0.1122
 9928W        W30208  15.228   2.099   2.651 -0.0918 -0.2837 -0.0690
 9929W        W30209   3.375   4.662  13.810 -0.2713  0.0534  0.2450
 9930W        W30210   5.254   6.445  12.175 -0.5294  0.0006 -0.1347
 9931W        W30211  18.003  15.869   3.545  0.2056 -0.0637  0.2985
 9932W        W30212   6.671   6.801   1.918  0.0409 -0.2806  0.1314
 9933W        W30213  12.163   4.388  10.456 -0.0964 -0.3108 -0.1178
 9934W        W30214   8.257   3.721  11.707 -0.1121  0.1127 -0.2373
 9935W        W30215   3.501  15.390  14.317  0.2280  0.2111 -0.0097
 9936W        W30216   6.422  16.295  12.760  0.1136  0.0224  0.0602
 9937W        W30217   6.095   7.317   1.770  0.2945  0.2193  0.1084
 9938W        W30218   7.486   4.468  10.156  0.1459 -0.1971  0.2220
 9939W        W30219   1.642   9.917   1.168 -0.2887 -0.0869  0.0228
 9940W        W30220  14.591  16.239  11.302 -0.0863 -0.0107  0.1589
 9941W        W30221   4.618   5.135   3.471 -0.0772 -0.2246  0.0622
 9942W        W30222  13.837  15.561  13.341 -0.1303 -0.0015  0.0251
 9943W        W30223  10.869   3.868   0.996  0.1569 -0.1678 -0.1257
 9944W        W30224   2.349  17.373  13.742 -0.1751 -0.2399  0.0242
 9945W        W30225  12.036   5.293   3.439 -0.2591  0.2390 -0.1258
 9946W        W30226  18.065   7.759   3.693 -0.0093  0.0583 -0.1364
 9947W        W30227  16.068  17.755  13.060 -0.1671  0.1380 -0.0284
 9948W        W30228   1.760   5.556   2.300 -0.1991 -0.0447 -0.0358
 9949W        W30229   1.323  15.503  14.031  0.1676 -0.1070  0.0384
 9950W        W30230  15.894  13.953   3.419 -0.1285 -0.0952 -0.1269
 9951W        W30231  16.408   0.477  10.190 -0.1382 -0.0937  0.2680
 9952W        W30232   6.159   8.784   2.616  0.1321  0.3368 -0.0709
 9953W        W30233  12.743  16.977  13.566 -0.1716 -0.0085  0.5984
 9954W        W30234   4.258   6.230  10.777 -0.1299 -0.2662  0.2240
 9955W        W30235  17.499  13.538  14.493 -0.0769 -0.0866  0.0461
 9956W        W30236   0.423   1.523  13.047 -0.2190 -0.3117 -0.0212
 9957W        W30237  10.304   2.198   0.729 -0.2108  0.0004 -0.0930
 9958W        W30238   4.276  16.820   2.735 -0.0968 -0.0034  0.0056
 9959W        W30239   0.248  11.191  11.804  0.1034 -0.0100 -0.0112
 9960W        W30240  18.735  14.043   3.666 -0.0110  0.1145  0.1440
 9961W        W30241  10.434   7.575  12.357 -0.2363  0.1403 -0.0107
 9962W        W30242  18.076   1.502  13.424  0.0391 -0.0793 -0.1855
 9963W        W30243   2.459   4.722   1.515  0.4762 -0.0405  0.0646
 9964W        W30244  10.408   8.557  12.389 -0.1300  0.0534  0.0588
 9965W        W30245   7.101  16.991  12.873  0.0093  0.1282  0.0342
 9966W        W30246   6.768  17.575   0.540  0.0229 -0.2051 -0.1345
 9967W        W30247   9.323   0.189  10.789 -0.0508 -0.0794 -0.1040
 9968W        W30248   8.394  18.351   0.354 -0.0869  0.2155  0.3104
 9969W        W30249   9.118   5.996  12.808 -0.2170 -0.2100  0.1446
 9970W        W30250  16.839   4.773  13.727 -0.5237 -0.3025  0.2904
 9971W        W30251  12.460   9.102  14.105 -0.0693  0.1471  0.0973
 9972W        W30252   7.409  17.955  14.020  0.0888  0.1573 -0.1213
 9973W        W30253   3.241   0.112   1.175  0.0737 -0.1524 -0.3317
 9974W        W30254  18.895   1.811  12.122 -0.1818 -0.2089 -0.2043
 9975W        W30255   1.147   5.683  11.457  0.0404 -0.1687  0.2161
 9976W        W30256   4.457   2.969   1.395 -0.0903  0.0147 -0.0921
 9977W        W30257  17.142   5.658  12.230  0.1925 -0.1730 -0.2322
 9978W        W30258  13.265  13.138   2.593 -0.0972 -0.2725 -0.1134
 9979W        W30259  10.611   7.527  11.274 -0.1000  0.0390 -0.1313
 9980W        W30260   3.729   5.945  13.623  0.0640  0.0235  0.1381
 9981W        W30261  12.479   7.373   3.898 -0.1944 -0.0023 -0.0274
 9982W        W30262   8.882  15.646  10.438 -0.1965  0.0568  0.0663
 9983W        W30263  14.457  13.283   1.019  0.0608 -0.0285  0.0150
 9984W        W30264  16.066   1.134  11.312 -0.1635  0.4297  0.2499
 9985W        W30265  15.633   6.984   0.758  0.0004 -0.0519  0.0458
 9986W        W30266   4.159  13.542  10.414 -0.1081  0.1596 -0.2157
 9987W        W30267  15.267  18.305   3.132  0.1673  0.1052 -0.0256
 9988W        W30268   6.300   5.490  10.520 -0.0100 -0.2508 -0.1361
 9989W        W30269   6.314   7.147   4.186  0.0566 -0.0396 -0.1090
 9990W        W30270  10.406   3.669   3.031  0.0033  0.0098  0.1179
 9991W        W30271  13.498  18.700  12.145 -0.0786  0.1481 -0.0114
 9992W        W30272  13.263   5.916  13.963 -0.0939  0.0530  0.0252
 9993W        W30273  19.251  17.794   1.544 -0.0415 -0.0296 -0.0074
 9994W        W30274  11.133  18.978  13.914  0.1185 -0.1022 -0.3633
 9995W        W30275   9.811   3.890  13.815 -0.1782  0.3683 -0.1442
 9996W        W30276  10.922   9.297  12.764 -0.2387  0.0541  0.0631
 9997W        W30277   1.175  19.300  10.386  0.0077  0.0815 -0.4326
 9998W        W30278   9.385   9.304   0.613 -0.1261 -0.1730 -0.2729
 9999W        W30279  13.426  17.146   4.195  0.0709  0.0174  0.1666
10000W        W30280   3.232  18.227   1.044  0.1647  0.0663 -0.0135
10001W        W30281  15.427  13.857   3.168 -0.2197  0.1117  0.0545
10002W        W30282   3.767   8.268   1.781  0.2127  0.0006 -0.2853
10003W        W30283   1.959  13.057   2.481  0.0486  0.2625 -0.5414
10004W        W30284  15.646  13.869   2.244  0.0999 -0.2423 -0.0351
10005W        W30285   6.691   6.381  13.216  0.2298  0.1223 -0.0643
10006W        W30286   3.371   9.467  11.695  0.2011  0.2089  0.3313
10007W        W30287  17.711  11.640   0.020  0.0631  0.3857  0.1142
10008W        W30288   9.313  15.039   3.566 -0.0219  0.2879  0.0399
10009W        W30289   9.868   0.289   1.742  0.0986 -0.1653  0.2754
10010W        W30290  16.693   3.769  13.331 -0.2168 -0.2159  0.3430
10011W        W30291   0.265  17.506   2.863 -0.0496 -0.1306 -0.4751
10012W        W30292   7.367   5.980   0.913  0.4282 -0.0988 -0.2327
10013W        W30293   8.570   2.296  13.253 -0.2963 -0.1055 -0.2195
10014W        W30294   4.873   6.137  14.418  0.2581 -0.2359  0.0522
10015W        W30295  15.333   8.712   1.164 -0.2302 -0.3089 -0.1197
10016W        W30296   1.202  17.812  13.393 -0.0888 -0.0654 -0.1712
10017W        W30297  15.794   3.194   4.332  0.1531 -0.2352  0.2205
10018W        W30298  15.407  12.374   2.066  0.0233  0.3610 -0.1145
10019W        W30299  14.083  11.287   3.558  0.0625 -0.2290 -0.2211
10020W        W30300  11.238  14.308  14.368  0.3599 -0.0723 -0.1842
10021W        W30301  12.537   3.953   2.474 -0.0759 -0.5588 -0.1531
10022W        W30302  10.629  18.094  10.710  0.0381  0.0529 -0.0143
10023W        W30303  18.116   5.200   0.285 -0.0616  0.0323  0.1821
10024W        W30304   2.215   5.251   3.120  0.0244 -0.1294 -0.2675
10025W        W30305  16.950  17.590  13.196  0.1196  0.0573  0.0424
10026W        W30306  17.336  15.267  13.154  0.0623 -0.1660 -0.0408
10027W        W30307  11.594  15.902   5.040 -0.1383  0.0627 -0.0394
10028W        W30308   6.977  13.095   2.269 -0.4126 -0.0298 -0.0681
10029W        W30309  12.610  13.163   0.421 -0.4228  0.3503 -0.2753
10030W        W30310   1.690   9.208  12.492 -0.1737 -0.0139  0.2006
10031W        W30311   0.600   5.918   1.489  0.0400 -0.0840 -0.1934
10032W        W30312  19.342   7.879  13.078 -0.1621  0.0918 -0.0920
10033W        W30313   0.188  19.043   1.694 -0.0468 -0.1642 -0.0144
10034W        W30314   2.342  18.126  13.006  0.0205  0.1550 -0.1856
10035W        W30315   8.288  11.709  12.963  0.0812 -0.0349 -0.2064
10036W        W30316   5.154  10.206   0.892  0.0135 -0.0336  0.1778
10037W        W30317   9.453   6.116   2.182  0.1707 -0.2321 -0.1542
10038W        W30318  14.477  19.025  11.253  0.0840 -0.1223  0.2210
10039W        W30319  12.740   8.210  11.110  0.1360  0.2519  0.0445
10040W        W30320  15.800   9.207  12.638  0.0707 -0.1416  0.0990
10041W        W30321  13.121  15.801   4.004  0.0258  0.0823 -0.3061
10042W        W30322   3.208  17.956   1.532 -0.0708  0.4691  0.3365
10043W        W30323   5.480  12.820  12.144 -0.3392 -0.3251 -0.0429
10044W        W30324   6.435  17.425  11.317  0.0504 -0.1569 -0.0300
10045W        W30325  16.031   9.858  11.981 -0.1331  0.0625 -0.1945
10046W        W30326   9.141   1.588  11.653 -0.0960 -0.2565  0.6120
10047W        W30327   4.826   6.924  11.814  0.1046  0.0025  0.2210
10048W        W30328  16.500  13.857   0.968 -0.1450  0.1466 -0.3883
10049W        W30329   8.292   6.833   3.792  0.1043  0.1580  0.0640
10050W        W30330   2.657   3.422   1.505 -0.1448  0.0673 -0.2309
10051W        W30331  17.710  11.387   9.950  0.1754  0.4349  0.1044
10052W        W30332   6.292  14.149  10.404 -0.2169 -0.0710  0.0294
10053W        W30333   4.934   2.205   0.631  0.0450 -0.0998  0.0894
10054W        W30334   7.806   8.458  11.186 -0.0842 -0.0578 -0.1750
10055W        W30335   4.334  10.588   0.018  0.0903 -0.1446 -0.0813
10056W        W30336   5.510  14.316   1.638 -0.0395 -0.0228 -0.1537
10057W        W30337  17.651   2.239   1.466 -0.0029 -0.1214 -0.2542
10058W        W30338  14.277   0.186  13.579 -0.0266 -0.0606 -0.0160
10059W        W30339  10.582  16.521  13.063  0.3497 -0.1025 -0.3249
10060W        W30340  12.375  10.772  10.064  0.2009  0.2625 -0.2628
10061W        W30341  16.694   7.305  12.336  0.0698 -0.1142 -0.0796
10062W        W30342  19.291  18.017   4.144  0.0901 -0.0295  0.1857
10063W        W30343  17.300  19.086   3.539  0.1341  0.1550 -0.3661
10064W        W30344  16.166   6.294   0.431 -0.0787 -0.3825  0.0533
10065W        W30345  12.774   8.259   2.310 -0.2804  0.1887  0.0493
10066W        W30346  13.308  12.087   9.556  0.0806  0.3052  0.2095
10067W        W30347   2.404  18.156   1.438 -0.0418  0.1382 -0.1494
10068W        W30348  18.441   9.620  11.768 -0.4015 -0.1558 -0.1504
10069W        W30349   6.973   8.151   0.628 -0.1426  0.3421  0.0724
10070W        W30350  11.395  18.570  14.016 -0.0163  0.0690 -0.0291
10071W        W30351   2.069  16.415  11.355 -0.4534 -0.0376  0.1494
10072W        W30352   0.520   1.986   2.654 -0.0351 -0.0304  0.1356
10073W        W30353   7.523   5.209   3.669 -0.0751 -0.0325 -0.0875
10074W        W30354   6.726  14.925  12.691  0.1709 -0.1513  0.0691
10075W        W30355   1.341   8.610   2.748 -0.0756  0.1878 -0.0432
10076W        W30356  15.915   3.020  10.463 -0.5806  0.1308 -0.1776
10077W        W30357   9.867   9.898  14.195  0.0828  0.3849 -0.2125
10078W        W30358  17.865  17.137  14.046 -0.1046 -0.2325  0.0974
10079W        W30359   6.589  12.811   9.638  0.0420 -0.2303 -0.0704
10080W        W30360   0.591   8.932  13.526 -0.0377  0.1350 -0.3861
10081W        W30361  17.350   8.319   3.155 -0.0242 -0.2141  0.1081
10082W        W30362   8.877   3.972  13.580  0.0755  0.0803 -0.0740
10083W        W30363   9.003  10.848   2.876 -0.4688  0.0295  0.0920
10084W        W30364   9.237  18.155   2.779  0.3410  0.0358 -0.0510
10085W        W30365   5.565   1.544   1.191  0.2014 -0.4105 -0.0617
10086W        W30366  11.045  10.173   1.745 -0.2195 -0.2508  0.0228
10087W        W30367  16.549   9.234  11.277 -0.1814 -0.1395  0.1027
10088W        W30368  18.167   7.973  13.307 -0.0150  0.0968 -0.2767
10089W        W30369   3.983   8.310  12.336 -0.0026  0.1362  0.1734
10090W        W30370  15.167   1.776  10.704  0.1214 -0.1749  0.0081
10091W        W30371   4.795   4.453   0.855  0.1470  0.3671  0.4531
10092W        W30372   8.605  11.991   0.710 -0.0737 -0.1225  0.0570
10093W        W30373  17.989   8.938   4.391 -0.0888 -0.0932 -0.2364
10094W        W30374   7.722  13.299  11.391  0.2026  0.1060  0.2349
10095W        W30375   8.433  18.038   1.314  0.1323 -0.2646 -0.1975
10096W        W30376   3.095  19.330   1.821 -0.1073 -0.2788  0.4895
10097W        W30377  18.334   6.731  12.550  0.1364 -0.1576 -0.4376
10098W        W30378  11.635   3.076   2.466  0.0797 -0.3850 -0.1296
10099W        W30379   4.545  13.713  10.760 -0.3046 -0.0715  0.2945
10100W        W30380   9.910  12.867  14.177 -0.2772 -0.0751  0.2820
10101W        W30381  10.290   3.242  14.262 -0.1737 -0.5805  0.1160
10102W        W30382  18.239   2.658   9.716  0.1079 -0.1187  0.2202
10103W        W30383  10.857  18.223  13.264 -0.1092  0.2594  0.3253
10104W        W30384   7.854   8.735   9.496 -0.0025  0.0048 -0.2169
10105W        W30385   1.354  16.102   3.854 -0.0393  0.3754 -0.0379
10106W        W30386  16.078   0.097   3.870 -0.3649  0.0006  0.1135
10107W        W30387   3.247  17.149   0.872 -0.0171 -0.0089  0.1731
10108W        W30388   6.131  13.572   1.503  0.2446  0.1343  0.1153
10109W        W30389  12.558  10.038   9.628  0.2990 -0.0281 -0.1361
10110W        W30390  17.785   9.650   0.997  0.0110  0.1885  0.5024
10111W        W30391   7.687  16.560  10.285  0.0431 -0.2360  0.2638
10112W        W30392  15.078   5.131   3.293 -0.0472  0.4666  0.1262
10113W        W30393   4.080  17.858  11.984 -0.1182 -0.0181  0.0610
10114W        W30394  15.555  14.622   4.160 -0.1146 -0.1284  0.0868
10115W        W30395  10.756  13.654   0.722 -0.1010  0.1841 -0.2917
10116W        W30396  14.103   0.011  13.089 -0.0243  0.0751 -0.2354
10117W        W30397  19.103  14.025  12.616 -0.0002 -0.2802 -0.0021
10118W        W30398   9.058  14.772  14.328  0.2337 -0.0757 -0.0754
10119W        W30399   6.005   5.199  14.366  0.3654 -0.0310  0.0010
10120W        W30400  10.759  14.054   1.786  0.1602 -0.2485  0.0592
10121W        W30401  18.118  16.493   3.899  0.2943 -0.0474 -0.2845
10122W        W30402   8.026   0.259   1.127  0.1903 -0.0090  0.0066
10123W        W30403  10.290  13.365   3.914 -0.0625 -0.1078 -0.4522
10124W        W30404  16.385  11.645   2.813  0.1644  0.0763 -0.3468
10125W        W30405  18.444   8.555  12.126  0.2034 -0.1429  0.2773
10126W        W30406  18.820  11.685  12.647  0.1398  0.3835  0.3819
10127W        W30407   8.225  16.230  11.482  0.0053  0.0092 -0.1109
10128W        W30408   0.384   8.486  11.498 -0.2598 -0.0648 -0.0473
10129W        W30409  14.996  14.589  13.955 -0.2275 -0.0073  0.1270
10130W        W30410   0.777   7.335  12.915  0.1004 -0.1728 -0.2016
10131W        W30411  10.701  14.423   4.670  0.2631 -0.1971  0.0674
10132W        W30412  13.449   8.506   2.073  0.3790 -0.1521 -0.1496
10133W        W30413   9.481   2.726   2.682  0.0091 -0.2162  0.0707
10134W        W30414  10.667  10.326   0.376  0.2086 -0.2367  0.2887
10135W        W30415  15.146  12.930   2.073 -0.1496 -0.0321 -0.0585
10136W        W30416   0.002   5.588   1.913  0.2181 -0.2383 -0.0283
10137W        W30417  12.059   7.485   1.009 -0.1633  0.1188  0.1010
10138W        W30418  10.009   4.913  12.822 -0.0209  0.1245  0.1227
10139W        W30419  15.515  14.040  11.562  0.0867  0.1371  0.1222
10140W        W30420  10.490  11.270   3.040  0.0982  0.0982  0.1459
10141W        W30421  16.520   7.920  10.783  0.0519  0.0647 -0.2867
10142W        W30422  17.656  14.486  14.439  0.2264  0.1519  0.2260
10143W        W30423  12.165  16.023  14.295 -0.1481 -0.0256 -0.1284
10144W        W30424  12.085  13.210  10.457  0.0630 -0.2516  0.3772
10145W        W30425   5.901   9.062   0.769  0.0363  0.0656 -0.0258
10146W        W30426  11.930   8.649  13.687 -0.0152  0.2042 -0.0975
10147W        W30427   8.047  11.664  10.422  0.0677  0.0155  0.0483
10148W        W30428  11.217  15.978  11.504 -0.1908 -0.1619 -0.0770
10149W        W30429   2.236   3.424  13.070  0.0925  0.1220 -0.0873
10150W        W30430  13.659  12.005   3.864  0.0762 -0.2110 -0.4268
10151W        W30431  17.894   9.216  13.835 -0.0446  0.0334  0.0032
10152W        W30432  14.407  10.636  11.183  0.0912  0.2009 -0.1525
10153W        W30433  12.459   5.633   0.398  0.0882  0.1829 -0.1047
10154W        W30434  17.191   3.551   1.788 -0.1820 -0.0002  0.0917
10155W        W30435   5.764  11.272  11.678 -0.3905 -0.3677 -0.0203
10156W        W30436   5.475  11.410   2.462 -0.1431  0.2766 -0.0347
10157W        W30437   0.909  15.111   2.495 -0.1337  0.0376  0.1073
10158W        W30438  10.251   3.776   2.102  0.0554 -0.2013 -0.0533
10159W        W30439  11.844  18.017  13.149 -0.4645  0.1933 -0.1018
10160W        W30440   4.025   5.327  11.497 -0.0326 -0.0379  0.0955
10161W        W30441  11.201  11.341  12.067 -0.2713  0.0306 -0.1354
10162W        W30442  12.804  15.828  11.270  0.1725  0.1803 -0.0288
10163W        W30443   9.624  18.742   0.739  0.1958  0.0976 -0.1595
10164W        W30444   4.219  18.691   2.008 -0.0586 -0.1825  0.2647
10165W        W30445  11.493   1.180  13.694 -0.3102  0.0453 -0.1219
10166W        W30446  12.648   8.357   1.766  0.0778  0.4226  0.2166
10167W        W30447   6.213  11.951  12.874  0.0246  0.1172  0.0819
10168W        W30448   3.919  10.350  10.194  0.2704  0.2120  0.1886
10169W        W30449   6.729  18.289  11.002 -0.0754  0.1591 -0.1934
10170W        W30450   8.929  16.408  12.339 -0.0425 -0.1919  0.0004
10171W        W30451  14.952  14.518  12.484 -0.0675  0.0466 -0.0322
10172W        W30452  16.502   0.251  12.935  0.0028  0.0264  0.1361
10173W        W30453   5.528   6.824   4.695  0.1009  0.0282  0.1197
10174W        W30454   4.947  16.490   2.375  0.4501 -0.0751 -0.0264
10175W        W30455  16.211   9.811   1.999  0.0815 -0.1968  0.1962
10176W        W30456   6.670  11.962   3.865  0.2135 -0.1824  0.0008
10177W        W30457   6.195  16.698  12.990 -0.0190  0.0976 -0.0368
10178W        W30458   0.227  12.296   0.657  0.3254  0.0964  0.2184
10179W        W30459  13.556  12.436  12.256 -0.1430 -0.1927  0.4068
10180W        W30460   1.521   8.594   9.723 -0.0768 -0.0155  0.0879
10181W        W30461  13.991  14.192   0.648  0.0911  0.3474  0.0455
10182W        W30462   6.530  11.102   3.105  0.0207  0.2185  0.1355
10183W        W30463   8.885  16.696   0.077  0.2579 -0.2380 -0.0454
10184W        W30464   2.451  14.018   2.759  0.2106 -0.0124 -0.0101
10185W        W30465  10.738  17.634   1.075 -0.0433  0.6470 -0.1773
10186W        W30466  12.468  10.128  12.104  0.1465  0.2393 -0.0399
10187W        W30467  11.559  12.952   0.144  0.2416  0.2834  0.4401
10188W        W30468  16.235   7.954  11.303  0.1732 -0.1110 -0.4261
10189W        W30469  17.736  19.022  11.661  0.1798 -0.1939 -0.0689
10190W        W30470  18.127  18.686  10.516 -0.3283 -0.1690  0.0140
10191W        W30471  17.017  13.085  12.918  0.0459 -0.0951  0.1442
10192W        W30472  16.248   1.294  13.097 -0.0918 -0.0500  0.0431
10193W        W30473  12.084  12.049   1.623 -0.3477  0.2613 -0.2452
10194W        W30474   0.585   1.150  10.934 -0.5130  0.0960 -0.1140
10195W        W30475   4.439  12.578  12.443  0.0086  0.0222  0.2041
10196W        W30476   8.130   5.622   2.325 -0.1472 -0.0796 -0.1923
10197W        W30477   2.242   3.086  14.207  0.1781 -0.0314  0.0668
10198W        W30478  18.587  12.753   3.603 -0.1567 -0.1023  0.3605
10199W        W30479  10.518  12.932   3.358  0.0072 -0.0957 -0.2765
10200W        W30480  17.732  14.846   0.319  0.1003 -0.0444  0.1172
10201W        W30481  19.298  10.454   0.889 -0.0948  0.0583 -0.0226
10202W        W30482   1.119  13.175   1.307 -0.0740 -0.1949  0.2079
10203W        W30483  11.171  15.228   0.367  0.1660  0.2389 -0.0028
10204W        W30484  11.006   0.203   3.676 -0.1350  0.1354  0.1587
10205W        W30485  11.287  16.094  12.913 -0.1667 -0.1199  0.2095
10206W        W30486  12.336   7.841   4.203 -0.1696 -0.0451 -0.2293
10207W        W30487  18.353   5.631   3.672  0.1656 -0.2945  0.0762
10208W        W30488  13.250   1.086   0.875  0.1549 -0.0781 -0.0567
10209W        W30489   9.192   2.131   3.719  0.1152 -0.2423  0.0074
10210W        W30490   2.138  12.569  10.875  0.0556  0.1257 -0.4196
10211W        W30491  16.427   4.138  11.808 -0.1509 -0.2245  0.1100
10212W        W30492  14.512  10.180  10.641  0.0958 -0.3472 -0.1853
10213W        W30493   3.726  18.480   2.153 -0.0249  0.1048 -0.1241
10214W        W30494   2.827   0.872  13.276 -0.2677 -0.2770  0.1097
10215W        W30495  14.646   5.192  11.507 -0.1119  0.2416 -0.0574
10216W        W30496   0.900  16.978   3.265  0.1162 -0.4331 -0.0064
10217W        W30497  15.412   4.844  13.563 -0.1542  0.1443  0.3174
10218W        W30498  16.545  12.293   3.377  0.0815 -0.0590 -0.3038
10219W        W30499  15.960   9.114   3.101  0.1606  0.0509 -0.0353
10220W        W30500   5.735  12.884   0.714  0.0693  0.1660 -0.0347
10221W        W30501  11.037  15.739   0.537  0.0203 -0.1821  0.0076
10222W        W30502  12.098  18.657  10.605  0.1481 -0.0261 -0.3265
10223W        W30503  19.054   9.825  13.022  0.0695  0.3651  0.1540
10224W        W30504   9.387   9.067   1.035  0.0498 -0.0483  0.0303
10225W        W30505   2.436  10.339  11.336 -0.4704 -0.0638 -0.2237
10226W        W30506  15.568   2.737  12.248 -0.1431  0.0298  0.2725
10227W        W30507   1.018   9.197   1.362  0.0170 -0.1329  0.1399
10228W        W30508   0.094   6.685   3.883  0.1807  0.0568 -0.0639
10229W        W30509  15.485  17.998   1.256 -0.0751  0.2689 -0.1342
10230W        W30510  19.103   8.229   0.255  0.2792 -0.0417 -0.2650
10231W        W30511  14.352  19.112   3.500 -0.3556  0.3628 -0.3487
10232W        W30512   1.063  11.696   9.206 -0.3054 -0.0681 -0.0755
10233W        W30513   5.757   2.298   0.954 -0.1453  0.0012 -0.0057
10234W        W30514  19.373   1.146   4.175 -0.0239  0.0420  0.0160
10235W        W30515  17.782  16.265  10.359 -0.0126  0.2148 -0.2144
10236W        W30516   7.826  17.951   2.237  0.1501  0.1061 -0.0532
10237W        W30517   5.763   7.654  12.123  0.0815  0.3818 -0.0287
10238W        W30518  11.728  12.324   1.780  0.0437 -0.0845  0.1229
10239W        W30519   8.876  12.674  14.470  0.1008 -0.1812 -0.2359
10240W        W30520   3.229   7.492   0.441  0.0612  0.0693 -0.1846
10241W        W30521   3.625  14.248  14.464 -0.1156  0.2170 -0.0344
10242W        W30522   7.250  16.093  12.343 -0.0823  0.0685  0.1570
10243W        W30523   9.928  17.144  10.511  0.0728  0.1339  0.2021
10244W        W30524  13.136  17.024   2.518  0.0958  0.1163 -0.0820
10245W        W30525  11.946   4.439   1.408  0.0866  0.1178  0.2519
10246W        W30526   3.407   9.966   2.061 -0.2635 -0.2734  0.1368
10247W        W30527  10.979  13.212  13.757  0.0465 -0.0636  0.1641
10248W        W30528  11.997  10.906   2.499  0.0047  0.0662 -0.1611
10249W        W30529  17.604   6.124  13.999 -0.1715 -0.2979  0.1631
10250W        W30530   1.407  16.680   3.467 -0.2358  0.0994 -0.1063
10251W        W30531  16.501   9.169   3.529  0.3526  0.3915 -0.1473
10252W        W30532   3.859  14.823  11.001 -0.1242  0.0902 -0.1115
10253W        W30533   7.202   2.735   1.394 -0.3014 -0.0753  0.1466
10254W        W30534  12.485   0.886   1.421 -0.2514 -0.2270 -0.0415
10255W        W30535   6.373  11.046   1.319  0.0217 -0.2630 -0.0863
10256W        W30536  12.943   7.375  10.732 -0.2685  0.1265  0.0089
10257W        W30537   1.836  17.944   3.911  0.1637  0.2856  0.3635
10258W        W30538   0.977   1.903   2.333  0.0896  0.3806  0.0469
10259W        W30539  16.914   0.651  13.592 -0.0676 -0.1194 -0.0458
10260W        W30540   8.780  10.678   1.981 -0.0554 -0.1725  0.1412
10261W        W30541   9.262   4.047   3.412 -0.0339 -0.2021 -0.2032
10262W        W30542   4.846  12.827  11.324 -0.2597  0.0796 -0.4131
10263W        W30543   9.327  13.677   1.181  0.0253  0.1026  0.4156
10264W        W30544   1.422  18.855  13.242 -0.1552 -0.1777 -0.0350
10265W        W30545   4.981   7.386  11.524 -0.0240  0.0134  0.0918
10266W        W30546   8.259   6.076  12.627 -0.0790 -0.1371 -0.0104
10267W        W30547   6.485   2.466  11.220 -0.0138  0.0746 -0.1890
10268W        W30548   5.069   8.350  11.422  0.0587 -0.0222  0.0263
10269W        W30549  15.742   2.104  13.491  0.0625 -0.0388  0.0721
10270W        W30550   4.827   6.378  11.269 -0.3120 -0.2046 -0.3213
10271W        W30551  12.905   3.079   2.893 -0.3943  0.0519  0.0122
10272W        W30552   9.467  18.759  11.021 -0.1603  0.1386 -0.0138
10273W        W30553   1.958  15.626   0.974  0.0582  0.0662 -0.1096
10274W        W30554   2.500  16.792   0.797  0.0686 -0.1406  0.0515
10275W        W30555  14.585   0.804  12.933 -0.2080 -0.2653  0.1481
10276W        W30556   6.487  12.436  10.857  0.0256  0.1045 -0.2767
10277W        W30557   9.338   6.560  11.544  0.0446 -0.1199 -0.3188
10278W        W30558   2.881   8.070  13.687 -0.0472 -0.0001 -0.0527
10279W        W30559  14.879  16.569  11.547  0.1395  0.0444  0.0736
10280W        W30560  18.642   3.607   1.752  0.0322 -0.1505  0.2742
10281W        W30561   0.507  15.956  11.559  0.1855 -0.3802  0.0231
10282W        W30562   3.372  12.296  10.796  0.0569  0.0116 -0.0066
10283W        W30563   1.238   5.369  10.551 -0.0970 -0.0635 -0.2092
10284W        W30564  13.931   5.143   2.470 -0.1001  0.0666  0.1054
10285W        W30565  13.324  18.524  10.841  0.0725  0.1248 -0.1799
10286W        W30566  14.394  14.068  13.305 -0.1882 -0.1057  0.1712
10287W        W30567  14.810  11.177  13.120  0.0939  0.0018 -0.3257
10288W        W30568  13.891   6.865  12.931 -0.1690  0.3312  0.2598
10289W        W30569  17.191  10.769   4.682  0.1899 -0.1750 -0.0946
10290W        W30570   9.715   7.238   2.542 -0.1591 -0.2718  0.1290
10291W        W30571  16.458  15.609  11.411 -0.4054  0.4177 -0.0382
10292W        W30572   6.704  11.154   4.199  0.1143 -0.1481  0.1356
10293W        W30573  18.837   1.342  14.186  0.0979  0.2538  0.0519
10294W        W30574  15.592   7.725   2.585 -0.0449 -0.0090  0.0288
10295W        W30575  16.305   8.203  12.627 -0.0627 -0.0317  0.0030
10296W        W30576   3.122  19.117   2.835  0.0121  0.0071  0.1825
10297W        W30577  11.129  15.171   4.930 -0.1145 -0.0399 -0.0811
10298W        W30578   9.369   5.790   0.229  0.0376  0.0559  0.0674
10299W        W30579  10.556   8.005   3.548 -0.1170  0.1739 -0.0005
10300W        W30580  12.777  14.005  13.624 -0.2172  0.1367  0.1470
10301W        W30581  17.735   4.020   2.361  0.1915 -0.0076  0.0423
10302W        W30582   6.959  14.249   0.650 -0.0779  0.0919 -0.1256
10303W        W30583   9.676  16.097  13.552 -0.1949  0.1252  0.0044
10304W        W30584  13.596   8.946  13.466  0.0933  0.1245 -0.0059
10305W        W30585  17.457   3.009   3.902 -0.0473  0.0873  0.2049
10306W        W30586   5.312   6.711  12.908  0.1429  0.2298 -0.1424
10307W        W30587   5.330   9.188  12.897 -0.0828 -0.0247 -0.1061
10308W        W30588   0.170  17.057   2.683 -0.1856 -0.2123  0.0306
10309W        W30589   0.846   5.225  12.688  0.0138 -0.1447  0.2097
10310W        W30590  14.659   2.970   1.323 -0.3754  0.2794 -0.0201
10311W        W30591   1.187  17.875  12.493 -0.1184 -0.1959  0.1590
10312W        W30592   1.725   7.694  10.435 -0.0010  0.2630  0.4509
10313W        W30593   9.418   0.252  12.498  0.1313 -0.1465  0.0060
10314W        W30594  15.287  12.523  12.897 -0.2986 -0.1806  0.3315
10315W        W30595  13.061   2.539   2.082  0.2221  0.0257 -0.1208
10316W        W30596   9.796   1.902  13.567 -0.2130 -0.0564 -0.1144
10317W        W30597   2.364   7.960   3.232 -0.1102 -0.1973 -0.2242
10318W        W30598   1.090  16.545  12.000 -0.0282  0.0056 -0.4033
10319W        W30599  19.379  16.849  10.466 -0.1460 -0.0140 -0.0892
10320W        W30600  13.764   4.739   4.195 -0.2060 -0.1615 -0.0560
10321W        W30601  14.927  11.766   3.887  0.1192 -0.1861  0.2039
10322W        W30602   6.983  10.799   1.955 -0.2636  0.2147  0.1002
10323W        W30603   7.900  14.818   1.442 -0.3691  0.1598 -0.0574
10324W        W30604   9.996  14.465   3.388 -0.1438  0.2475 -0.2932
10325W        W30605   6.674   2.944  13.367  0.2674  0.2264  0.1057
10326W        W30606  12.295  14.720  13.649  0.0097 -0.3148 -0.0107
10327W        W30607   8.092   7.300  13.596  0.0924  0.0280  0.2660
10328W        W30608   7.952   5.620  12.107  0.1342  0.3026  0.1351
10329W        W30609   5.967  14.340   0.330 -0.0973 -0.3266  0.1978
10330W        W30610   4.368  17.912  10.663  0.4386  0.1862  0.1307
10331W        W30611  13.789  17.846  12.973  0.3147 -0.0190  0.1658
10332W        W30612  13.967   4.238  13.280  0.0086  0.2597  0.1448
10333W        W30613   7.709  13.787   0.425  0.1327  0.0204  0.0329
10334W        W30614   8.387  15.931   4.776  0.0721  0.0772 -0.1772
10335W        W30615   8.529  18.141   0.840 -0.0123  0.1214  0.5243
10336W        W30616  11.300   3.423   2.190 -0.3539 -0.1869 -0.1729
10337W        W30617  12.015  14.693   2.020  0.0264  0.1306 -0.1944
10338W        W30618   8.414  15.615   3.008 -0.2181  0.0406  0.1601
10339W        W30619  10.060   1.359  10.900  0.2485 -0.0209 -0.1241
10340W        W30620  13.038  16.305  13.978 -0.0818  0.1362 -0.3656
10341W        W30621   9.317  13.527   2.777  0.0666  0.4632 -0.1313
10342W        W30622  16.479   1.724  12.733 -0.3440  0.0338  0.1949
10343W        W30623   8.349  12.441  14.314  0.0886  0.1699 -0.2438
10344W        W30624  13.830   0.748   0.867  0.3369 -0.2860  0.2617
10345W        W30625   7.863  18.061   4.238  0.1477  0.0285  0.0766
10346W        W30626   4.456  19.275   4.370 -0.0020  0.1063  0.0680
10347W        W30627   5.887  17.943   0.651  0.0254  0.1067  0.2865
10348W        W30628   9.637  13.332  13.656  0.1061  0.1333 -0.0380
10349W        W30629  14.254  12.995  11.854  0.0379  0.0698  0.1610
10350W        W30630   3.106  15.036  12.634  0.0479 -0.0422  0.0281
10351W        W30631   7.264  19.294   1.445 -0.3543  0.1480 -0.0161
10352W        W30632  17.190  15.848   0.570  0.2005  0.1654 -0.0099
10353W        W30633  13.303  18.137  12.846  0.1294  0.2343 -0.1718
10354W        W30634  15.271  13.895  12.429 -0.0674 -0.2726 -0.1003
10355W        W30635   7.090  10.226   1.832 -0.1342 -0.1252  0.0028
10356W        W30636   8.753  13.685   1.745  0.0792 -0.0588  0.1926
10357W        W30637   5.251   4.799   3.187  0.0254  0.2887 -0.1095
10358W        W30638  12.274   1.986  13.036  0.2855 -0.0334  0.0797
10359W        W30639   4.895  18.573  12.573  0.4980  0.5033  0.0994
10360W        W30640   2.743   5.025   3.216  0.2357 -0.1374  0.1835
10361W        W30641   5.246   4.101   1.614  0.2159 -0.1227 -0.0560
10362W        W30642   2.511   5.845  12.425 -0.1003 -0.1615 -0.0231
10363W        W30643  11.815   7.513   1.495  0.1614 -0.1340 -0.0587
10364W        W30644  14.640   1.110  12.509 -0.1297  0.0207 -0.0026
10365W        W30645   8.380   6.403  14.202 -0.0562  0.0793  0.2160
10366W        W30646  18.178   7.460  12.127 -0.0415  0.0537 -0.5748
10367W        W30647  10.910  13.214   3.189 -0.0934 -0.0557  0.2510
10368W        W30648   7.689  13.056   0.652 -0.0491  0.4059 -0.4858
10369W        W30649   0.491   1.293   1.887 -0.0427 -0.0146  0.1905
10370W        W30650  14.368   9.837  13.944  0.3592  0.0885  0.0485
10371W        W30651   1.641   5.548  11.377  0.0172 -0.1607 -0.3308
10372W        W30652  17.817   8.852   2.117 -0.0594  0.1212  0.3481
10373W        W30653   4.213   0.720  13.779  0.0652 -0.1580  0.0154
10374W        W30654  11.617   7.769  13.325 -0.2406  0.0892  0.1637
10375W        W30655   0.247   6.627  14.174  0.1744 -0.0597  0.1167
10376W        W30656   1.328  10.985  12.669  0.1326 -0.0137  0.1513
10377W        W30657  15.964   3.139  13.319  0.0236  0.0542  0.0587
10378W        W30658   7.634  15.729  13.520  0.5059  0.0216 -0.0486
10379W        W30659  12.662  12.908  14.044  0.3214 -0.1282  0.2923
10380W        W30660   2.879  19.155   0.380  0.0828  0.1542  0.1975
10381W        W30661   0.798  18.248  10.308  0.0549  0.0856  0.0943
10382W        W30662   0.274  13.073  11.610 -0.1423 -0.1843  0.2411
10383W        W30663  16.388   0.628  11.089  0.3370 -0.0465  0.1375
10384W        W30664   5.875   5.391  11.272  0.2525  0.3315 -0.0140
10385W        W30665  10.166  11.838   0.491  0.1335  0.0737 -0.0688
10386W        W30666  10.889   3.170   1.925 -0.1225  0.1275 -0.2165
10387W        W30667   4.253  18.631   4.256  0.1380 -0.0784  0.2008
10388W        W30668   1.044  18.339  10.791  0.2071 -0.1276 -0.0450
10389W        W30669   0.396  15.894   5.153  0.1956  0.2456 -0.1728
10390W        W30670  11.462  11.021   2.705 -0.0831  0.0225 -0.2997
10391W        W30671  19.204   6.054  12.713 -0.2046 -0.0240  0.2149
10392W        W30672   9.867  18.741  13.342 -0.1244 -0.0014  0.0863
10393W        W30673   3.205  16.858   4.185 -0.0093  0.1281  0.0704
10394W        W30674   4.028  16.588   0.435  0.1456  0.3667  0.1074
10395W        W30675  16.180   5.146  12.960  0.0727  0.0638  0.0751
10396W        W30676  10.259  17.466  12.963  0.3316  0.0152 -0.0780
10397W        W30677   7.960  17.718  11.029  0.1649  0.3788 -0.1903
10398W        W30678  16.206  18.341  13.022  0.3245  0.1784 -0.2759
10399W        W30679   4.862   4.013   1.966  0.0561 -0.0009 -0.1085
10400W        W30680   7.151   9.695   1.791 -0.2497 -0.0036 -0.2390
10401W        W30681   1.172  13.958  12.169  0.1242  0.1609 -0.0629
10402W        W30682  11.365  17.787  11.069  0.0880 -0.0311 -0.0358
10403W        W30683  14.846  14.942   1.553 -0.0838 -0.0171 -0.0664
10404W        W30684   8.161  12.482  13.318 -0.2909  0.1687  0.0423
10405W        W30685  17.870   3.146  12.012  0.1592  0.0630 -0.1725
10406W        W30686  12.676   3.682  12.075  0.1285 -0.2776 -0.0023
10407W        W30687   6.224   7.108  12.216  0.0713  0.0341  0.1558
10408W        W30688   6.485  15.294  11.117 -0.1995 -0.0671 -0.4659
10409W        W30689  13.171   5.897  13.412 -0.1273  0.0827  0.0576
10410W        W30690  11.272   1.759   1.988 -0.2747 -0.1267  0.2273
10411W        W30691  12.709   2.962   3.334 -0.0908  0.2524  0.0425
10412W        W30692   6.142   3.143  13.388  0.0341 -0.2193  0.2398
10413W        W30693  10.949   0.567  11.240  0.0388 -0.0979  0.0797
10414W        W30694   0.701   3.855   2.520 -0.3325  0.2704  0.2123
10415W        W30695  13.826  19.184   1.654  0.0932  0.2073 -0.0717
10416W        W30696   1.407  10.447   2.945 -0.2896  0.1313  0.5243
10417W        W30697   1.869   9.062   3.223  0.2438 -0.0728 -0.1628
10418W        W30698   1.179  16.940  13.024  0.4154  0.1800 -0.2577
10419W        W30699   0.423   5.986   2.101  0.0945  0.0006  0.0487
10420W        W30700   2.827   7.384   1.237  0.1390 -0.0921 -0.2538
10421W        W30701   3.237   2.015  11.548  0.2945  0.1115  0.0258
10422W        W30702   1.375  17.147  13.531  0.2992 -0.0092  0.1113
10423W        W30703   1.101  18.738  11.937  0.2133  0.0484 -0.3288
10424W        W30704   7.214  12.982  10.674 -0.3183  0.2068 -0.1822
10425W        W30705   5.003   8.076   1.962  0.1447 -0.2940 -0.0968
10426W        W30706  15.719  19.419   1.901  0.0008  0.1299  0.3028
10427W        W30707   0.176   4.153   3.852  0.1753  0.2626 -0.2558
10428W        W30708   7.894  14.381   4.279  0.2457  0.2563  0.2254
10429W        W30709  10.775  18.698   2.568  0.0792 -0.0438  0.2712
10430W        W30710  16.393  18.527   0.093 -0.1404  0.0380 -0.1295
10431W        W30711   6.012   2.920  10.541  0.1155  0.2147  0.1267
10432W        W30712   4.638  15.687   0.288 -0.1018  0.0583  0.0107
10433W        W30713  16.594   2.429   1.780 -0.1058 -0.1058  0.2375
10434W        W30714   4.198  10.519  10.661  0.0441 -0.0218 -0.3718
10435W        W30715  18.962  17.931  11.392  0.0583 -0.0846  0.0994
10436W        W30716  19.396  15.577  13.679  0.2794 -0.2310  0.0351
10437W        W30717   2.835  13.842  10.062  0.0491 -0.0125  0.0768
10438W        W30718   0.702  10.957   1.164 -0.3106 -0.1504 -0.1322
10439W        W30719  11.272  16.361   3.668 -0.0641 -0.2865  0.1710
10440W        W30720   7.159  10.805   2.582 -0.0543 -0.0778 -0.1354
10441W        W30721  15.421  17.802  10.487 -0.1494 -0.0290 -0.1116
10442W        W30722   6.345   5.570   3.326  0.0573 -0.0861 -0.3507
10443W        W30723  17.795  19.412   0.257  0.3527  0.3397  0.0929
10444W        W30724   1.166  10.613  12.942 -0.0493 -0.0418 -0.0542
10445W        W30725  11.369  11.834  13.034  0.2567 -0.2320 -0.4078
10446W        W30726  13.809   6.957  11.115 -0.0858  0.2888  0.0985
10447W        W30727   6.234   2.141   3.739 -0.0842 -0.0879  0.1734
10448W        W30728  11.553  13.501   2.035  0.0428  0.0145  0.0471
10449W        W30729  14.549   4.198  12.669 -0.1310 -0.0012  0.4810
10450W        W30730  12.800  14.090  10.611 -0.0570  0.2128  0.1442
10451W        W30731   8.477   9.651  13.341 -0.0018  0.0134 -0.1955
10452W        W30732  17.554  16.010  13.695  0.4060 -0.0064 -0.0218
10453W        W30733   7.875   1.896   0.484 -0.0782  0.0568 -0.0560
10454W        W30734  10.244  13.754   2.936 -0.1096 -0.0449  0.0492
10455W        W30735  12.111  15.221   3.087  0.2290  0.2228 -0.3316
10456W        W30736  13.463  17.637   1.134 -0.1362 -0.0006 -0.0455
10457W        W30737   6.641   0.425  13.767  0.1309 -0.3600 -0.2522
10458W        W30738   7.249   0.002   3.020 -0.2844 -0.0037  0.0501
10459W        W30739   3.207  18.457  12.755  0.1474  0.2807 -0.0027
10460W        W30740  16.841   0.999   1.240 -0.1506 -0.0550 -0.0123
10461W        W30741  13.343   6.199  12.326 -0.1097  0.1133 -0.1823
10462W        W30742   1.725   6.342   0.180 -0.0626 -0.0031  0.0320
10463W        W30743   2.013  19.172  14.053 -0.2224  0.1193  0.1177
10464W        W30744   4.929   2.615   9.738 -0.1001 -0.1080 -0.0162
10465W        W30745  15.662   3.595  12.002  0.1635 -0.0896  0.0563
10466W        W30746  17.100  10.285   4.561  0.2361  0.3535 -0.2976
10467W        W30747   5.994   7.173  11.211  0.1012 -0.1223 -0.0484
10468W        W30748   1.072  14.333   1.626  0.3617 -0.1026  0.1408
10469W        W30749   5.473  13.991  11.008  0.2450  0.3821  0.2563
10470W        W30750   1.509   6.978  13.211 -0.1332 -0.1103 -0.0010
10471W        W30751  15.586  13.486   0.529  0.0060  0.4321  0.1014
10472W        W30752  10.139   2.870   0.075 -0.0522  0.0920 -0.0106
10473W        W30753  12.385   8.186   3.795  0.0951 -0.1564  0.1607
10474W        W30754  13.634  10.361   3.983  0.1347 -0.0799 -0.3269
10475W        W30755  18.305  16.216   1.570  0.0937 -0.1850  0.0204
10476W        W30756   3.809   7.308   3.629 -0.0876 -0.0868  0.2344
10477W        W30757  16.558  16.490   1.559  0.3373 -0.1616 -0.0880
10478W        W30758  16.966  11.494   3.520 -0.0347 -0.2082  0.1691
10479W        W30759   7.572  19.065  12.333 -0.0830  0.1725  0.1218
10480W        W30760   9.392   0.534   4.159 -0.1658  0.0969  0.0510
10481W        W30761  14.195  10.383   2.933 -0.0236  0.0471 -0.2216
10482W        W30762  15.609  18.863   0.958 -0.1439 -0.1494  0.0036
10483W        W30763   2.616   7.040  10.881  0.0866  0.2553 -0.0550
10484W        W30764  11.873   4.761  12.420 -0.1032  0.0993  0.1232
10485W        W30765  15.719  16.886   0.069 -0.0369 -0.0704 -0.1864
10486W        W30766   4.967   4.950   2.071  0.2342 -0.0228 -0.2230
10487W        W30767   8.087  10.486   2.792 -0.2216 -0.2240  0.0270
10488W        W30768  16.394  13.791  11.543  0.0456 -0.0526  0.0901
10489W        W30769  13.015  13.887  11.364 -0.1340 -0.0546 -0.0277
10490W        W30770   9.442   3.176  10.913  0.0898 -0.0217  0.2684
10491W        W30771  16.448  18.849   0.493 -0.0448  0.0102 -0.2344
10492W        W30772  17.141  11.266  12.715  0.4260 -0.1248 -0.2013
10493W        W30773  15.406   0.687  14.251  0.0500  0.0849 -0.0350
10494W        W30774  13.463  18.095   3.306 -0.2650  0.3101 -0.4202
10495W        W30775  18.443  10.493  13.137  0.1541 -0.0712  0.1619
10496W        W30776  16.658  17.766  14.238 -0.0417 -0.1533  0.1122
10497W        W30777  13.342   2.762  13.395 -0.0145  0.0332 -0.1373
10498W        W30778   1.143  14.974  10.437  0.0745  0.0052 -0.1620
10499W        W30779   9.828  15.791  13.179 -0.1889 -0.1773  0.1676
10500W        W30780  12.303   6.867   1.483  0.0735  0.0686 -0.1643
10501W        W30781   1.249   5.625   3.211 -0.0373 -0.1944 -0.1090
10502W        W30782   9.161   2.201  12.456 -0.3133  0.0395 -0.0491
10503W        W30783   4.489  10.326  11.873 -0.1761 -0.1236 -0.0808
10504W        W30784   3.754   8.999  10.831 -0.1650  0.1826 -0.1982
10505W        W30785   0.018   8.126   3.150 -0.4205  0.0511 -0.1718
10506W        W30786   1.892  10.652  13.654  0.2486 -0.2458  0.2199
10507W        W30787   9.496  16.614   2.575 -0.3784 -0.1728  0.1593
10508W        W30788   6.059  17.729  13.214  0.1320 -0.1559  0.1577
10509W        W30789   7.136   3.416  14.349 -0.0920  0.2661 -0.0041
10510W        W30790   7.102  11.546  11.712 -0.3119  0.4241  0.0050
10511W        W30791  15.922   7.131   0.342 -0.2041  0.1594 -0.0366
10512W        W30792  14.605  18.512  10.261  0.1805 -0.2700  0.0469
10513W        W30793  14.675   4.605  13.887  0.1464  0.1499 -0.3903
10514W        W30794  12.022  10.678  13.693  0.0971  0.2075  0.1045
10515W        W30795  18.034   7.194   0.851 -0.0671 -0.1367  0.1564
10516W        W30796  16.296   0.198  12.105  0.0806 -0.1259 -0.4227
10517W        W30797   2.808  10.252  11.672 -0.6036 -0.0522 -0.1337
10518W        W30798   0.218  18.931   3.890  0.0128  0.1134  0.0286
10519W        W30799  16.520  10.062   2.489  0.3837 -0.1247  0.1134
10520W        W30800  15.110   6.663   3.785 -0.2917 -0.1721  0.1642
10521W        W30801  13.637   1.450  13.952 -0.0823 -0.0175 -0.0982
10522W        W30802  11.569  16.981   0.450 -0.0679  0.0378  0.1707
10523W        W30803  12.485  15.647   1.664  0.1213  0.1834 -0.3247
10524W        W30804   0.702   7.340   9.599  0.2570  0.0184 -0.2454
10525W        W30805  15.222  17.841   1.694  0.0466 -0.2198  0.1311
10526W        W30806   6.272  14.183   1.350 -0.0409  0.2396  0.1587
10527W        W30807  17.658  10.749  10.445 -0.1066 -0.1830 -0.0907
10528W        W30808   1.353   8.891  12.063 -0.0637 -0.4623 -0.1438
10529W        W30809   9.678  17.879  10.663  0.0456 -0.0939 -0.3161
10530W        W30810   8.162  15.708  12.667  0.0331 -0.1842  0.0201
10531W        W30811   8.277   4.800   0.040 -0.0576 -0.2787 -0.1390
10532W        W30812   1.437   5.688   3.689 -0.0587 -0.1606  0.0471
10533W        W30813   8.200  15.309   9.467 -0.1651  0.0080 -0.0552
10534W        W30814  17.365  13.289   1.638 -0.0214  0.0134  0.0489
10535W        W30815  17.702  11.773   3.282  0.5337 -0.2683 -0.0738
10536W        W30816  17.634  12.525  14.405 -0.1433 -0.3410 -0.0234
10537W        W30817   5.564   0.985  11.577 -0.1487  0.0227  0.2672
10538W        W30818   9.164   9.792  11.298 -0.1180  0.0540  0.1332
10539W        W30819   7.840  11.840  13.830  0.0844  0.1648 -0.1323
10540W        W30820  14.186  17.877  11.867 -0.1104 -0.2646 -0.1957
10541W        W30821  13.512   2.400   2.634 -0.0618 -0.1045 -0.1615
10542W        W30822   4.975  17.387   3.550 -0.2848  0.0597 -0.1610
10543W        W30823  10.195  10.958   1.865  0.2024  0.1985 -0.0521
10544W        W30824  16.871  14.491   3.699 -0.2893  0.2913  0.1098
10545W        W30825  15.674  15.906  14.259  0.0037 -0.1340  0.0469
10546W        W30826  15.109  14.929   0.165  0.3096  0.3814  0.1360
10547W        W30827   3.759   1.805  13.521  0.1939  0.2678  0.1054
10548W        W30828   8.720   6.012   1.557 -0.0352  0.0743  0.1772
10549W        W30829  12.603  14.414   0.138 -0.0366 -0.0686  0.1466
10550W        W30830   8.839  14.639  10.617 -0.1195 -0.2861 -0.2526
10551W        W30831   5.466  16.206   3.177 -0.0927 -0.1663 -0.2877
10552W        W30832  15.672   8.052  11.183  0.1735 -0.3727  0.1063
10553W        W30833  13.063  13.464  14.034  0.1069 -0.0791 -0.1120
10554W        W30834   5.436  12.934   1.631 -0.1921  0.6097  0.2050
10555W        W30835   7.998  15.307  12.423 -0.3634 -0.0439 -0.0447
10556W        W30836   0.702   5.242   1.292  0.0954 -0.4755 -0.3285
10557W        W30837   7.545   5.342   1.704  0.1818  0.0218 -0.1002
10558W        W30838  17.204   2.053  11.477  0.0462  0.1508  0.2377
10559W        W30839   9.186  11.458  10.813  0.2278  0.0598  0.1832
10560W        W30840  13.366  14.910  14.226  0.2005  0.0088 -0.2987
10561W        W30841  17.181   3.873   2.218 -0.1513 -0.2222  0.2756
10562W        W30842  17.337   8.349   2.573 -0.0222  0.2102  0.0630
10563W        W30843   4.662  18.894  13.739  0.0595  0.0001 -0.0136
10564W        W30844   1.118  16.156  10.389 -0.0061  0.2310 -0.1585
10565W        W30845   3.332  19.133   3.400 -0.3955 -0.3523  0.0276
10566W        W30846  12.187   7.697   3.042  0.1330  0.1518  0.2915
10567W        W30847  18.875  19.381   0.358 -0.3485  0.0047 -0.0684
10568W        W30848  11.723  14.660  14.268  0.0706 -0.0723  0.1059
10569W        W30849   0.435   0.902  11.694 -0.0496  0.1089  0.1195
10570W        W30850  13.663  14.862  13.798 -0.0866  0.3260  0.1227
10571W        W30851   9.700   3.913  11.194 -0.0181  0.1844  0.1145
10572W        W30852   9.029  17.973  12.616  0.3466  0.0572 -0.2401
10573W        W30853  12.006   5.671   1.280  0.1220 -0.0756 -0.1359
10574W        W30854   8.046  19.027  14.094 -0.1856  0.2983 -0.0438
10575W        W30855   0.766  13.182   2.954  0.1805  0.2594 -0.2563
10576W        W30856  13.126   0.891   1.302  0.0353  0.2140  0.0535
10577W        W30857   6.546   4.849  13.431 -0.0493  0.1909 -0.1649
10578W        W30858   9.192  18.034   1.814  0.0002 -0.2954  0.0527
10579W        W30859   6.879  15.386   1.932  0.0833  0.1460 -0.0274
10580W        W30860   4.629   0.569  13.483 -0.3764 -0.2911  0.0113
10581W        W30861  11.559   7.098   3.977  0.1558  0.1401 -0.2618
10582W        W30862   2.701   0.272  12.704  0.0264 -0.0399 -0.3073
10583W        W30863  17.464   7.850   2.236 -0.1361 -0.0669 -0.0074
10584W        W30864  13.291  18.654  13.055 -0.1769 -0.0078  0.2226
10585W        W30865  18.491  14.549   1.957 -0.3066 -0.0267  0.2881
10586W        W30866   8.759  17.706  12.263  0.2438 -0.0244 -0.1099
10587W        W30867   9.283   9.754   2.849  0.0862  0.2519 -0.1947
10588W        W30868  11.756   1.361  11.962 -0.0570 -0.2895  0.1002
10589W        W30869   0.410  13.601  11.430  0.4017  0.3718  0.2913
10590W        W30870  18.801   3.920  10.783  0.1326 -0.3083 -0.3782
10591W        W30871  15.960  13.618  12.239  0.0154 -0.3864 -0.3557
10592W        W30872   7.224   5.481   0.196 -0.0445 -0.0205  0.1396
10593W        W30873   1.852  12.277   1.345  0.0402  0.2303  0.1596
10594W        W30874  15.178  15.207   1.235  0.0187  0.0593  0.0608
10595W        W30875   9.484   7.414  14.348  0.0443  0.0151  0.2780
10596W        W30876  12.065   2.083   2.448  0.0653 -0.2196  0.3697
10597W        W30877   1.935   8.588   9.267  0.0857  0.3819  0.0669
10598W        W30878   9.034  13.107  14.235  0.0106  0.1465 -0.1848
10599W        W30879   2.919   0.559   2.395 -0.0604  0.0745 -0.1226
10600W        W30880  16.198  19.366  13.287 -0.0184  0.3664  0.0727
10601W        W30881  11.061  10.824   3.646  0.3363  0.0745  0.1996
10602W        W30882   6.576   8.572  13.637  0.1195 -0.0718  0.0736
10603W        W30883   5.496  14.475   3.984 -0.1726 -0.0602 -0.0260
10604W        W30884  10.355   4.471   1.645  0.3136 -0.0903  0.1343
10605W        W30885  18.816  17.363  12.995  0.1043  0.1261  0.3315
10606W        W30886  14.723   4.200   0.765  0.2301  0.1371 -0.0698
10607W        W30887  11.731   0.954   3.361  0.1345  0.0466 -0.1367
10608W        W30888  16.859  13.560   1.602 -0.3676  0.0051 -0.1704
10609W        W30889   6.330   9.284   0.561  0.1436 -0.1910 -0.1481
10610W        W30890  13.943   4.038   2.837  0.2498 -0.5321 -0.3337
10611W        W30891  10.573   1.993   4.182 -0.1364  0.2372  0.1164
10612W        W30892  15.747  19.415   2.495 -0.0433 -0.1935  0.0748
10613W        W30893   3.643  19.110  10.932  0.1334  0.3993  0.1002
10614W        W30894   3.018  10.048   1.712  0.0939 -0.2413  0.0198
10615W        W30895  12.889   3.301  12.919  0.1634  0.3970 -0.3076
10616W        W30896   0.535  14.289   3.559 -0.1189  0.2262  0.1293
10617W        W30897   8.044  10.747   3.579 -0.2335 -0.2129 -0.4022
10618W        W30898   0.521   8.964   3.041  0.0696  0.0608  0.0133
10619W        W30899   9.071   4.102   1.418 -0.1481  0.0198 -0.1930
10620W        W30900   1.224   6.639  12.972  0.1718 -0.0027 -0.1333
10621W        W30901   4.715  13.103   1.726  0.0139  0.1868  0.0535
10622W        W30902   2.740  13.171  13.427  0.2814 -0.0920  0.2603
10623W        W30903  14.283  15.106   4.955  0.0472 -0.1484 -0.0553
10624W        W30904   0.754  11.657   3.647 -0.3361  0.2031 -0.0907
10625W        W30905  15.695   5.399   1.553  0.0639 -0.0342  0.1605
10626W        W30906   4.705   9.564  11.743  0.1234 -0.2454  0.0789
10627W        W30907  10.112   2.989   0.941  0.1883 -0.2805  0.0309
10628W        W30908   4.665   9.710  13.317  0.0244  0.1904 -0.2234
10629W        W30909   6.928   2.463   1.853 -0.0609 -0.2222 -0.1502
10630W        W30910  10.380   5.502  10.936  0.0677 -0.0894  0.2402
10631W        W30911   6.859   7.803  12.535 -0.2212 -0.1565  0.2547
10632W        W30912  17.597  17.637   1.761  0.1625 -0.0835  0.1215
10633W        W30913  17.497   2.642   1.782 -0.0470  0.1677 -0.0472
10634W        W30914  13.231  17.337  13.629  0.5490  0.3149  0.2782
10635W        W30915  11.105   6.796  13.186 -0.1459  0.0299 -0.1570
10636W        W30916  13.877  15.952  10.854  0.1519 -0.0852  0.0111
10637W        W30917  18.166  16.038  13.371  0.3958 -0.1007  0.3512
10638W        W30918  14.277  18.983   2.086  0.1893  0.0979 -0.2678
10639W        W30919   1.891   1.304  13.077 -0.0933  0.3059 -0.0763
10640W        W30920   8.128   3.310   2.963 -0.0805 -0.1379 -0.0141
10641W        W30921   9.786   2.909  12.649 -0.1870  0.3213 -0.1173
10642W        W30922  11.843  13.879  10.572  0.2521 -0.0579 -0.0476
10643W        W30923   4.986  10.813  14.045 -0.0217 -0.0323 -0.0429
10644W        W30924  15.499   3.796  14.230 -0.3587  0.2163 -0.1145
10645W        W30925  15.655  14.078  13.175  0.0545  0.0256  0.3160
10646W        W30926   7.412   8.189  11.243 -0.2045 -0.1365 -0.0266
10647W        W30927  12.782   5.267  11.142 -0.0253 -0.2015 -0.0114
10648W        W30928  13.455  16.549  11.852 -0.0131  0.0920  0.1576
10649W        W30929   5.877  16.143   0.137  0.2607 -0.0128  0.0315
10650W        W30930  12.587  10.341   0.525  0.1270 -0.3855 -0.2185
10651W        W30931   4.049  10.937   3.860 -0.1702 -0.0079  0.2668
10652W        W30932   8.230  16.552   0.278  0.0630 -0.1315 -0.0508
10653W        W30933   4.914   5.652  11.327  0.0348  0.2074 -0.0914
10654W        W30934   5.335   9.388   3.337  0.0132 -0.0905 -0.2855
10655W        W30935   3.429  11.960  13.682 -0.2792 -0.0754  0.3478
10656W        W30936   9.368  12.411   1.824  0.2374 -0.0445  0.0202
10657W        W30937   2.040  18.069   0.139 -0.1927 -0.0159  0.1982
10658W        W30938   8.625   9.038   0.989  0.2950  0.0653  0.1078
10659W        W30939  15.469   7.840  13.249 -0.1032  0.1714 -0.0266
10660W        W30940   4.400  16.421   3.627  0.2280  0.0775  0.0819
10661W        W30941   4.686   6.019  10.956  0.3325 -0.0935 -0.0599
10662W        W30942   2.876   0.363  14.368 -0.1073  0.1350  0.0247
10663W        W30943   9.824   5.316   3.905 -0.5615  0.2384 -0.1740
10664W        W30944   6.225   7.015  11.678  0.0186 -0.1705 -0.1219
10665W        W30945  17.848  16.345   4.283  0.3300 -0.1634  0.2552
10666W        W30946  18.099   3.327   3.017  0.0918  0.0621 -0.0956
10667W        W30947   8.125   6.903  12.839 -0.0793 -0.3276 -0.1093
10668W        W30948   0.127  13.855  13.718 -0.0012  0.1975 -0.0096
10669W        W30949  14.118  12.130  13.680 -0.2084  0.1082 -0.1009
10670W        W30950   2.560  10.391   1.420 -0.1176  0.1537 -0.1054
10671W        W30951  13.234   6.528   3.664 -0.0158 -0.0690  0.1059
10672W        W30952  15.583  16.050   3.278  0.2448  0.0259  0.3756
10673W        W30953   5.883  16.425  10.505 -0.4375  0.0998  0.2196
10674W        W30954  13.979   5.620  12.574  0.1431 -0.0267 -0.1673
10675W        W30955   9.698  16.455   4.731 -0.0420 -0.1615 -0.0245
10676W        W30956  13.216  15.586   1.244 -0.1609  0.2088 -0.1329
10677W        W30957   9.709  18.270   4.260  0.1914 -0.0535 -0.0701
10678W        W30958  16.905   6.673  13.839  0.0931 -0.1701  0.2157
10679W        W30959   7.127   5.493   3.001 -0.3461 -0.1391 -0.1827
10680W        W30960  13.268  17.232  11.828  0.2662  0.1032 -0.2408
10681W        W30961  14.362  18.640  13.819  0.3012 -0.3275  0.0147
10682W        W30962   3.632  11.635   0.469 -0.0577 -0.1754  0.3417
10683W        W30963   2.056  19.033   4.986 -0.0192 -0.1224 -0.0733
10684W        W30964  12.872   8.766   2.100  0.4341  0.3180 -0.1206
10685W        W30965  11.976  16.686   1.891 -0.1162  0.3337 -0.0857
10686W        W30966   7.550   5.733   1.303 -0.0551  0.2345 -0.1071
10687W        W30967   1.112  11.389  14.458 -0.2331 -0.1716 -0.0686
10688W        W30968  14.312  13.393  14.458 -0.1768 -0.3488  0.1248
10689W        W30969  10.076   0.084  14.440 -0.1488  0.3256 -0.3346
10690W        W30970  19.400  15.368  10.711  0.1164 -0.0508 -0.2609
10691W        W30971  15.886  14.332  14.212 -0.1079  0.0574 -0.2825
10692W        W30972   8.310   8.328  12.524 -0.0408  0.3142  0.0633
10693W        W30973  10.816   8.042  12.258  0.1412  0.3033  0.0558
10694W        W30974  10.499  10.350  11.367  0.2288 -0.0203  0.0054
10695W        W30975   2.662  18.482  13.059 -0.1381  0.3707 -0.0593
10696W        W30976  11.188   0.026   3.049  0.2085  0.0556 -0.0015
10697W        W30977   7.139   5.500   3.570  0.0721  0.0827  0.1971
10698W        W30978  10.771  13.962   4.204  0.0443 -0.1103 -0.0752
10699W        W30979   3.385   3.387   0.561  0.0083  0.0041 -0.1941
10700W        W30980  15.561  14.841  12.244 -0.2199 -0.0945  0.2053
10701W        W30981  17.867  18.553   0.471 -0.2337  0.3043 -0.3254
10702W        W30982   9.614   2.024  12.584 -0.1949 -0.0112 -0.0961
10703W        W30983  17.085  10.019   1.547 -0.2815  0.3625  0.1816
10704W        W30984   2.583  17.371   1.722 -0.0571 -0.1104  0.0147
10705W        W30985  12.867   9.590   2.507 -0.0255 -0.3827  0.2866
10706W        W30986  14.720  19.281  13.390  0.0379 -0.3591  0.1386
10707W        W30987   7.126  14.037  13.911 -0.2207  0.0674  0.2624
10708W        W30988  14.980  16.099   0.936  0.4292  0.2083 -0.1708
10709W        W30989  10.499   1.763   2.645 -0.0318 -0.1157 -0.1928
10710W        W30990  14.702   1.887  13.656 -0.0487  0.1619  0.0852
10711W        W30991  10.143  12.553  11.141  0.3111  0.1402 -0.1328
10712W        W30992   9.120   1.197   3.431  0.0455 -0.0266 -0.2191
10713W        W30993   9.181   2.090   1.317 -0.0115 -0.1133 -0.0990
10714W        W30994   8.349  17.889   2.432 -0.0914 -0.3291 -0.0489
10715W        W30995   6.357   0.189   1.640  0.0023 -0.0126 -0.1569
10716W        W30996  14.792  14.266  12.980  0.0496  0.1639 -0.2377
10717W        W30997   6.920   3.079  13.913 -0.2461 -0.0899 -0.1655
10718W        W30998   9.597  11.976   2.504  0.0024 -0.0288  0.1135
10719W        W30999  16.033  11.188  11.088  0.1389 -0.0691 -0.1634
10720W        W31000   8.348  16.769  11.467  0.3403 -0.0787 -0.2939
10721W        W31001   1.446   6.937   1.703  0.2514  0.1434 -0.2585
10722W        W31002   0.401   3.954  12.373 -0.1572 -0.0001 -0.0959
10723W        W31003  19.187   5.142   0.790 -0.0669 -0.2312  0.1255
10724W        W31004  11.974   7.160   2.322 -0.2926  0.2351 -0.2139
10725W        W31005   2.052  14.094   0.808  0.1473 -0.1862  0.3457
10726W        W31006  16.111  15.942  13.522  0.1727  0.1775  0.0432
10727W        W31007  19.039  18.150  12.146  0.2710 -0.0249  0.1358
10728W        W31008  10.933  12.774   1.771 -0.0161 -0.0934 -0.1643
10729W        W31009  18.122  11.252   2.697 -0.1357 -0.1971  0.0120
10730W        W31010   5.585  19.373  11.125 -0.2462  0.3334  0.0148
10731W        W31011  14.780  17.950  12.043  0.0604  0.1802 -0.1463
10732W        W31012  18.499   2.423  10.849  0.0725  0.0613  0.2060
10733W        W31013   2.067  14.980  13.667 -0.3126 -0.1592 -0.1919
10734W        W31014  11.927   1.230  12.816 -0.0398  0.2144 -0.1616
10735W        W31015   2.303   0.622  12.740  0.0877 -0.0908  0.1024
10736W        W31016   9.157  13.054  12.906 -0.0041  0.2845 -0.1655
10737W        W31017  12.171   3.776  12.189  0.2067  0.1009 -0.0519
10738W        W31018   4.578   1.134   1.670  0.2169  0.1452 -0.2221
10739W        W31019  14.100  16.182   0.872 -0.1842 -0.0118  0.0626
10740W        W31020  18.273  18.065   2.264  0.0405  0.0196  0.1291
10741W        W31021   3.881   7.609  10.701 -0.0214 -0.1235 -0.2834
10742W        W31022   9.906   3.502  13.432 -0.0600 -0.0945  0.0224
10743W        W31023  15.490   4.770  12.631  0.0141  0.2142 -0.0221
10744W        W31024  14.428   9.077  11.440  0.0222 -0.2925 -0.0799
10745W        W31025   8.500  18.207  13.045 -0.0456 -0.0052 -0.0511
10746W        W31026   5.930  10.831  13.524 -0.0576  0.1707  0.1880
10747W        W31027  11.361  18.112  13.263 -0.1498 -0.1086 -0.0619
10748W        W31028  17.652   2.366  11.420  0.3179  0.2281 -0.0208
10749W        W31029   6.378  11.997   1.306 -0.0748 -0.2487 -0.1116
10750W        W31030   6.555   3.874   2.342 -0.0910 -0.2396  0.2583
10751W        W31031  12.250   0.708   0.591 -0.5678 -0.1505  0.4974
10752W        W31032   5.260  14.453  12.169  0.1864 -0.4063  0.2484
10753W        W31033   3.509   2.384   2.663  0.0225  0.0099 -0.0904
10754W        W31034  10.046  12.289   1.349 -0.1174  0.4325  0.1715
10755W        W31035  11.789  19.374   3.163  0.2852  0.1965  0.2290
10756W        W31036  18.508   1.875   3.107 -0.4048  0.1233  0.2076
10757W        W31037   3.214   9.173   2.327  0.0049 -0.0338 -0.3186
10758W        W31038  11.654  13.723  14.007  0.1328  0.4112  0.0028
10759W        W31039  12.015   4.571  10.901  0.1760 -0.0774 -0.1656
10760W        W31040  17.649   4.519   3.305  0.0503 -0.0478 -0.0382
10761W        W31041  16.990   3.624  11.593  0.3099  0.2447  0.2266
10762W        W31042  15.314  15.940  13.223 -0.3608 -0.0444  0.1824
10763W        W31043   2.823   1.849   5.062  0.1787  0.2301  0.0085
10764W        W31044   1.544  11.736   9.436  0.1213 -0.0690  0.2433
10765W        W31045  10.935   8.946  11.114  0.0183  0.3762 -0.0098
10766W        W31046  13.154  12.172   4.208  0.1270  0.2571  0.0504
10767W        W31047   2.007  14.485  13.527 -0.5157  0.2458 -0.2557
10768W        W31048   7.914   8.035  10.948 -0.1103  0.0588 -0.0225
10769W        W31049   7.156   9.416  13.930  0.0964 -0.2086  0.0797
10770W        W31050  13.437  17.209   3.680  0.0398  0.0731  0.1797
10771W        W31051  16.370  19.250   0.789 -0.0455  0.0176  0.1586
10772W        W31052  18.425  18.511   0.307 -0.0856  0.0443 -0.1508
10773W        W31053   1.824  17.154   1.098  0.1723 -0.2242  0.1167
10774W        W31054   3.321  10.703  13.327 -0.2153 -0.0714  0.0814
10775W        W31055  12.789  19.270   3.367  0.1733 -0.4722 -0.2426
10776W        W31056  16.907  11.957   2.781 -0.0642 -0.3290  0.2655
10777W        W31057   7.830   7.037  14.460  0.0466 -0.0543  0.1329
10778W        W31058   1.631   1.498   3.428 -0.1879 -0.0452  0.0558
10779W        W31059   8.191   1.795  12.018 -0.1480  0.6782 -0.0620
10780W        W31060  13.730   2.727   3.798  0.3478 -0.0131  0.1731
10781W        W31061  10.455  11.436  13.621 -0.1847  0.4022 -0.3925
10782W        W31062   0.359   3.975   1.973  0.0841  0.2848  0.0665
10783W        W31063  11.894   4.669   4.095  0.0796 -0.1911 -0.0551
10784W        W31064  19.338   7.802   1.878  0.1199 -0.1331  0.0255
10785W        W31065   6.947  12.545  13.293 -0.1079  0.0201  0.0626
10786W        W31066   7.902   2.053   3.696  0.1860  0.1229 -0.0008
10787W        W31067   4.961   8.623   2.830 -0.1489 -0.0249 -0.3319
10788W        W31068  12.957  18.158   4.975  0.2447 -0.1764  0.0107
10789W        W31069  19.015  18.386  13.010  0.0260  0.1685  0.1340
10790W        W31070  16.759   6.089  13.774 -0.0923 -0.0770  0.0235
10791W        W31071   3.029   5.839   0.342  0.3178  0.2815  0.0911
10792W        W31072  18.672   1.151   0.697  0.1671  0.3151  0.0684
10793W        W31073  15.477  16.266   1.002  0.0681 -0.0341 -0.0444
10794W        W31074  11.893  13.554   1.283  0.0847 -0.1468 -0.1438
10795W        W31075   5.633   0.179  14.410 -0.3133 -0.0654 -0.4385
10796W        W31076   1.216   1.925   3.363 -0.1963  0.0434  0.1794
10797W        W31077   7.739   2.995  11.343  0.0407  0.0129 -0.0979
10798W        W31078  13.286  14.542   1.978  0.1489 -0.4254 -0.1598
10799W        W31079   8.284   4.374  10.606 -0.1024  0.1092  0.2726
10800W        W31080   4.000   5.300   4.156  0.2903 -0.1251 -0.2765
10801W        W31081  18.510  19.422   4.393 -0.0984 -0.2455  0.0030
10802W        W31082   0.324   8.209   9.617  0.1799  0.0673  0.0399
10803W        W31083   6.744   7.196  12.978  0.0734 -0.0148 -0.1820
10804W        W31084  13.022  15.888   0.847 -0.0221 -0.0594 -0.0892
10805W        W31085  16.638   0.208  12.432  0.1884 -0.0275 -0.1778
10806W        W31086   8.087  15.655   1.307 -0.1254 -0.1018 -0.0264
10807W        W31087  12.624   7.003  14.011 -0.1006  0.0718  0.0561
10808W        W31088   0.611  12.115  11.660 -0.0139  0.0872 -0.0124
10809W        W31089  11.967  11.802  11.584  0.0329  0.2379  0.2125
10810W        W31090   1.626   2.704   3.101  0.0257 -0.0224  0.0610
10811W        W31091   4.291   7.361   3.845  0.0018  0.2531  0.0382
10812W        W31092  14.542  19.348  12.319 -0.0399  0.3515  0.2167
10813W        W31093   1.858  11.406   9.203  0.1067 -0.1178 -0.1092
10814W        W31094  14.222  11.862  11.475 -0.1428 -0.2295 -0.1980
10815W        W31095  16.118  11.633   1.395 -0.4620  0.1997 -0.0705
10816W        W31096  19.134  11.151  14.158 -0.1171  0.0833 -0.0853
10817W        W31097   7.832  14.715  13.056 -0.1964  0.2544  0.0242
10818W        W31098  17.447   0.758  12.335  0.0457 -0.0189  0.1676
10819W        W31099  14.938   1.492   9.591  0.3329  0.2577 -0.2744
10820W        W31100  11.273  13.894  11.368  0.1341  0.2623  0.2118
10821W        W31101   2.921   0.323  11.931 -0.3715 -0.0925  0.1923
10822W        W31102   4.638   5.311   0.266  0.1145 -0.2904  0.0343
10823W        W31103  10.269  16.115  13.048 -0.1157 -0.0977  0.0370
10824W        W31104  13.257   9.458   3.681  0.3685  0.0643  0.1695
10825W        W31105  14.187   9.972  13.218  0.2196  0.1521 -0.0323
10826W        W31106   2.800   5.771   1.240 -0.1296  0.2509 -0.0912
10827W        W31107  16.802  15.851   9.963 -0.2466  0.0169  0.1365
10828W        W31108   0.322   8.312  14.408 -0.2558 -0.0002  0.1818
10829W        W31109  14.690  14.270   3.697 -0.2771  0.0876 -0.0291
10830W        W31110   8.428  10.117  14.292  0.0635 -0.0531 -0.0259
10831W        W31111  11.717  14.383  13.313  0.0523 -0.2186  0.2582
10832W        W31112  16.013   8.484   2.531 -0.2592 -0.0182  0.1717
10833W        W31113  17.038  13.719  14.274 -0.1125  0.0486  0.1934
10834W        W31114   9.997   7.251   2.971 -0.2358 -0.0674 -0.2212
10835W        W31115   4.164   7.002  12.878  0.1668 -0.0888  0.0778
10836W        W31116   1.812  10.685   3.285  0.2644  0.0686  0.3176
10837W        W31117  11.545   2.351  13.443 -0.0252 -0.4477 -0.1267
10838W        W31118  11.888   2.417  12.993 -0.4592  0.1560  0.3721
10839W        W31119  17.499   9.685  10.859 -0.5593 -0.2733  0.0959
10840W        W31120  18.840   9.377  11.531  0.1747 -0.0789 -0.2728
10841W        W31121  15.831  10.311  13.286 -0.1529 -0.0899 -0.3215
10842W        W31122   0.657  17.505   3.374 -0.0823 -0.3119 -0.0927
10843W        W31123  16.451  12.476   2.928 -0.3813  0.1546 -0.2222
10844W        W31124   1.881  14.317  10.969 -0.1333 -0.4144  0.2406
10845W        W31125   4.234   4.894   0.449 -0.3830  0.3190  0.1333
10846W        W31126   1.796   4.329   3.826 -0.1508  0.0464  0.0098
10847W        W31127  12.406   9.945   1.818 -0.1304 -0.0409 -0.1948
10848W        W31128  11.222  10.398   0.204  0.0345 -0.1289 -0.0381
10849W        W31129  17.138   1.509  13.969 -0.0093  0.1470  0.1702
10850W        W31130   4.827  14.504   2.945 -0.1857 -0.3186 -0.2199
10851W        W31131  10.000   7.450   2.153  0.2169  0.1230 -0.0400
10852W        W31132   2.487  14.231   0.544  0.0814  0.2447 -0.0170
10853W        W31133  17.759   7.340  11.198 -0.0162 -0.0631  0.1777
10854W        W31134   9.587  10.418  11.843  0.1096 -0.1178 -0.1981
10855W        W31135   4.300   1.182   4.059 -0.2772  0.0488  0.1065
10856W        W31136  16.928   5.150  10.548  0.0227  0.0972  0.1855
10857W        W31137   6.716  18.347   2.205 -0.0932  0.1634 -0.3981
10858W        W31138  16.128  12.730  11.359 -0.0965  0.0586 -0.2821
10859W        W31139  12.244  16.947  14.436  0.3149  0.1021  0.0064
10860W        W31140  17.547  19.110  13.526 -0.2344  0.0190  0.2036
10861W        W31141  13.464  12.165   0.518  0.3006  0.0634 -0.0874
10862W        W31142  13.703  15.088  11.621 -0.0896  0.0345  0.1430
10863W        W31143   2.580   8.109   1.440 -0.0690  0.2165 -0.0577
10864W        W31144   1.664  13.232   0.880  0.2650 -0.1030 -0.1180
10865W        W31145   1.826   6.614   2.414 -0.0193 -0.0189  0.0157
10866W        W31146  18.528   4.422   2.211 -0.0437 -0.2652  0.2415
10867W        W31147   3.397   0.092  11.125  0.1947 -0.0763  0.2998
10868W        W31148   6.166   5.284   0.367 -0.2261 -0.2910  0.0981
10869W        W31149   1.345  14.151  12.680 -0.2070 -0.3809 -0.0374
10870W        W31150   3.350   1.357   1.243 -0.0411  0.0574 -0.3529
10871W        W31151  10.164  15.979  13.556  0.0965 -0.0856  0.0047
10872W        W31152  17.546  18.854   2.661  0.0142 -0.0985  0.1312
10873W        W31153   5.432  12.035   3.683  0.0300 -0.0508 -0.2177
10874W        W31154   0.637  15.534   2.539 -0.0246  0.3138  0.0509
10875W        W31155   7.448   9.368  13.367 -0.2294 -0.2842 -0.2161
10876W        W31156   3.054   3.690  10.053 -0.0139  0.2618 -0.0434
10877W        W31157   8.206   1.073   2.415 -0.2303 -0.2094  0.1995
10878W        W31158  18.022   4.070  13.609 -0.3339  0.1120  0.1324
10879W        W31159  17.477   6.889   3.913 -0.1448  0.1842  0.3124
10880W        W31160   1.870   3.576  12.443  0.2093 -0.0596 -0.0320
10881W        W31161   2.072  17.752   0.556 -0.3892 -0.3419 -0.0317
10882W        W31162   0.844   9.570  12.253 -0.0375  0.0797  0.0777
10883W        W31163   9.797   2.429   2.382  0.0106  0.3978 -0.2718
10884W        W31164  18.358  18.504  12.571 -0.1784  0.0425 -0.0439
10885W        W31165  16.570  17.873  11.815 -0.2213 -0.2885 -0.2590
10886W        W31166   5.467  18.393  13.168  0.1302 -0.0264 -0.0259
10887W        W31167  15.905   8.056   3.166  0.1982 -0.0330  0.1553
10888W        W31168  14.095   6.062  10.878  0.2155  0.0205 -0.2115
10889W        W31169  12.357  10.212  11.555  0.0814  0.0283 -0.2127
10890W        W31170  17.198   0.903  14.035  0.3282 -0.0550  0.0520
10891W        W31171   0.432  10.823   0.006  0.2593  0.1535 -0.1594
10892W        W31172  12.103   9.919  13.038  0.0003  0.1590  0.1306
10893W        W31173  11.202   9.353  12.000 -0.0765  0.0978 -0.0981
10894W        W31174  15.814  12.734   2.976 -0.4552 -0.1186  0.0349
10895W        W31175   9.297   2.678   3.696 -0.1208  0.1708 -0.1996
10896W        W31176  12.423  17.556   0.226  0.1397 -0.4069  0.0984
10897W        W31177   1.640  11.504   0.644 -0.0839  0.0841  0.3058
10898W        W31178  17.483  10.696   3.215 -0.1226 -0.0298 -0.1559
10899W        W31179   9.271  15.862   0.559  0.0184 -0.5057  0.1412
10900W        W31180   5.578   8.814  10.657  0.0425  0.2453 -0.1856
10901W        W31181   5.603  18.996   1.908  0.1396 -0.3330  0.0760
10902W        W31182   0.729   1.602  12.053  0.2583  0.1167 -0.0959
10903W        W31183   8.702  13.848  12.743 -0.1841  0.1627  0.0742
10904W        W31184  19.375   0.951  11.938 -0.0524 -0.2415  0.2176
10905W        W31185  11.308   9.318   0.300  0.0119 -0.1994 -0.1088
10906W        W31186  18.382   5.444  11.940 -0.2994 -0.5264  0.1111
10907W        W31187  13.312   6.668  12.155 -0.0375  0.2086 -0.4164
10908W        W31188  10.688   9.272   2.334 -0.4122  0.3782  0.0702
10909W        W31189   4.349   3.486  11.266 -0.2269 -0.1341  0.3348
10910W        W31190   4.866  14.569   2.338  0.2561  0.0435 -0.0290
10911W        W31191   1.521  11.676   0.034 -0.1957 -0.1267  0.2354
10912W        W31192   6.902   3.503  11.741 -0.2226 -0.0500 -0.2178
10913W        W31193  14.668  10.844  14.298 -0.0951  0.1635 -0.2380
10914W        W31194  16.969  15.785  12.331 -0.1514  0.2322  0.4170
10915W        W31195   3.316   7.468  12.752 -0.1168 -0.2524  0.2918
10916W        W31196   9.493  18.542   3.870  0.2361 -0.2515 -0.1772
10917W        W31197  10.105   4.928  12.307  0.1586 -0.0819 -0.0679
10918W        W31198  10.689  16.134   0.761  0.1632  0.0320  0.0356
10919W        W31199  16.375   8.432  10.081 -0.0259 -0.2848 -0.0882
10920W        W31200  16.100  16.525   2.406 -0.1407  0.0620 -0.1346
10921W        W31201  17.781  13.876  12.865  0.2897  0.3391  0.1322
10922W        W31202   3.849   7.773  12.662 -0.1015  0.1573  0.1700
10923W        W31203  13.480  19.254   3.892 -0.0252 -0.0071  0.0367
10924W        W31204  18.633  15.075  13.519 -0.1625  0.0990 -0.0279
10925W        W31205   8.645   0.337   3.403 -0.0148 -0.0806 -0.1314
10926W        W31206  16.479   2.242  13.044  0.3087 -0.2126  0.1204
10927W        W31207   6.489   2.339  13.896 -0.1180 -0.0583 -0.2210
10928W        W31208   4.374  16.029  12.163  0.0803 -0.2779  0.3286
10929W        W31209   4.156  18.471   1.512 -0.2715 -0.2738  0.1357
10930W        W31210  11.727  13.002  14.165 -0.0424 -0.1235 -0.1662
10931W        W31211   5.020  15.077   2.025  0.0659 -0.3212  0.0360
10932W        W31212   3.071   8.232  13.240 -0.0405  0.1172 -0.2801
10933W        W31213   7.280   8.613  11.412 -0.1006  0.1203  0.0097
10934W        W31214   1.321   5.035  13.055 -0.0765 -0.0783  0.0639
10935W        W31215   7.644  13.748  12.842  0.0417 -0.1325  0.0641
10936W        W31216   9.131   3.193   1.281 -0.3651  0.0431  0.0495
10937W        W31217  13.202   2.253  12.527  0.2631 -0.1456  0.1304
10938W        W31218   1.021  10.175  11.335  0.0344 -0.1000  0.0062
10939W        W31219  15.615  16.815   4.157 -0.1271 -0.2689 -0.1664
10940W        W31220  13.224  18.628   0.056  0.0338  0.2615 -0.3890
10941W        W31221   1.037   7.706   0.236  0.2102  0.0681  0.1282
10942W        W31222  16.608   2.831   4.237  0.1601  0.1454 -0.1314
10943W        W31223  12.413  16.000   0.945 -0.0047  0.0686 -0.0916
10944W        W31224  15.879  10.813  13.317  0.3797  0.2618  0.3159
10945W        W31225  11.575   5.078   0.688 -0.0841  0.1557  0.0251
10946W        W31226  14.904  15.015  11.281 -0.1128 -0.1360  0.0217
10947W        W31227   4.667   5.628   4.111  0.0334 -0.1578 -0.0249
10948W        W31228   4.052  14.376  13.941 -0.1438  0.3600  0.2269
10949W        W31229  14.171   0.522   1.985  0.0323 -0.0188  0.0247
10950W        W31230  16.671  14.022  14.434 -0.1813 -0.1865  0.2267
10951W        W31231   4.795   4.216   2.846  0.0867 -0.0819  0.0102
10952W        W31232   5.533   9.648  12.404  0.0018  0.5441  0.3429
10953W        W31233   4.679  17.875  11.896  0.2086  0.0608 -0.2471
10954W        W31234  11.121   0.575   1.473 -0.0220  0.1544  0.1258
10955W        W31235  11.049  17.680  12.573 -0.1679  0.1127 -0.2548
10956W        W31236   4.281   8.512   5.060 -0.0516 -0.3251  0.0410
10957W        W31237   9.326  19.361   2.069  0.0784  0.5321  0.0800
10958W        W31238   5.721   4.658  10.497 -0.0938 -0.0747 -0.1215
10959W        W31239  17.265   8.681  12.185  0.1589 -0.0934 -0.2464
10960W        W31240  19.171  18.359   2.395  0.0500  0.0477 -0.1614
10961W        W31241   6.321   2.755   0.222  0.0725 -0.0136  0.1165
10962W        W31242  14.140   0.734  11.610  0.1192 -0.0587  0.0845
10963W        W31243   1.319   7.970  11.132  0.2798  0.1639 -0.1937
10964W        W31244  16.133   0.409   3.540 -0.0133  0.0909  0.2495
10965W        W31245   9.900  13.870  10.920  0.0850  0.1177 -0.4290
10966W        W31246   9.479  17.367   1.250  0.3311  0.0367  0.1686
10967W        W31247   4.572  18.254   0.221  0.1033  0.1681 -0.0751
10968W        W31248  14.694   2.070   2.635  0.1463 -0.0810  0.0011
10969W        W31249  11.606   8.485   2.508  0.0751  0.0259  0.1463
10970W        W31250  14.636   3.550  13.208  0.1067 -0.0927 -0.0106
10971W        W31251   2.682   9.620  12.198  0.2233  0.2127  0.1582
10972W        W31252   7.243  16.555  10.132  0.0114  0.0291 -0.2563
10973W        W31253   9.879  16.265  12.086 -0.0957 -0.4078  0.0303
10974W        W31254   5.928  16.483   3.267 -0.1039  0.1275  0.3001
10975W        W31255  11.020  10.144  13.453  0.1475  0.1397  0.1838
10976W        W31256   0.155  11.749  14.488  0.0479 -0.0047 -0.1099
10977W        W31257  11.975  18.587  13.946 -0.0655 -0.3086 -0.2698
10978W        W31258  15.513   5.658   0.093 -0.3422 -0.0960  0.2456
10979W        W31259   9.885   5.129   2.330  0.1805 -0.3436  0.0191
10980W        W31260   7.559  18.323   2.478 -0.0156  0.0294  0.1485
10981W        W31261   5.557   1.612  14.168 -0.0370 -0.0395  0.1312
10982W        W31262   8.435   3.010  11.669 -0.0657 -0.0740  0.0985
10983W        W31263  11.679   8.055  14.206 -0.1891 -0.0681  0.0067
10984W        W31264  11.222  14.518  12.880 -0.1844  0.0311 -0.0005
10985W        W31265   5.999  16.776   2.884 -0.2961  0.0711 -0.1670
10986W        W31266   4.333   5.540   3.283 -0.1118 -0.1291  0.2336
10987W        W31267  14.558  16.634  10.714  0.2299 -0.2366  0.0350
10988W        W31268   6.345  13.748  12.999 -0.3966 -0.0248 -0.0924
10989W        W31269   2.208   9.361   0.814 -0.2432  0.0524  0.4313
10990W        W31270  13.940   4.329   1.966 -0.0404 -0.0563  0.1203
10991W        W31271   3.322   0.807  12.765  0.1093  0.1434 -0.0068
10992W        W31272   1.361  19.076   2.143  0.1814 -0.0670 -0.2641
10993W        W31273  12.052  17.477   2.921 -0.1363 -0.2532  0.0613
10994W        W31274   8.001  12.572  12.457 -0.3505 -0.0255  0.3525
10995W        W31275   4.074   3.650   3.708 -0.1056  0.3109 -0.0762
10996W        W31276  16.963  16.626  13.119 -0.1986 -0.3092 -0.2011
10997W        W31277   4.009  14.523   2.684 -0.1458  0.1230  0.1363
10998W        W31278   9.828  16.517  13.726 -0.2826 -0.1969 -0.1440
10999W        W31279  17.007  11.749  13.020  0.1833  0.0096  0.0929
11000W        W31280  10.560  16.036  13.900  0.3695 -0.3338  0.0544
11001W        W31281  11.776   2.630   1.128 -0.3114  0.0344  0.0769
11002W        W31282  18.402  12.203  12.971 -0.1012  0.1198 -0.0036
11003W        W31283  10.783   1.547   1.419 -0.0316  0.4941 -0.2562
11004W        W31284   5.164  10.132   5.222  0.0839  0.1229  0.0544
11005W        W31285   2.650  14.893  11.563  0.1616 -0.2226  0.3865
11006W        W31286  10.601   5.810  10.041 -0.0887  0.0732 -0.2746
11007W        W31287  14.241   7.961  12.728  0.1342  0.0050  0.0602
11008W        W31288   5.783  18.719  13.091  0.1629 -0.0470 -0.0365
11009W        W31289  18.055  11.348   3.340 -0.0031 -0.1937 -0.1434
11010W        W31290   3.380   5.509  12.461 -0.2732  0.3235  0.0555
11011W        W31291  17.297   4.016  11.288  0.2333 -0.0908 -0.0955
11012W        W31292  17.173  16.291  12.581 -0.3025 -0.0963  0.1137
11013W        W31293  16.386   0.929   1.663 -0.0888  0.0374 -0.2229
11014W        W31294  18.780   5.681   1.303  0.0481  0.0000 -0.3194
11015W        W31295  14.085  12.762   3.784 -0.0331  0.0924  0.3389
11016W        W31296   1.858  13.002  13.409  0.0829 -0.3773 -0.3918
11017W        W31297  17.881  10.505   0.649 -0.0727  0.1106 -0.0535
11018W        W31298   4.391   3.002   2.542  0.3418  0.3218  0.0228
11019W        W31299  15.655   0.292  13.900  0.1000  0.5098  0.3472
11020W        W31300  12.847  13.554   2.239 -0.1788  0.0349  0.0675
11021W        W31301   9.456   8.861  11.219 -0.0091 -0.0616  0.0798
11022W        W31302  11.633  17.118   3.084 -0.1945  0.0498  0.2490
11023W        W31303   5.442  11.924  12.264 -0.1229  0.0783 -0.1578
11024W        W31304   5.477   2.720   0.605  0.5506 -0.0715 -0.0109
11025W        W31305   0.679  11.955   0.747  0.1339 -0.1461  0.2488
11026W        W31306   0.513  12.051  12.962  0.0355  0.1942  0.2384
11027W        W31307   1.991  16.915   2.250  0.1214  0.2901 -0.2211
11028W        W31308  12.346  17.811  10.750  0.1748  0.0156  0.1438
11029W        W31309  15.932  14.739   3.822 -0.1625 -0.1578  0.0406
11030W        W31310   3.815  15.016   3.670 -0.0912  0.0884  0.0130
11031W        W31311  10.859   8.821   2.304  0.1671 -0.0028  0.0347
11032W        W31312  17.441   7.401   1.692  0.1603  0.0108  0.2657
11033W        W31313   1.958   8.505  10.879  0.2206  0.1365 -0.1280
11034W        W31314   6.593   3.119   1.832  0.1334 -0.0631  0.1660
11035W        W31315  16.937   2.986   3.822  0.0687  0.0790 -0.0092
11036W        W31316   9.596   2.284   4.627  0.1245  0.0835  0.0890
11037W        W31317  13.492   9.007   3.759 -0.0278  0.2917 -0.0178
11038W        W31318  15.951   5.117   9.792 -0.0539 -0.0269  0.4465
11039W        W31319   0.555   8.694   2.606 -0.2783  0.3527  0.0641
11040W        W31320  16.847  16.352  14.384  0.2236 -0.0564 -0.0758
11041W        W31321  17.227   4.345  12.309 -0.0700  0.2783  0.1187
11042W        W31322  16.864   1.429  12.958  0.0938  0.1493  0.0491
11043W        W31323  18.723  11.533  10.842  0.0597  0.1283  0.1011
11044W        W31324   9.966   3.355  11.929  0.1933 -0.0658 -0.2457
11045W        W31325  16.310  11.606  11.863  0.3133  0.0166  0.1406
11046W        W31326  19.010  12.743  10.337 -0.1727  0.2711  0.0252
11047W        W31327   6.488   6.706   3.995  0.1299  0.1955  0.2942
11048W        W31328  16.309  16.482  14.381  0.0182 -0.1991 -0.1382
11049W        W31329  15.492   9.499  10.503  0.3738 -0.0283 -0.0421
11050W        W31330   5.000   7.042  13.305 -0.1385 -0.1138 -0.1711
11051W        W31331   5.587  19.409  12.545  0.0363 -0.1630 -0.1108
11052W        W31332  10.150   3.367   3.402 -0.1257  0.0984 -0.1631
11053W        W31333  11.719   5.709  12.537  0.1809 -0.1424 -0.3049
11054W        W31334   5.802   6.030  13.531  0.0871  0.1010 -0.2095
11055W        W31335   6.990   3.004  12.027 -0.1183  0.3503 -0.2043
11056W        W31336   2.042   8.473  12.461 -0.2021  0.2139 -0.2017
11057W        W31337   5.579  13.346   2.027  0.0931 -0.0718  0.1397
11058W        W31338   1.170  10.611  12.357 -0.2242  0.0422  0.3213
11059W        W31339  11.135   6.356  10.749 -0.1446  0.2052 -0.1557
11060W        W31340   5.527  11.999   1.864  0.1698 -0.3830  0.0929
11061W        W31341  18.252  10.419   3.292  0.2829 -0.0311 -0.2554
11062W        W31342  14.263   2.938  14.153 -0.2829  0.0451  0.0993
11063W        W31343  14.155  16.350  12.632 -0.1402 -0.1552 -0.0448
11064W        W31344   0.529   2.642   3.461 -0.0200 -0.0131  0.0292
11065W        W31345   7.998   9.770   1.032 -0.2402 -0.1068  0.1071
11066W        W31346   5.811   3.724   2.114  0.0256  0.1032  0.2256
11067W        W31347   4.566  17.073  12.154  0.2795 -0.1027  0.2660
11068W        W31348  14.934   5.975   5.488  0.0045 -0.1638 -0.1922
11069W        W31349  11.947   1.027   1.507  0.0358 -0.2048 -0.1784
11070W        W31350  17.832  17.776  14.254  0.0452  0.1360  0.0377
11071W        W31351  11.942  13.732   0.746  0.0804 -0.1225 -0.2895
11072W        W31352  15.896   8.520  10.368 -0.0932  0.1928  0.1021
11073W        W31353  12.357   5.387  13.448 -0.2325 -0.0620  0.0334
11074W        W31354  15.980   2.568  12.473 -0.1405  0.2380 -0.0952
11075W        W31355  10.365  14.204  11.618 -0.0808 -0.2311 -0.2374
11076W        W31356   6.294  15.546  11.560  0.1050 -0.1285  0.0824
11077W        W31357   2.113   6.635  12.283 -0.2328  0.0060  0.2128
11078W        W31358  16.139  12.088  13.072  0.1599  0.2256 -0.0189
11079W        W31359  19.206  18.149  10.949  0.3296 -0.2973  0.1209
11080W        W31360  18.926   1.562   0.931 -0.0310  0.0336  0.1962
11081W        W31361  19.128   6.605  11.995  0.0536  0.1207  0.2493
11082W        W31362   3.822   2.808   3.390 -0.0559  0.5609  0.3130
11083W        W31363   9.673  16.172   1.110  0.1757  0.1856 -0.0686
11084W        W31364  11.843   8.263  10.148  0.0718  0.0855 -0.1490
11085W        W31365   3.710  12.671  10.961  0.1286  0.0893 -0.0047
11086W        W31366   8.856   0.414   3.900  0.0030 -0.2035  0.1299
11087W        W31367  11.586  16.712  12.054  0.2169 -0.2373  0.1405
11088W        W31368  19.096  16.230   4.060  0.2353 -0.3723  0.1378
11089W        W31369  15.447  17.795  13.412  0.0433  0.2619 -0.3524
11090W        W31370  12.042  15.773   0.485  0.0332  0.0829  0.1786
11091W        W31371   2.868   3.909   2.438  0.1884  0.2783 -0.1897
11092W        W31372   8.927   6.481  13.754 -0.1349  0.1965 -0.3261
11093W        W31373   8.095   7.179   2.046  0.2871 -0.0439  0.0266
11094W        W31374  17.768   6.743  13.274  0.2773 -0.0670 -0.0980
11095W        W31375  11.580   7.399   0.826  0.3370  0.0030  0.3664
11096W        W31376  14.299  18.209   3.634  0.3196  0.0900 -0.1425
11097W        W31377   8.623   1.914   1.321 -0.4491 -0.0013 -0.1400
11098W        W31378  14.149   8.510   0.360  0.0942 -0.1779 -0.1355
11099W        W31379  10.613   1.490  13.992  0.0645 -0.1160  0.0524
11100W        W31380  14.219  12.458   4.501 -0.0073  0.1793 -0.1753
11101W        W31381   9.733   5.358   3.196  0.0479  0.0422  0.0612
11102W        W31382   0.971   3.983  12.547 -0.0204  0.0932  0.3262
11103W        W31383   1.779   4.553   1.783  0.4191 -0.1026  0.0486
11104W        W31384  10.834   2.597   3.171 -0.2175  0.0685 -0.1646
11105W        W31385  18.555  19.413  14.095 -0.3743  0.1739  0.0789
11106W        W31386   4.445  16.539  12.397  0.2958 -0.0876  0.1476
11107W        W31387  16.418   9.463   0.994 -0.2498 -0.1325 -0.1382
11108W        W31388   3.888   1.241  11.409  0.2422 -0.2049 -0.0070
11109W        W31389  10.177  17.224  14.231 -0.0635  0.0252 -0.0210
11110W        W31390  12.113   5.722  11.506  0.1722 -0.4151  0.1355
11111W        W31391   4.475  10.565  14.034 -0.0817  0.0200 -0.2092
11112W        W31392  17.377  17.542   4.761  0.0290 -0.2908 -0.0671
11113W        W31393  19.356   6.179  13.278  0.2119  0.1104  0.2816
11114W        W31394   0.936  12.991  13.241  0.1525 -0.1231 -0.0693
11115W        W31395   5.147  14.743   0.087  0.1667  0.0757 -0.0645
11116W        W31396  14.529   5.216   3.073  0.0790 -0.1185 -0.0176
11117W        W31397   8.346   4.145  12.537 -0.1456  0.0580  0.1229
11118W        W31398   4.123   9.109  12.934 -0.2429 -0.2352  0.2302
11119W        W31399  11.724  10.996  10.895 -0.2118 -0.1459  0.2386
11120W        W31400   4.189   0.982  14.266  0.2442  0.2994 -0.0776
11121W        W31401  15.836  11.821   2.640  0.2639  0.2974  0.1069
11122W        W31402  18.705   6.749  12.947 -0.0050 -0.0412 -0.1407
11123W        W31403   3.709   5.529   2.062  0.0460  0.1228 -0.1447
11124W        W31404  18.957   5.556   0.565 -0.2326 -0.2092 -0.0671
11125W        W31405  12.757  16.417  12.852  0.4033 -0.1536 -0.0978
11126W        W31406  12.638  14.773   2.672 -0.1457 -0.1616  0.0870
11127W        W31407   3.491  16.828   3.231  0.2080 -0.1366 -0.0666
11128W        W31408   9.660   6.197  11.511 -0.0367 -0.2633  0.3656
11129W        W31409  10.352  14.082   0.551 -0.1438 -0.0698 -0.1546
11130W        W31410  13.048  11.382  10.979 -0.3265 -0.0657  0.1181
11131W        W31411   8.382  12.076   3.762  0.0096  0.1260 -0.1167
11132W        W31412   0.536  17.941  10.667 -0.2751 -0.4746 -0.0468
11133W        W31413  15.290  11.674   4.191  0.1738  0.0332 -0.0697
11134W        W31414   0.513   0.352   0.613 -0.1003  0.3235 -0.0092
11135W        W31415  16.298  19.370   2.582  0.5032 -0.3170  0.0953
11136W        W31416   1.389   5.415  13.369 -0.2620 -0.1375  0.3006
11137W        W31417  19.317  11.397  12.434  0.0425  0.0610 -0.0913
11138W        W31418   4.480   4.073  13.100  0.3274  0.1299  0.2311
11139W        W31419  16.698   3.147  10.627  0.0899  0.1859  0.1380
11140W        W31420   1.833   0.755  11.791  0.1920 -0.2667  0.0324
11141W        W31421   4.058   6.976  11.493  0.0361  0.1734 -0.2139
11142W        W31422  10.038  13.767   1.296 -0.1380  0.0239  0.0109
11143W        W31423   1.952  16.638  13.195  0.1021 -0.0704 -0.0243
11144W        W31424   6.139   2.116   1.700 -0.0400 -0.1288 -0.1466
11145W        W31425  12.999  11.941   2.848  0.0395 -0.1178 -0.3643
11146W        W31426  11.750  10.889   0.968 -0.0794 -0.1279 -0.0826
11147W        W31427   1.399   2.174   1.137  0.1658 -0.2457 -0.1550
11148W        W31428  10.338  14.345  13.306  0.2140  0.1060 -0.1562
11149W        W31429   1.736   7.874  13.865  0.2246  0.1403  0.1538
11150W        W31430   0.394  17.728   1.614 -0.0583  0.0814 -0.3565
11151W        W31431  18.785   5.242   2.744 -0.1626 -0.1963  0.2133
11152W        W31432  16.929   0.669   3.283 -0.1255 -0.0973  0.0751
11153W        W31433   1.283   9.308   0.545 -0.0331  0.1303 -0.4033
11154W        W31434  14.374  18.860   2.917  0.0428  0.1601 -0.1159
11155W        W31435  12.225   3.993   1.206  0.2979 -0.1668  0.0628
11156W        W31436   9.192   6.441  13.066  0.1309 -0.0969 -0.0636
11157W        W31437  15.452  12.396  10.591 -0.1333  0.2383 -0.1070
11158W        W31438   4.275  15.280  13.051  0.3084 -0.0547 -0.0279
11159W        W31439   0.470   0.681   3.523  0.2511  0.1884 -0.5175
11160W        W31440   8.117   2.815  13.146  0.1016 -0.0535  0.1191
11161W        W31441  10.878   5.399  12.857  0.4235  0.3908  0.0511
11162W        W31442  14.390   1.066  13.743  0.4939 -0.1479  0.0102
11163W        W31443  14.094  10.432   0.536  0.0948  0.0012  0.1356
11164W        W31444  13.499  14.739  12.861  0.0186 -0.0191  0.2654
11165W        W31445   9.593  14.879  14.208  0.1647  0.1599  0.2209
11166W        W31446  12.287   5.843  12.513 -0.0129 -0.1357  0.3030
11167W        W31447  12.106  13.080   1.243  0.1415  0.1157 -0.0179
11168W        W31448   5.438  16.436   2.201  0.2240 -0.2304  0.0047
11169W        W31449   7.801   6.478  13.879 -0.3361 -0.4036  0.0812
11170W        W31450   1.985  18.678  13.208  0.0682 -0.0755  0.0730
11171W        W31451   7.403  13.708   4.644  0.1180  0.0962 -0.1910
11172W        W31452   1.514   5.092   3.466  0.0209  0.1186 -0.0373
11173W        W31453   0.326  17.336  13.470 -0.2991  0.1305  0.0114
11174W        W31454   4.436   2.279  13.413  0.2938  0.0955  0.2965
11175W        W31455   1.407  14.252   4.182  0.1335 -0.2131  0.2449
11176W        W31456   8.518  13.528  12.397 -0.0944  0.2770 -0.1419
11177W        W31457  12.844   5.382   3.098  0.3317  0.0326 -0.1009
11178W        W31458  10.659   3.417   3.423 -0.0879 -0.0142 -0.0918
11179W        W31459  19.078  17.338   2.780  0.0270 -0.2956  0.0504
11180W        W31460   1.170  15.044   0.851 -0.1432 -0.0810  0.0276
11181W        W31461  15.703  17.671  13.841 -0.2617  0.4643  0.4008
11182W        W31462   6.655   6.406  10.904 -0.0753  0.3617  0.1588
11183W        W31463  13.961  11.623  11.809 -0.2180  0.0271  0.3253
11184W        W31464   4.860   5.873  11.766 -0.1422 -0.1397 -0.2298
11185W        W31465   2.956  13.821  12.130  0.0171 -0.3715 -0.0457
11186W        W31466   7.096  11.967  14.414 -0.3085  0.0847 -0.3127
11187W        W31467  12.400  10.815   2.165 -0.2684 -0.0008  0.1127
11188W        W31468   2.083  12.663  14.064  0.1754  0.2689  0.2267
11189W        W31469   1.458  15.931  10.703  0.2330 -0.1609  0.2928
11190W        W31470   4.115   5.320   2.328  0.1326  0.2324 -0.0540
11191W        W31471  18.815   2.208  12.495  0.0260 -0.2000  0.2245
11192W        W31472   2.369  12.126  10.724 -0.0531  0.3512 -0.0197
11193W        W31473   8.809  16.101  11.605  0.2583 -0.1060  0.1918
11194W        W31474  14.270   5.355   3.536  0.1602 -0.0630 -0.1339
11195W        W31475   9.016  12.886  12.382  0.0069 -0.0132 -0.0361
11196W        W31476   3.265   0.170   3.180 -0.0605  0.4207  0.2766
11197W        W31477  14.893   0.237   4.119  0.0652  0.1672  0.4215
11198W        W31478   5.297  12.750   2.943  0.0210  0.1377  0.0721
11199W        W31479   1.787  14.811   4.110  0.0027 -0.2647 -0.1978
11200W        W31480  18.345   3.928   2.247  0.1930 -0.1067  0.1193
11201W        W31481   8.859  19.059  11.036 -0.1520  0.1470 -0.0160
11202W        W31482  10.915   4.203  14.363  0.2310 -0.4270  0.0720
11203W        W31483  17.348  12.228   2.424  0.0050  0.0282 -0.0093
11204W        W31484   7.369   0.997   2.356 -0.1842 -0.0403  0.0858
11205W        W31485  13.704  14.575   3.558 -0.0609 -0.3407 -0.2389
11206W        W31486  11.829   4.153   3.167  0.3539  0.1603  0.1006
11207W        W31487   9.676   2.429  10.169 -0.1558  0.2704  0.2078
11208W        W31488  11.846  12.901   0.526  0.2218  0.3955  0.1461
11209W        W31489  17.660   1.228   2.545  0.0392  0.1881 -0.3418
11210W        W31490  15.817  11.125   3.787  0.0033 -0.1129 -0.0327
11211W        W31491  13.596   0.137  12.324 -0.2881  0.1872  0.1541
11212W        W31492  15.651   0.414   3.704 -0.4913 -0.1639  0.0890
11213W        W31493   6.394  13.575   0.138  0.0294  0.1048  0.1697
11214W        W31494  15.375   3.014   0.111  0.1591  0.1209  0.2946
11215W        W31495  14.442  14.459  10.857  0.2790  0.3124 -0.0211
11216W        W31496  13.843  11.380   1.526 -0.0646  0.1610  0.1046
11217W        W31497   7.854   4.183  12.479 -0.0217  0.2811 -0.2798
11218W        W31498  10.643  12.539   0.122  0.1009 -0.0345  0.0267
11219W        W31499  15.152   1.779  13.864 -0.1044 -0.0306 -0.1797
11220W        W31500   1.157   1.837   2.809  0.1454  0.1431 -0.2750
11221W        W31501   8.056  18.498  11.234 -0.0300  0.0020  0.0819
11222W        W31502  16.675  13.496  11.153  0.0145  0.1259  0.0635
11223W        W31503  14.286   2.643   3.883  0.0965 -0.0015  0.0858
11224W        W31504   1.985   6.727  13.175 -0.0125  0.0116 -0.1043
11225W        W31505   5.768  18.141  13.913 -0.1295  0.0624  0.0818
11226W        W31506   6.066  18.931  13.751  0.0452 -0.3439  0.1248
11227W        W31507   1.794  16.189  13.451 -0.2377 -0.0574 -0.0215
11228W        W31508   7.457   0.872  14.438 -0.3078 -0.2973 -0.0570
11229W        W31509  13.863  10.069   1.213  0.4845  0.0454 -0.0091
11230W        W31510  11.534   6.357  11.070 -0.0461  0.2367 -0.2325
11231W        W31511   0.644   9.560   4.299 -0.1473  0.0860 -0.0808
11232W        W31512   3.982  12.947  11.630  0.2131 -0.1409 -0.0666
11233W        W31513  11.882  14.778  12.491  0.0514  0.1072  0.0057
11234W        W31514   6.012   8.726  13.732  0.0362 -0.1360  0.0666
11235W        W31515  11.221   8.841  12.901 -0.1119 -0.3775 -0.0370
11236W        W31516  12.059   9.334   2.468  0.0335  0.1865  0.1176
11237W        W31517   4.589   4.654   2.192  0.0426 -0.0991 -0.0375
11238W        W31518  12.501   9.909  14.081 -0.1120 -0.0342  0.1141
11239W        W31519   5.884  15.357   1.693 -0.1000  0.0824  0.1834
11240W        W31520  16.617   2.563   2.775  0.1170 -0.2638  0.2357
11241W        W31521  18.466   1.719  11.712 -0.0943  0.1458 -0.1508
11242W        W31522  14.570  12.103  10.163  0.1299 -0.6011  0.0597
11243W        W31523  16.672  11.193   2.691  0.2937  0.3222  0.1332
11244W        W31524   3.672   7.633  13.077  0.0620 -0.2229  0.0220
11245W        W31525  12.658  10.013   2.227 -0.0137 -0.4651  0.0238
11246W        W31526  14.902   5.043  11.905 -0.0225  0.3257 -0.1458
11247W        W31527  10.937   8.140   1.197 -0.0074  0.2844  0.1362
11248W        W31528  14.918   3.914  13.111  0.0711 -0.1408 -0.0742
11249W        W31529   2.491   5.416   2.252  0.0219  0.1949  0.1918
11250W        W31530  11.125   7.967  13.495 -0.2644  0.0314  0.1331
11251W        W31531  14.071  11.525  13.635 -0.1425 -0.0015  0.1032
11252W        W31532   5.402   3.188   0.194  0.0862  0.0714 -0.1671
11253W        W31533   2.737   7.682  13.372  0.0409 -0.3379 -0.1911
11254W        W31534  16.498  12.198  10.670  0.1115 -0.2283  0.1850
11255W        W31535   3.523   5.882   4.259 -0.0507  0.1874  0.2879
11256W        W31536  13.324   5.413   2.127 -0.1199 -0.0918 -0.3463
11257W        W31537  13.322   3.121   0.608 -0.1702  0.0557 -0.0231
11258W        W31538   3.561  13.978   3.598 -0.3289 -0.1390  0.0050
11259W        W31539   5.812  10.403   0.019  0.1506  0.0041 -0.1713
11260W        W31540   2.605   0.632  13.970 -0.3808  0.0949 -0.0498
11261W        W31541   0.663  10.915   2.732 -0.1149 -0.0070 -0.1786
11262W        W31542   4.370   8.141  10.057 -0.2596 -0.0865  0.0369
11263W        W31543  18.121  18.403  14.361 -0.0913 -0.2669  0.0756
11264W        W31544   6.449  11.371  12.354  0.0268  0.0268 -0.0035
11265W        W31545   1.824   9.477   3.784  0.2173  0.1827  0.0528
11266W        W31546   8.689   1.843   0.094  0.2760  0.0803 -0.1671
11267W        W31547  13.758  13.836  13.774 -0.0826 -0.2568  0.2384
11268W        W31548  14.736  15.344   0.486 -0.2558  0.0224  0.2576
11269W        W31549  16.063  11.487  13.948 -0.0105 -0.2860 -0.2190
11270W        W31550   2.959  18.312   0.174  0.1039  0.1629  0.2170
11271W        W31551   2.888  15.876   0.893  0.0704  0.2913  0.1434
11272W        W31552   5.331   1.964  11.556 -0.0151  0.0778 -0.1411
11273W        W31553  15.624  17.557   1.591  0.2051  0.0180  0.0537
11274W        W31554  13.252   1.464   3.025  0.0530  0.2265 -0.0527
11275W        W31555   0.412   8.348  12.550  0.0094  0.1856 -0.0599
11276W        W31556  11.559  10.989   9.987 -0.1650 -0.2269 -0.0885
11277W        W31557   7.609  15.465   0.289  0.0896 -0.2377  0.0328
11278W        W31558   7.755   1.343   0.060  0.3941 -0.0207 -0.0663
11279W        W31559   6.559   5.886   2.297  0.1187  0.1083  0.0174
11280W        W31560   7.659   6.700  12.890  0.3155  0.1790  0.0467
11281W        W31561   3.930   8.934  11.865 -0.2546 -0.1100  0.2635
11282W        W31562   8.617   0.465  13.146  0.3524 -0.0606  0.1587
11283W        W31563  19.111   8.186   3.494 -0.2652 -0.2980 -0.2933
11284W        W31564   0.899   7.470  10.109 -0.3918  0.0371  0.0372
11285W        W31565  10.609  16.431   2.839  0.3318 -0.1791 -0.2526
11286W        W31566   9.031   5.302  12.904 -0.0607  0.0556 -0.0095
11287W        W31567   8.548   8.436  13.861  0.1496  0.2819  0.1367
11288W        W31568  13.875  19.084  10.209 -0.1330 -0.0845 -0.2687
11289W        W31569   9.209  15.350  11.343  0.1290 -0.0722  0.0839
11290W        W31570   3.326   5.963   1.340  0.0302 -0.0113  0.1669
11291W        W31571  19.190   7.182   0.614  0.0026 -0.0787 -0.2596
11292W        W31572  10.172   3.369   0.234 -0.1524  0.3707  0.0419
11293W        W31573  14.816  14.274  13.491  0.0889 -0.1546  0.1084
11294W        W31574   1.227   4.600   0.138 -0.1475 -0.1848  0.0899
11295W        W31575  12.608  11.833   0.397 -0.4013  0.0865  0.0411
11296W        W31576   1.728  13.092  11.934 -0.0476  0.0295 -0.3455
11297W        W31577   4.939  11.092  10.905  0.0217  0.0756  0.0765
11298W        W31578  11.222   3.056  11.931  0.2074 -0.0525  0.0218
11299W        W31579  10.489   9.777   3.330  0.0075 -0.2781 -0.0272
11300W        W31580   7.129  13.599   2.324  0.0547 -0.2209  0.0235
11301W        W31581  14.998  16.720   1.604  0.1360  0.1911 -0.1712
11302W        W31582  12.889  18.519   4.151 -0.1546  0.0777 -0.1317
11303W        W31583   5.565  11.309   1.488  0.0713  0.0446  0.0169
11304W        W31584   3.154  15.208  10.667 -0.2451 -0.0562  0.0917
11305W        W31585  12.372   1.716   3.306 -0.1319 -0.1084 -0.1521
11306W        W31586   2.549  18.156   4.648  0.0867  0.1115 -0.0403
11307W        W31587   4.191  14.504  10.984 -0.0682  0.1633 -0.1478
11308W        W31588  10.723   2.988  12.512  0.1174 -0.1615  0.0097
11309W        W31589  19.235   5.663   0.165  0.0506  0.1176 -0.4290
11310W        W31590   4.059  12.188   3.334  0.1316  0.0175  0.0341
11311W        W31591  19.174  10.498   9.005  0.2519 -0.0121  0.0588
11312W        W31592  12.360  11.255  14.366 -0.1752  0.1471 -0.1080
11313W        W31593  16.464   6.855   4.984  0.0589 -0.1392  0.2129
11314W        W31594  11.873  15.991   9.644 -0.1356 -0.0896 -0.0310
11315W        W31595  18.749   1.339   0.194 -0.1771 -0.3550 -0.1149
11316W        W31596   4.298   0.273  13.346 -0.0382 -0.1239  0.0142
11317W        W31597  18.148   1.791  10.870  0.0475 -0.1606 -0.1557
11318W        W31598   2.863   4.127  14.091 -0.1925  0.0746 -0.2904
11319W        W31599  11.356  18.878   1.115 -0.0118  0.0377 -0.1614
11320W        W31600  15.786  16.034   3.753 -0.4063 -0.0281 -0.2558
11321W        W31601   0.565  10.123   3.210  0.4952  0.0715 -0.2817
11322W        W31602   3.071   1.480   0.881 -0.3142 -0.0518  0.1098
11323W        W31603  14.682  18.498   0.271  0.1380  0.0197 -0.4431
11324W        W31604  16.780  10.777  10.840  0.1238  0.1594  0.0164
11325W        W31605   6.681   5.968   0.156 -0.3989 -0.3265  0.0895
11326W        W31606  13.096  13.061  13.750 -0.4024  0.1809  0.1768
11327W        W31607  17.242   9.464   0.858 -0.0933 -0.2893  0.0375
11328W        W31608  10.816  13.865  12.293 -0.2015  0.0338  0.3558
11329W        W31609  10.107  11.915  14.483  0.0491  0.1166 -0.0576
11330W        W31610   5.789  13.867   1.834  0.0882  0.0980 -0.0721
11331W        W31611  10.300  18.821   4.644  0.1768  0.0708 -0.0483
11332W        W31612   8.933   3.440  12.876  0.0109 -0.3660  0.6128
11333W        W31613   2.234  18.348  13.537 -0.1797  0.2019  0.0751
11334W        W31614   3.088   8.609   3.607  0.1346  0.1853 -0.2068
11335W        W31615  18.122   1.595   0.179 -0.1162 -0.0606  0.0666
11336W        W31616  11.961   5.967  12.874  0.0177  0.0574 -0.0732
11337W        W31617   0.609  12.246   3.468  0.4020 -0.0373 -0.0175
11338W        W31618  13.746   3.188  14.233 -0.2452  0.0898 -0.0274
11339W        W31619  11.853  13.342  13.765 -0.1345  0.0206  0.1301
11340W        W31620  13.751  11.346  13.107  0.2288 -0.1745 -0.0215
11341W        W31621   5.343   8.678  12.388 -0.2318  0.1577 -0.0097
11342W        W31622   5.368   7.808   2.417 -0.0233 -0.1736  0.0573
11343W        W31623   5.577  16.054   1.092  0.0646 -0.0923  0.2391
11344W        W31624  14.026  10.478   2.456  0.3687 -0.0398  0.2481
11345W        W31625  13.420   7.637   1.309  0.2290 -0.0895  0.2751
11346W        W31626   6.856   2.695  11.044  0.0203 -0.1227 -0.0890
11347W        W31627   1.004  10.597   3.602 -0.1889  0.2149  0.0402
11348W        W31628  15.666   8.998  11.425 -0.0992 -0.4225 -0.1019
11349W        W31629   0.663   6.114  10.824  0.0950  0.2464 -0.2539
11350W        W31630   7.987  14.002   1.403 -0.1337  0.0037 -0.1356
11351W        W31631  17.674  13.753  12.273 -0.3576  0.2488 -0.1212
11352W        W31632  18.453  11.207   3.034 -0.0833  0.0240 -0.0167
11353W        W31633  14.305   8.512  12.712 -0.0004  0.0546 -0.0099
11354W        W31634  16.182   4.258   3.462 -0.4183  0.0008  0.4931
11355W        W31635   1.056   6.552   3.649 -0.2285  0.4159  0.0939
11356W        W31636  16.058   9.424   3.551  0.0155  0.2098 -0.1608
11357W        W31637   8.589  14.661   2.222  0.0637  0.0887 -0.1336
11358W        W31638   4.061  13.305  13.808  0.1131  0.0425  0.2731
11359W        W31639   5.006  15.610  10.914  0.1171  0.2017  0.2757
11360W        W31640   0.973  15.681   1.706 -0.0410  0.4564 -0.0251
11361W        W31641   4.438   9.759  12.171 -0.3924  0.0024  0.1658
11362W        W31642   6.441   7.340  11.383 -0.2098 -0.0790  0.2930
11363W        W31643  13.429   8.164  12.991 -0.4032  0.0870 -0.0310
11364W        W31644   5.270  12.971   0.580 -0.1955 -0.1702 -0.1140
11365W        W31645  12.098  14.154   2.092 -0.0275  0.0359  0.1461
11366W        W31646   3.442   2.983  12.913  0.1469  0.2376 -0.1821
11367W        W31647  11.589   9.868  14.156 -0.1130 -0.0374  0.0505
11368W        W31648   9.047  17.649  14.434 -0.0309  0.0776  0.2371
11369W        W31649  11.777   0.411  11.796 -0.2210 -0.0196 -0.2051
11370W        W31650   1.119  12.378  11.580  0.1193 -0.1342 -0.0261
11371W        W31651   4.440   4.407  11.583  0.0673 -0.0170 -0.0723
11372W        W31652  11.121   5.486  13.292 -0.5617 -0.1455  0.2375
11373W        W31653  13.492   6.605   0.689  0.1517  0.3369  0.0295
11374W        W31654   3.158   0.098   0.197 -0.1667 -0.3420  0.0616
11375W        W31655   4.957   3.218   2.458  0.1554  0.2388  0.3756
11376W        W31656  16.097   1.444   1.010  0.2281 -0.2292 -0.0696
11377W        W31657  12.729  12.849  13.454 -0.2891  0.4109  0.2616
11378W        W31658   5.465  10.612  12.787  0.0869 -0.0202  0.2236
11379W        W31659   8.810  18.497  12.783 -0.0265 -0.2656  0.1239
11380W        W31660  17.146   8.653  14.103  0.3310 -0.2135 -0.1634
11381W        W31661  12.703  17.514  10.951 -0.2104  0.0458 -0.0356
11382W        W31662  10.735  14.935   0.275  0.2700 -0.0531  0.1836
11383W        W31663  13.316   6.998   2.159  0.0406  0.0096  0.3243
11384W        W31664   5.154  15.724   1.137  0.1560 -0.2579  0.0243
11385W        W31665  16.372  17.747   1.978 -0.0136  0.1851 -0.0119
11386W        W31666   4.839   0.921   3.513 -0.3492 -0.1616 -0.0290
11387W        W31667   3.064   9.766   1.255  0.1405 -0.0043 -0.1918
11388W        W31668   1.395   6.522   0.458 -0.0613  0.0903  0.0114
11389W        W31669  10.740   9.361  12.247 -0.2493  0.1714  0.0454
11390W        W31670   6.082   0.184   5.188  0.2717  0.1382  0.1233
11391W        W31671   3.855   9.092   3.727  0.1901  0.3332  0.2539
11392W        W31672  14.626  18.891  12.109 -0.0838  0.1031 -0.0987
11393W        W31673  14.762   4.582   0.359 -0.1923  0.1512 -0.0319
11394W        W31674  19.382  13.507   0.085  0.1665  0.2174  0.0836
11395W        W31675   3.117  14.501  13.162 -0.0530  0.1008 -0.2143
11396W        W31676  15.930   2.156  11.065 -0.2157 -0.1759  0.1186
11397W        W31677  15.783   7.955   1.316 -0.2437  0.1091 -0.1657
11398W        W31678  16.332  17.586  11.368 -0.0980  0.1085  0.1201
11399W        W31679   5.391  12.226   2.705  0.0973 -0.2713 -0.0343
11400W        W31680   1.985   4.709  13.949 -0.0205 -0.2312 -0.1345
11401W        W31681   6.285   9.929  11.181  0.3353 -0.0190  0.1997
11402W        W31682  11.813   8.700   1.308  0.0145  0.0228 -0.0898
11403W        W31683  13.976   1.538   1.229 -0.0568  0.0911  0.0614
11404W        W31684   7.055   1.501   3.847  0.0914 -0.0696 -0.2838
11405W        W31685   6.735   5.302   0.350 -0.0859  0.1841 -0.0803
11406W        W31686  17.879  14.111   3.383  0.0482 -0.0709 -0.0636
11407W        W31687  14.929   7.438  12.191  0.0444 -0.0876 -0.0428
11408W        W31688   6.797  15.666  11.373  0.0827  0.0888 -0.1426
11409W        W31689  18.165  11.780   2.996 -0.2110 -0.0500  0.2155
11410W        W31690  11.387   3.958   2.002  0.2521 -0.0231 -0.2954
11411W        W31691   8.526   7.901  10.895 -0.2755  0.2654  0.3160
11412W        W31692  11.616   4.926   4.392  0.2032  0.2045  0.0134
11413W        W31693  10.569  16.717   1.432 -0.1352  0.1430 -0.1864
11414W        W31694  15.077   4.412   2.598  0.1947 -0.0136  0.0398
11415W        W31695  18.753   1.523   3.366 -0.1303 -0.0756 -0.0390
11416W        W31696  11.219   4.525   3.564 -0.2906  0.1233  0.2752
11417W        W31697   2.329   5.404   4.501  0.0030 -0.0170 -0.2592
11418W        W31698   5.236  16.001   2.415  0.0291  0.0296  0.0284
11419W        W31699  13.049   8.188  11.765  0.1262  0.1771  0.0376
11420W        W31700  19.001   1.297  10.661  0.3245 -0.4418  0.1090
11421W        W31701   7.612   0.930   2.945  0.3906  0.2296  0.2037
11422W        W31702   6.741  13.864   1.541  0.0265  0.1456  0.1624
11423W        W31703   6.860   8.204   2.139 -0.1111  0.4744 -0.0966
11424W        W31704   8.983   7.171   3.174  0.3381 -0.0232  0.0247
11425W        W31705  13.586   9.000   2.426  0.0765  0.1484  0.0828
11426W        W31706  15.223   1.111  12.215  0.1187 -0.0035 -0.0941
11427W        W31707   4.016  13.482  10.857 -0.0538  0.0010 -0.1894
11428W        W31708  18.060   1.641  12.471 -0.0745  0.1567  0.0403
11429W        W31709  14.083   6.155   2.821  0.0820  0.0274 -0.2103
11430W        W31710   6.231  14.476  10.848 -0.4762 -0.0074 -0.2672
11431W        W31711  12.778   2.681  14.155 -0.0914 -0.1836 -0.1477
11432W        W31712  18.779   4.866   0.023 -0.0929  0.0990 -0.1800
11433W        W31713  14.748   8.348   2.351 -0.1470 -0.2732 -0.0255
11434W        W31714   8.723  11.922  13.284  0.0228 -0.1086  0.2338
11435W        W31715  11.940  12.055   3.115  0.1857  0.3605 -0.0879
11436W        W31716  17.949  16.953  12.614 -0.2608 -0.1201  0.0012
11437W        W31717  10.638  18.020   3.829  0.2510 -0.2461  0.0117
11438W        W31718  13.102   4.017  11.873 -0.1163  0.1603 -0.0602
11439W        W31719  11.242   4.397  11.369  0.1530  0.0775 -0.0450
11440W        W31720   4.509  12.060  12.643  0.0775 -0.1966  0.5456
11441W        W31721  11.202   7.793   4.156  0.0006  0.0495  0.0057
11442W        W31722   7.363  10.199   0.547 -0.1923  0.3158 -0.1858
11443W        W31723  14.171   4.451   4.100 -0.1812 -0.1140 -0.0032
11444W        W31724  13.913   2.131   2.028  0.0100 -0.0755 -0.3092
11445W        W31725  14.766   4.377   3.366 -0.0243  0.0628  0.3485
11446W        W31726   3.261   6.779   2.142  0.0747 -0.0061 -0.0247
11447W        W31727   5.714   2.298   2.387 -0.0702  0.0035 -0.2428
11448W        W31728  12.643  12.277   2.021 -0.1147 -0.2609 -0.0682
11449W        W31729   1.380  13.903   2.663 -0.6067 -0.2392 -0.0073
11450W        W31730   4.705  14.727   9.663  0.0449  0.1335  0.1149
11451W        W31731  14.212  17.524   1.861 -0.2343  0.4446 -0.3412
11452W        W31732   9.826  11.997   1.022 -0.1181  0.2597  0.2947
11453W        W31733   5.257   8.459  11.864 -0.0366  0.2485  0.1071
11454W        W31734  19.006  15.779   4.619 -0.0813  0.2869  0.4485
11455W        W31735  14.789   0.930   3.659 -0.1622 -0.2237  0.1931
11456W        W31736   9.756   7.033  12.981 -0.0320 -0.1039  0.0493
11457W        W31737  10.803  16.135  11.763 -0.1659  0.3609  0.1481
11458W        W31738  11.603   9.610   1.648  0.0741  0.1814 -0.0967
11459W        W31739  15.371  17.982   5.282  0.1852 -0.0212 -0.0266
11460W        W31740   7.563   6.095   0.335 -0.0116  0.1677  0.2871
11461W        W31741   4.461  13.034   2.763 -0.0904  0.0209  0.2532
11462W        W31742  12.927  11.767  12.151  0.0562  0.0101  0.2617
11463W        W31743   4.324   2.663  10.710 -0.0706 -0.0887  0.0941
11464W        W31744   6.621   9.768  11.724 -0.4598  0.1816  0.0244
11465W        W31745   8.903   4.751   4.126 -0.0774 -0.3114 -0.3353
11466W        W31746  16.886  15.444   0.708 -0.2228  0.0133  0.3564
11467W        W31747  19.052   1.111   3.280  0.1643 -0.1747  0.2611
11468W        W31748  14.560   6.677  11.875 -0.2067 -0.1064  0.1136
11469W        W31749   7.026   6.333   0.845 -0.0301  0.0850 -0.0589
11470W        W31750   4.506  19.214   2.999 -0.0117  0.1161 -0.0005
11471W        W31751  18.759  11.785   2.227  0.2267  0.0437  0.0273
11472W        W31752   6.686  11.389  13.984  0.0074  0.0641  0.0663
11473W        W31753  10.935   4.132   2.759  0.0836  0.0416 -0.0954
11474W        W31754  17.343  12.924  10.468  0.0360  0.0802 -0.3250
11475W        W31755   4.075  16.164  14.179 -0.0659  0.2729  0.2250
11476W        W31756  12.617  18.556   3.289  0.1282 -0.2356 -0.1123
11477W        W31757   7.544  12.766  10.269 -0.1606 -0.2175  0.2775
11478W        W31758  16.208  12.596   2.548 -0.0242  0.1276  0.0317
11479W        W31759  12.990  14.852   0.700 -0.0905  0.1182 -0.1227
11480W        W31760  14.243  17.102   1.068 -0.1380  0.0575  0.4008
11481W        W31761   5.700   7.116   2.012  0.1030  0.2426 -0.0426
11482W        W31762  11.743   8.034  13.718 -0.0415  0.0528 -0.1302
11483W        W31763   1.786   8.567   1.666  0.1032  0.0756 -0.0813
11484W        W31764  10.281   5.362   2.482  0.2245 -0.3244  0.0612
11485W        W31765  15.861   0.752   9.404 -0.2762 -0.2475  0.0892
11486W        W31766   0.699  18.919  13.005  0.1341  0.2416  0.1584
11487W        W31767  18.128  15.732   2.550 -0.0460  0.2638  0.0653
11488W        W31768  13.442   6.906   3.944  0.3269 -0.0051  0.1720
11489W        W31769  16.876   5.337   2.703 -0.2311 -0.0067 -0.5258
11490W        W31770   9.520  11.958  12.581 -0.2495 -0.3191 -0.2515
11491W        W31771  10.886   7.991   0.719  0.2798  0.2670  0.4313
11492W        W31772  19.072  13.558   2.522 -0.0550  0.0935  0.1413
11493W        W31773   8.126   9.986  13.496  0.0236  0.1199 -0.0772
11494W        W31774  14.524   0.314   0.075 -0.0833  0.0685 -0.0275
11495W        W31775  10.648   7.742  13.435  0.0734 -0.0385 -0.0540
11496W        W31776  16.002   5.767   3.996 -0.0832  0.4349  0.1631
11497W        W31777  14.798  13.881  10.711 -0.0605 -0.1582 -0.1552
11498W        W31778  11.877  11.221  12.540  0.0172  0.2185  0.2515
11499W        W31779   9.560  14.128  12.404 -0.0662  0.3032 -0.0069
11500W        W31780  12.680   9.491  11.485  0.1464 -0.1053  0.0786
11501W        W31781   8.890   6.308  14.251  0.1902  0.2390 -0.1990
11502W        W31782   6.813  15.167   9.143  0.1716  0.2128 -0.0186
11503W        W31783   0.858  15.645   0.684 -0.0430 -0.1449  0.0145
11504W        W31784  14.567  10.287  14.068 -0.4360  0.2772 -0.3690
11505W        W31785  14.773  11.322  14.152 -0.1455  0.2146 -0.0853
11506W        W31786  13.200   1.626   3.652  0.0821  0.0561 -0.2322
11507W        W31787   9.191  11.163  12.905  0.1319 -0.1389  0.4242
11508W        W31788   4.294  18.015   3.413 -0.2328  0.0768 -0.0687
11509W        W31789   6.421  14.289  11.305 -0.1798 -0.1620  0.2557
11510W        W31790  16.386  17.910   4.270 -0.1866  0.2730  0.0721
11511W        W31791   1.958  11.398  14.495  0.2961  0.0851 -0.1566
11512W        W31792  12.492   8.568  12.616 -0.0326  0.1189  0.2182
11513W        W31793   5.806   7.481  11.610 -0.0994  0.0105 -0.0248
11514W        W31794   9.896  11.316   4.853  0.0982  0.3429  0.0856
11515W        W31795  19.335   0.037   1.726  0.2008  0.0639 -0.2765
11516W        W31796   0.863   3.156   0.367 -0.4380 -0.0017  0.1833
11517W        W31797  14.228   7.452  12.816 -0.0089 -0.2099 -0.3589
11518W        W31798  15.370   2.250  13.878 -0.1548 -0.0502 -0.1972
11519W        W31799   3.191  14.347   3.359 -0.0210  0.2858 -0.1199
11520W        W31800  17.932   5.473   1.226  0.0554 -0.1738 -0.0301
11521W        W31801   4.143  17.603   1.382  0.1787  0.0055 -0.0267
11522W        W31802  11.754  18.002   3.745  0.1250 -0.2550  0.0997
11523W        W31803   4.983  19.080  12.642  0.0624 -0.1364 -0.0058
11524W        W31804  13.391  14.010  11.692  0.0112  0.0522  0.5179
11525W        W31805  16.229   2.722   2.444  0.2800  0.0930  0.0436
11526W        W31806   2.705  13.014   2.748  0.4337  0.1557 -0.2171
11527W        W31807  18.553   5.469  12.398 -0.0838  0.1786  0.3758
11528W        W31808   7.631  16.554   1.218 -0.1408  0.1164 -0.0220
11529W        W31809  12.138   1.363   0.032  0.2270  0.3324  0.2203
11530W        W31810  18.560  14.174  11.946  0.0315  0.1626 -0.2353
11531W        W31811   5.202  10.572   3.561  0.2266 -0.0691  0.0677
11532W        W31812   7.030   4.809   3.213  0.1683 -0.0137  0.1277
11533W        W31813   1.748  15.558  10.362 -0.0488  0.1897 -0.2452
11534W        W31814  15.458   4.225  12.787 -0.2053 -0.0852 -0.0288
11535W        W31815  15.314   0.245   2.732  0.1948  0.1289 -0.1847
11536W        W31816  16.302   7.647  12.190 -0.3563  0.0367  0.2450
11537W        W31817   3.077   0.068   2.556 -0.1250 -0.2943  0.0194
11538W        W31818  16.261  16.692  13.064  0.0120  0.1274  0.1754
11539W        W31819  10.246  12.683   1.099 -0.2092 -0.3024 -0.2034
11540W        W31820   5.824  10.755  10.998  0.0818 -0.2916  0.4194
11541W        W31821  16.828   8.614  10.216 -0.0273 -0.0708  0.2200
11542W        W31822  18.944   2.788   2.041 -0.1422 -0.0139 -0.1173
11543W        W31823   8.942  14.049   1.036  0.3776  0.3782 -0.0506
11544W        W31824  14.775  16.276  12.005  0.0034 -0.0232  0.1091
11545W        W31825   2.057  16.790   1.394  0.0634  0.0346 -0.0775
11546W        W31826  18.168   6.055  11.060 -0.0660 -0.0202  0.4522
11547W        W31827   4.987  11.112   3.489 -0.0732  0.2180  0.0135
11548W        W31828  19.301   5.583  13.020  0.1689  0.1317 -0.1892
11549W        W31829   2.328   7.281  11.434  0.0294 -0.1359  0.3208
11550W        W31830  13.496  11.039  12.819 -0.0391 -0.2675 -0.0503
11551W        W31831  18.306   7.741  10.769  0.1323  0.0402 -0.0052
11552W        W31832   2.783   6.636   3.551  0.1264  0.1110 -0.2230
11553W        W31833   8.519   8.785  11.024  0.0395  0.0197 -0.0359
11554W        W31834  17.024  19.112  11.171  0.1965  0.0008 -0.0502
11555W        W31835  14.751  14.510  11.744 -0.0763  0.2207 -0.0787
11556W        W31836  12.386  10.639   3.499  0.1175  0.1917  0.3610
11557W        W31837   5.504  16.045   4.129  0.1555 -0.4578  0.2496
11558W        W31838  17.093   5.320  12.642  0.1624 -0.2602  0.0318
11559W        W31839   2.013  19.285  10.582 -0.1779  0.0074  0.0297
11560W        W31840  15.052   5.260  11.211 -0.0578 -0.1252 -0.3136
11561W        W31841  16.491  15.731  11.911 -0.1568  0.0254 -0.2103
11562W        W31842   2.961   6.100  13.210 -0.0989  0.1811  0.2407
11563W        W31843  16.078   6.956  13.780  0.1645 -0.1277 -0.0753
11564W        W31844  11.524  12.949   3.712  0.0060  0.2211  0.1315
11565W        W31845   8.712   8.148   0.497 -0.1200  0.1267 -0.2674
11566W        W31846   2.753   1.743  11.125  0.0186 -0.2210 -0.1867
11567W        W31847   8.433   7.090   1.541 -0.1093  0.0009 -0.4712
11568W        W31848   2.447  19.019   1.208  0.0654  0.2140  0.1206
11569W        W31849  17.107   1.139  12.659 -0.3165  0.0840 -0.0946
11570W        W31850  18.959  18.371   2.847  0.1963 -0.1084  0.1552
11571W        W31851   1.813   5.098   2.923 -0.1226  0.0872 -0.0483
11572W        W31852   2.595   5.443   4.072 -0.0862 -0.1481 -0.0883
11573W        W31853   7.401  17.221   4.026  0.1913  0.2128 -0.1840
11574W        W31854  18.530   9.617   0.640 -0.3889  0.3237  0.1494
11575W        W31855   1.011   6.948  11.016  0.0031 -0.1577  0.0975
11576W        W31856   0.538  10.318  11.349 -0.4233  0.0628  0.0742
11577W        W31857  17.701  15.807   0.801 -0.0145  0.1339  0.1411
11578W        W31858   3.852   9.997   1.789 -0.0456  0.0928 -0.4344
11579W        W31859  11.128   7.586   1.404  0.0564 -0.0861  0.2324
11580W        W31860   1.670  17.517  13.457  0.2877  0.0332 -0.0776
11581W        W31861  10.520   2.294  13.679  0.1094 -0.0281 -0.1544
11582W        W31862   8.327   2.202   1.953  0.0931  0.0933 -0.1376
11583W        W31863  17.198  12.213  12.117 -0.0729 -0.0093  0.0176
11584W        W31864   7.241   3.883  14.333  0.3613 -0.0220 -0.1194
11585W        W31865  12.345   9.404   3.214 -0.0976  0.4483  0.2269
11586W        W31866   8.313  14.763  10.672 -0.1744  0.0662  0.0936
11587W        W31867  11.167   9.225   2.294  0.0549  0.0297 -0.1122
11588W        W31868   9.929  14.477  11.651 -0.0442 -0.0706  0.0856
11589W        W31869  13.073   9.326  13.721  0.0349  0.2157 -0.2714
11590W        W31870   8.374  11.743   1.266 -0.2141  0.0934  0.1173
11591W        W31871  11.773   4.369  11.357 -0.0801  0.3314  0.2748
11592W        W31872   4.653  10.287  10.538  0.4412 -0.0706 -0.0920
11593W        W31873  10.749  15.174  11.785 -0.4346 -0.2307 -0.3515
11594W        W31874  17.112  13.561   2.046 -0.2726  0.1840  0.1450
11595W        W31875  14.977   9.883   3.678  0.1711 -0.1588  0.2046
11596W        W31876  18.397   4.560   0.466 -0.1388  0.0481  0.0786
11597W        W31877   4.441   8.670  14.081  0.0911  0.1137  0.1941
11598W        W31878  17.113  12.864   1.056 -0.1611 -0.0195  0.0461
11599W        W31879   6.381  17.919  13.777  0.0410 -0.0225  0.1824
11600W        W31880  11.161  15.196  12.082  0.3180  0.1492  0.2628
11601W        W31881   0.377   1.728   1.723  0.1628  0.0223  0.1265
11602W        W31882   1.200  15.541  10.293  0.0653  0.2018 -0.1289
11603W        W31883   7.995   6.247   2.603 -0.1902 -0.0504  0.4697
11604W        W31884   7.753  15.733  12.972  0.3595 -0.1622  0.1358
11605W        W31885   0.549  18.412  13.069 -0.0111 -0.1050  0.1056
11606W        W31886  16.844   9.564   1.381 -0.2292  0.1733 -0.0912
11607W        W31887  16.646   9.056   1.243 -0.1728 -0.2719  0.0697
11608W        W31888   2.914  15.412  14.421 -0.1601 -0.2501  0.1805
11609W        W31889  10.493   4.633  12.152 -0.1513  0.1780 -0.0848
11610W        W31890   7.009  18.502   1.173 -0.0997 -0.4148 -0.0843
11611W        W31891   2.271   4.749  13.438  0.2160  0.0687  0.1319
11612W        W31892  11.140  13.054   4.063 -0.0393 -0.2133 -0.0448
11613W        W31893  13.465   1.392  12.273  0.1737 -0.1121  0.3370
11614W        W31894  12.177  10.742  11.429 -0.1182  0.2924 -0.1882
11615W        W31895   8.265  13.557   4.292  0.0904 -0.2552 -0.3614
11616W        W31896  16.507   8.893  10.902  0.0037 -0.2152 -0.0243
11617W        W31897   3.842   4.537   1.772 -0.0390 -0.1394 -0.0637
11618W        W31898  13.152  19.362   0.559  0.2100  0.1478  0.0491
11619W        W31899  12.555   7.673  14.494 -0.1235 -0.0656 -0.1113
11620W        W31900   6.457   4.468   0.453 -0.0471  0.2835  0.3425
11621W        W31901  18.927   2.974   3.488  0.0527 -0.0182  0.2175
11622W        W31902   5.401   2.890  11.807 -0.1804 -0.0512  0.1215
11623W        W31903   6.510  15.140   3.766  0.1716 -0.0244  0.0470
11624W        W31904  12.786   0.326   2.251  0.1242 -0.3821 -0.0264
11625W        W31905  12.969  17.894   2.199  0.0570 -0.0198  0.1050
11626W        W31906  15.311  10.998  10.649  0.1463  0.0781  0.0020
11627W        W31907  18.542  13.268  14.346  0.3500  0.1594  0.0285
11628W        W31908   2.056   1.280   0.183  0.1998 -0.1182  0.0323
11629W        W31909   3.648   3.264   3.191  0.5179  0.1807 -0.1221
11630W        W31910   9.103   5.497   3.523  0.1068  0.0650 -0.2972
11631W        W31911   5.463  13.590   3.603  0.0524 -0.3003  0.0278
11632W        W31912  16.323   7.367  13.852 -0.0843 -0.0657  0.0136
11633W        W31913   3.383  18.945   1.943 -0.1332  0.2626  0.0660
11634W        W31914   2.371  15.707   3.797 -0.1142 -0.1916 -0.3429
11635W        W31915  16.892  13.031  10.946 -0.1168  0.0219 -0.2484
11636W        W31916  15.971   1.988  11.645  0.1091  0.0746  0.0985
11637W        W31917  10.138  16.711   1.916  0.1572  0.0452  0.2959
11638W        W31918   8.768   3.740   0.450  0.0558 -0.0490  0.0488
11639W        W31919  14.342   5.266   2.153 -0.1662 -0.2146 -0.1818
11640W        W31920  16.081   9.820   3.338 -0.0553 -0.1107  0.0491
11641W        W31921   1.922  14.352  11.673 -0.2820 -0.1228  0.0151
11642W        W31922  11.072  18.594  13.641 -0.0280  0.0656  0.0235
11643W        W31923   7.254  19.134   1.933  0.4978  0.3903 -0.1323
11644W        W31924  10.143  13.163   1.158  0.0269 -0.0897 -0.1449
11645W        W31925   8.509   0.069  11.470  0.0087  0.0529 -0.1400
11646W        W31926   0.021   9.040   3.909 -0.1362  0.0794 -0.1124
11647W        W31927  17.144  10.399  10.735 -0.0180 -0.0705 -0.0594
11648W        W31928  11.213   0.788  13.715 -0.1058  0.2989 -0.2246
11649W        W31929   0.028  12.316   3.412 -0.1939 -0.3280 -0.2862
11650W        W31930  13.902  15.654  13.823  0.2606 -0.1909  0.0832
11651W        W31931  18.498   2.383   1.235 -0.0662  0.1154  0.0457
11652W        W31932  18.093  16.590   0.483  0.0623  0.1107 -0.0519
11653W        W31933   8.761  15.930   9.968  0.1432  0.0016  0.1202
11654W        W31934   3.822  17.353   1.106  0.3460 -0.2938  0.1319
11655W        W31935   5.153   1.872   1.170  0.2380  0.0117 -0.0129
11656W        W31936   3.894  10.940  10.092  0.2511 -0.2832  0.0143
11657W        W31937   0.737   6.536  12.270  0.0475 -0.0004 -0.2631
11658W        W31938  19.310   2.375  12.560 -0.1661 -0.1082  0.0759
11659W        W31939   7.679   0.591  11.460  0.1610 -0.0681  0.3932
11660W        W31940   3.037  11.606  10.682  0.0544 -0.0850  0.2882
11661W        W31941   9.511   5.410  14.403 -0.0814 -0.3047 -0.2230
11662W        W31942  12.245  12.659   0.924  0.1637  0.0302 -0.4162
11663W        W31943   9.718   8.976   0.305  0.0019 -0.0331  0.0760
11664W        W31944  18.788  12.688   0.734 -0.0224 -0.3015  0.1213
11665W        W31945   3.266  14.333   1.671  0.0614 -0.1676  0.1250
11666W        W31946   7.773   4.282   2.818  0.0409 -0.1103 -0.0012
11667W        W31947   4.463   5.441  11.662 -0.0800  0.2545  0.3825
11668W        W31948  16.939   4.403  10.985 -0.2236  0.2816 -0.0637
11669W        W31949  10.434   3.857   3.547 -0.1098 -0.1309 -0.2354
11670W        W31950  16.059  13.600  11.087  0.1109 -0.2086  0.1060
11671W        W31951  16.371  14.408   1.183  0.1310 -0.4421 -0.0889
11672W        W31952   6.443   2.994  11.025 -0.0344 -0.1264 -0.0229
11673W        W31953   7.314  13.436  12.286  0.3789 -0.1263  0.0664
11674W        W31954  17.979   1.116  13.879 -0.5142  0.4426  0.0273
11675W        W31955  11.444   1.098  10.772  0.1512  0.0283  0.3036
11676W        W31956  12.412  14.575  12.594  0.1563  0.0973 -0.2782
11677W        W31957  10.885   9.601  10.502 -0.1038  0.0732 -0.1567
11678W        W31958  14.229   8.628  12.186 -0.0015 -0.1102 -0.0932
11679W        W31959  17.916   9.119   1.739  0.2835  0.0574  0.1384
11680W        W31960   7.912   6.879  11.051 -0.0725  0.1702  0.0196
11681W        W31961   5.973  14.009  11.025  0.0754  0.1642  0.1458
11682W        W31962   5.906   0.499   2.950 -0.2344 -0.2179 -0.0560
11683W        W31963   0.298   3.859  13.535  0.0217 -0.0673 -0.2721
11684W        W31964  15.478   4.213   0.032  0.1927  0.3289  0.2478
11685W        W31965  10.675   6.045  11.569  0.2842  0.1630 -0.1055
11686W        W31966   8.512   7.912   1.276 -0.4825 -0.1015  0.1552
11687W        W31967   3.819   2.972  11.582 -0.0236 -0.1374 -0.1243
11688W        W31968  11.528   4.448  13.783 -0.1388 -0.1254  0.1177
11689W        W31969   9.518  10.245   3.528  0.0055  0.2334  0.1184
11690W        W31970  17.465   6.978   1.964  0.1396  0.0904 -0.0169
11691W        W31971  16.476  18.930   2.406  0.0774 -0.1846  0.2671
11692W        W31972   7.751   3.737   1.698 -0.5281 -0.0365  0.2111
11693W        W31973  16.892   8.262   2.859  0.1256  0.0964  0.0809
11694W        W31974  10.917   3.364  12.317 -0.0369 -0.1350 -0.0867
11695W        W31975  13.294   6.969   0.306 -0.3013  0.1839 -0.2054
11696W        W31976   0.134  14.678   3.692 -0.1774  0.1223 -0.0741
11697W        W31977   6.669  14.342   3.297 -0.1299  0.1481 -0.3015
11698W        W31978  14.408  12.035  10.862 -0.0025  0.0791  0.0169
11699W        W31979  10.287  11.051  13.200 -0.2902  0.0142  0.0364
11700W        W31980  15.232   3.552   1.101  0.0100 -0.0494  0.0190
11701W        W31981  16.241  12.391  11.784 -0.1919  0.0774  0.1942
11702W        W31982   8.178  19.422  11.926  0.2421 -0.2909 -0.1115
11703W        W31983  11.578   8.766   1.714  0.2669  0.0825 -0.1028
11704W        W31984   6.614   2.582   0.682  0.1677 -0.0894 -0.3506
11705W        W31985  15.852  18.840  13.856 -0.6071  0.1049 -0.0405
11706W        W31986   4.729  17.274   0.175  0.0386  0.1103 -0.0289
11707W        W31987  17.473   5.069   0.920 -0.2780  0.1695 -0.0279
11708W        W31988   0.848   9.916  11.772 -0.0007  0.4228 -0.2026
11709W        W31989   1.567  12.978  12.409 -0.2725 -0.2267  0.0347
11710W        W31990   3.017  12.495  10.510 -0.0014 -0.1339  0.0717
11711W        W31991   1.341  11.795  14.070  0.1062 -0.4231 -0.0541
11712W        W31992  17.809   9.445  12.143  0.0146 -0.0811  0.1095
11713W        W31993  18.678  18.850   1.607 -0.0006  0.0888  0.2897
11714W        W31994  18.847  17.335  14.349  0.1853 -0.0780  0.1076
11715W        W31995  10.780   4.464   3.914 -0.0266 -0.2894 -0.0723
11716W        W31996  11.957   5.162  10.839  0.4839  0.0881  0.1424
11717W        W31997   5.588   2.052  14.423  0.0718  0.1373 -0.0132
11718W        W31998   0.051   2.196   0.956  0.0571 -0.0792  0.1252
11719W        W31999   3.605  17.567  13.061 -0.2552 -0.0812  0.4476
11720W        W32000  19.242  18.985  11.008 -0.1833 -0.0183 -0.1075
11721W        W32001  17.419   3.645  14.368  0.3031  0.0647 -0.1166
11722W        W32002  12.188   8.159   3.305 -0.3959  0.0428 -0.0377
11723W        W32003   4.869   7.514  14.445 -0.1249  0.0078  0.1190
11724W        W32004  11.954   2.916  12.826 -0.3812 -0.0855 -0.0629
11725W        W32005  17.387   1.540  11.305 -0.1818 -0.2043  0.2841
11726W        W32006   4.760   5.662   3.632  0.3230  0.1239 -0.1533
11727W        W32007   3.395   2.698  12.101 -0.0565  0.1004 -0.2591
11728W        W32008  12.586  12.249  12.082  0.0630 -0.1593 -0.1262
11729W        W32009   1.121  10.446   1.820  0.2066  0.1272 -0.3334
11730W        W32010   3.012   9.976   0.752 -0.1206 -0.0746 -0.2847
11731W        W32011   0.226   2.900  10.941 -0.0591 -0.0811 -0.2459
11732W        W32012  13.009   1.991  14.436 -0.0689 -0.2256 -0.1016
11733W        W32013   8.986   0.091  11.565  0.3279  0.2389 -0.4518
11734W        W32014   1.649  15.725  12.720  0.1390 -0.2985  0.2807
11735W        W32015  11.001  14.647   3.606 -0.1259  0.2493  0.2836
11736W        W32016  17.184  10.907  10.609 -0.3835 -0.0209 -0.0433
11737W        W32017  18.889   4.603   1.938  0.0235 -0.0896  0.0292
11738W        W32018  14.906   5.216   1.580 -0.3030  0.2997 -0.0916
11739W        W32019  15.401   8.354   3.163 -0.2315 -0.1306  0.0856
11740W        W32020  17.379   7.198   3.036  0.1071 -0.1417  0.0198
11741W        W32021  19.345   4.970   1.292 -0.0184  0.0683  0.1215
11742W        W32022  13.665  15.872   2.669  0.0689 -0.3703  0.0815
11743W        W32023   6.401   7.901   3.649 -0.0336  0.4589  0.0594
11744W        W32024   3.562  12.943   0.010 -0.1404  0.1598  0.2551
11745W        W32025  16.374  14.122  10.418  0.3362 -0.2420 -0.1190
11746W        W32026  17.847  15.895   1.590  0.0144 -0.2066  0.3880
11747W        W32027  15.818  14.473   0.378 -0.1987  0.1669 -0.0834
11748W        W32028   0.188   9.574  14.019 -0.3054 -0.0795 -0.1009
11749W        W32029  11.186   2.722   9.786  0.1662 -0.0610  0.0680
11750W        W32030   7.321   5.069  12.567  0.1773  0.1313 -0.1298
11751W        W32031  11.918  10.200  13.446  0.1102 -0.1692  0.0761
11752W        W32032   3.074  12.009  10.380  0.0214 -0.0779  0.1799
11753W        W32033   4.302   8.571  11.587 -0.3112  0.0966 -0.2748
11754W        W32034  16.235   1.123  12.392  0.2843  0.1851  0.0044
11755W        W32035   7.670   3.652   4.036  0.3222 -0.1810  0.1880
11756W        W32036  18.583   1.789   2.136  0.2488 -0.0807  0.1067
11757W        W32037  11.406   4.843   2.765  0.0459  0.0269  0.0262
11758W        W32038  17.388  12.927   0.069 -0.4002 -0.2285 -0.0820
11759W        W32039   4.461  12.254  13.622  0.0335 -0.1581  0.0423
11760W        W32040  15.759  10.783   3.375 -0.1058  0.2247  0.2313
11761W        W32041   3.788  13.469   3.798  0.2294  0.2772 -0.0608
11762W        W32042  11.921   1.350   2.232  0.0798  0.2280  0.1369
11763W        W32043   9.280  17.653   2.592  0.1737 -0.3632 -0.0592
11764W        W32044  13.960  19.032  11.131  0.0790 -0.0750  0.2278
11765W        W32045   6.520  12.793  13.106 -0.1589  0.0845  0.1162
11766W        W32046  18.550  18.762  11.306  0.0165  0.1238 -0.1051
11767W        W32047  14.065  13.306  10.585  0.1266 -0.1186 -0.3177
11768W        W32048  12.968  11.115  14.328 -0.0346  0.2268 -0.0078
11769W        W32049   2.438  17.474   3.980 -0.0318 -0.2503 -0.0407
11770W        W32050  10.699  13.073   0.008 -0.1072 -0.0686  0.2507
11771W        W32051   9.856  17.377  13.869 -0.1953  0.0946 -0.1490
11772W        W32052   1.348  14.968   2.197  0.2258 -0.1798  0.2236
11773W        W32053  13.377  11.115   4.156  0.0769 -0.0410  0.1563
11774W        W32054   0.788   7.109  12.440  0.1743  0.0940 -0.2043
11775W        W32055   9.787   5.807  13.411  0.2234  0.4074  0.2016
11776W        W32056   1.574  12.229  13.335 -0.2322 -0.1214  0.1007
11777W        W32057  12.507  17.285   3.595 -0.0645  0.0233  0.0070
11778W        W32058   2.328   8.294  11.145 -0.1500  0.0840 -0.1349
11779W        W32059  19.265   8.514   0.902  0.3340  0.0008 -0.1436
11780W        W32060  10.874  11.769   1.778  0.0937 -0.4723 -0.0428
11781W        W32061  14.781  12.904  11.128  0.1201  0.1810  0.1863
11782W        W32062   1.189  16.731  13.949  0.0190 -0.1262  0.0347
11783W        W32063   0.847   3.723   0.205 -0.0270  0.0426  0.0362
11784W        W32064   2.591   2.932   1.274  0.1080 -0.0954 -0.1637
11785W        W32065  18.524   7.097  12.242  0.1063  0.0637 -0.0773
11786W        W32066   4.379   6.544   4.060 -0.1749 -0.3116  0.1136
11787W        W32067  10.033  10.994  12.640 -0.1335  0.0262  0.1302
11788W        W32068   8.265   9.953   1.954  0.3724  0.0035  0.1650
11789W        W32069   9.255  11.752   1.246  0.0057 -0.1673  0.0554
11790W        W32070   0.977   3.690  11.114  0.2543  0.0610  0.0008
11791W        W32071   8.612   6.880   3.299  0.0125 -0.3838  0.0553
11792W        W32072  15.103   8.842  11.514  0.2030 -0.2605  0.0734
11793W        W32073  12.906  19.058  12.976  0.1574  0.0773 -0.1162
11794W        W32074  14.968  13.676  14.165  0.1254  0.0380 -0.0067
11795W        W32075   3.018  10.645   3.207 -0.0846  0.2436  0.2127
11796W        W32076   8.087  14.521  11.732  0.1760  0.1056 -0.1079
11797W        W32077  15.335   9.906   1.751  0.0695 -0.0107  0.0185
11798W        W32078   5.653  13.743  12.534 -0.1788  0.0787 -0.0828
11799W        W32079  15.513  17.419  13.048  0.1535 -0.2242 -0.3770
11800W        W32080  12.611  14.481  10.365 -0.1813 -0.0483 -0.1056
11801W        W32081   5.320   3.794  14.336 -0.0514 -0.0576  0.0696
11802W        W32082   2.208  14.659   0.886 -0.0906 -0.0783  0.1415
11803W        W32083  16.538  16.368  11.919  0.0441  0.0094  0.2126
11804W        W32084  18.025   8.461   1.191 -0.1872 -0.2501  0.2711
11805W        W32085   6.173  18.774  12.703  0.0751 -0.1387 -0.0218
11806W        W32086   8.602   2.004  14.069 -0.3747 -0.3391 -0.1078
11807W        W32087   4.222   1.197   0.679  0.1953 -0.0124  0.1978
11808W        W32088  10.854   4.562   3.230 -0.2383 -0.0583  0.2955
11809W        W32089   9.854   6.230  10.456  0.1753 -0.2840 -0.2300
11810W        W32090  15.504   0.187  11.453  0.3542  0.0082 -0.1312
11811W        W32091   3.152  10.026  13.047 -0.0311  0.1518  0.1885
11812W        W32092   1.971  10.979  14.104 -0.0961  0.0291 -0.2129
11813W        W32093  16.577  10.519  12.749 -0.1124 -0.0070  0.3248
11814W        W32094  15.422   1.204   1.626 -0.1350 -0.2458 -0.0145
11815W        W32095  17.285   4.893   1.937  0.0887  0.0357 -0.1402
11816W        W32096   0.930   7.577  12.470 -0.0193  0.1153  0.2934
11817W        W32097   7.868  13.613   3.291  0.0346 -0.0949 -0.3551
11818W        W32098   0.027   5.564   0.694  0.1088  0.0584  0.2862
11819W        W32099  17.807   7.830  11.634 -0.0894  0.0411 -0.2697
11820W        W32100   9.316   0.040   3.046  0.1370 -0.5209 -0.2991
11821W        W32101  18.121  10.570  10.135 -0.0702  0.0119 -0.0304
11822W        W32102  12.651  17.993   4.592 -0.2454  0.1238  0.0824
11823W        W32103   6.644  12.858   0.728 -0.1584  0.2278  0.3101
11824W        W32104   2.008   5.042  12.131 -0.1322 -0.2231  0.0770
11825W        W32105   4.007  11.121  10.738 -0.0646  0.2019  0.0327
11826W        W32106   8.030  16.429   2.494  0.0171  0.0230  0.3324
11827W        W32107  14.042  16.134   2.345  0.1133 -0.2032 -0.1107
11828W        W32108  12.892   0.215  12.809 -0.0147 -0.0324 -0.0853
11829W        W32109  14.194   0.410  10.351  0.2109  0.0570  0.2540
11830W        W32110   0.230  11.906  10.820 -0.1371 -0.0395  0.2505
11831W        W32111  12.389  13.751   0.596 -0.0416 -0.0076 -0.0109
11832W        W32112  14.643   0.375  12.624  0.0306  0.1530 -0.0107
11833W        W32113   1.629   2.259   0.703 -0.1188  0.1630 -0.0260
11834W        W32114  11.110  16.447  11.234  0.2861  0.0655  0.1844
11835W        W32115  12.869   8.753  13.721  0.0503 -0.1728 -0.1392
11836W        W32116   6.399  10.644  12.440  0.0479  0.0130 -0.1634
11837W        W32117  11.268  15.338   3.917  0.0756 -0.2797 -0.2615
11838W        W32118   0.688   9.556   1.223  0.1024  0.3680 -0.0772
11839W        W32119  14.552  16.007  12.419  0.1578 -0.3955  0.1712
11840W        W32120   0.293  16.188  13.044  0.0929 -0.0539  0.3276
11841W        W32121  13.923  16.360  14.402 -0.0922 -0.1526 -0.1646
11842W        W32122   6.529   4.845   3.034  0.0721 -0.0577  0.0615
11843W        W32123  15.011   0.727   2.698 -0.2239  0.1072  0.1326
11844W        W32124   4.232   6.233   1.760  0.0219 -0.0697 -0.0138
11845W        W32125  16.218   8.830   1.183  0.0202 -0.0791 -0.2492
11846W        W32126   1.196  14.557  10.988 -0.1230  0.1884  0.2227
11847W        W32127  11.201   0.591   2.322  0.0210  0.0652  0.0960
11848W        W32128   1.971  18.952   2.764  0.0874  0.1393  0.0680
11849W        W32129   9.323  10.865   1.308 -0.0766 -0.0140 -0.0801
11850W        W32130  15.924   9.846   3.819 -0.3601  0.0293  0.0809
11851W        W32131   8.753  13.082   3.686  0.2249  0.0972  0.2606
11852W        W32132  12.590  14.741  11.661 -0.0002  0.4949  0.0081
11853W        W32133   3.315  10.518  10.848 -0.0560  0.0436  0.1709
11854W        W32134  15.467   0.593   0.717 -0.3688 -0.0097 -0.1019
11855W        W32135  10.317  14.757  12.925  0.0373 -0.0452  0.2249
11856W        W32136  12.377   4.417  13.985  0.0679 -0.0739 -0.2233
11857W        W32137  18.430  17.064  14.311 -0.0785 -0.0651  0.1064
11858W        W32138  18.741   8.556  13.834 -0.1428 -0.0076 -0.3367
11859W        W32139   1.937  15.242  11.861 -0.1153 -0.1540 -0.0125
11860W        W32140  12.472  14.227  13.955 -0.1567  0.0150  0.2783
11861W        W32141  14.529  16.918   1.402  0.0571  0.3474 -0.3536
11862W        W32142  15.081  18.610  12.316 -0.1485  0.1274  0.1277
11863W        W32143   6.166  12.324   1.605  0.1381  0.2008 -0.1394
11864W        W32144   2.017  13.441   4.147  0.1443 -0.2854  0.0516
11865W        W32145  17.398  10.023  11.932  0.1380  0.3809  0.1277
11866W        W32146  18.969   1.156  12.975  0.0638  0.3711  0.4285
11867W        W32147   3.950   3.207   2.783  0.2199 -0.2088  0.1534
11868W        W32148  11.775   0.751   2.889 -0.1354  0.0447  0.3780
11869W        W32149   5.959   8.080   9.930 -0.2701 -0.1091 -0.1069
11870W        W32150  16.580   0.596   0.829  0.3199  0.0162  0.1010
11871W        W32151  17.777  11.650  10.406 -0.2648  0.0987  0.0407
11872W        W32152  15.330   0.538  12.228 -0.2490 -0.3530 -0.0395
11873W        W32153   6.097   9.857  12.598 -0.4212  0.1491 -0.3924
11874W        W32154  15.826  17.697  11.279 -0.0745  0.2850  0.2504
11875W        W32155  11.243   9.663  12.919  0.0335 -0.0778 -0.0013
11876W        W32156  14.917  14.076   1.342 -0.4629  0.0793 -0.0331
11877W        W32157   5.325  10.652   1.463  0.1891 -0.2537 -0.0541
11878W        W32158  17.002  16.933  13.494 -0.0068  0.0464  0.2830
11879W        W32159   4.599  17.107  11.401 -0.3618  0.4045  0.0111
11880W        W32160   0.753   9.364   3.423  0.1157  0.2670  0.0973
11881W        W32161  17.199   0.669   2.265 -0.2284 -0.1213 -0.1301
11882W        W32162  12.680  10.994  10.930  0.1537 -0.0611 -0.0817
11883W        W32163   9.148  10.287   2.052  0.2363 -0.4586  0.1505
11884W        W32164  13.377  17.732  13.343  0.1238  0.2203  0.0965
11885W        W32165  15.689   1.835  12.093 -0.0622  0.1790 -0.0144
11886W        W32166  10.838  16.795   0.709  0.1206 -0.1273  0.0216
11887W        W32167  10.039   3.819   0.374  0.1369 -0.3490 -0.0322
11888W        W32168  11.321  19.150  12.310  0.2534 -0.1814  0.0557
11889W        W32169  11.974  10.533  12.164  0.0629 -0.2028 -0.0169
11890W        W32170  15.947  19.275  12.161 -0.1167 -0.2141 -0.0381
11891W        W32171   6.121  17.772   2.026 -0.3985 -0.1354 -0.0615
11892W        W32172   6.740   9.483  13.050  0.1195  0.0285  0.1742
11893W        W32173  12.483   5.096   0.312  0.0212  0.1591 -0.2405
11894W        W32174   4.471   6.706   1.650  0.0506 -0.0526 -0.2483
11895W        W32175   1.218   5.765  12.892  0.0029  0.1469  0.1321
11896W        W32176   2.718   1.334   3.765  0.0879 -0.3387 -0.0286
11897W        W32177   7.229   1.036   0.413  0.1830  0.1722  0.1335
11898W        W32178  10.643   0.268   2.321  0.1467  0.2063 -0.2001
11899W        W32179   7.109  16.429   3.543 -0.0211  0.1330  0.2490
11900W        W32180   0.989   6.523  11.583  0.1444  0.2384 -0.0948
11901W        W32181  16.634   4.769   0.121  0.1897  0.2056  0.0704
11902W        W32182  13.808  17.789   0.867 -0.0074 -0.1820  0.5025
11903W        W32183   0.565   7.659   2.578  0.1001  0.2072 -0.1186
11904W        W32184  11.023  18.804  10.421 -0.0287 -0.2730 -0.0351
11905W        W32185  17.731   6.889  10.874 -0.0438 -0.2844  0.0369
11906W        W32186   0.672   7.474  11.562 -0.0533 -0.0429  0.1310
11907W        W32187  13.841   5.161   1.422 -0.1636 -0.0168  0.0538
11908W        W32188  14.391   4.438   1.853 -0.1773  0.0003  0.2432
11909W        W32189   5.629  15.139  12.768  0.1865  0.0940  0.1034
11910W        W32190   9.716  13.678  12.043  0.2128 -0.1180 -0.4356
11911W        W32191  14.115  11.781   3.765 -0.1430  0.1696 -0.1474
11912W        W32192  19.310   6.065   2.690 -0.1472 -0.0928 -0.0041
11913W        W32193   3.108  14.733   2.034  0.0928 -0.0809 -0.0490
11914W        W32194  11.830  15.597  10.996 -0.3808  0.0141 -0.1595
11915W        W32195   0.027   9.076  13.863  0.0543  0.1049 -0.0661
11916W        W32196  12.340  18.967   3.066  0.1410 -0.2025 -0.2573
11917W        W32197   1.797  14.744   2.342  0.0830  0.1057  0.0913
11918W        W32198   2.524   5.986  11.437  0.2348  0.0991 -0.1470
11919W        W32199   8.535   2.575   4.292  0.0237  0.0223  0.2241
11920W        W32200   3.689  11.820  12.360 -0.4261  0.3194  0.1326
11921W        W32201   3.989  17.558  13.485  0.1481 -0.3866 -0.3823
11922W        W32202  14.407   8.894   0.076 -0.0930 -0.1662  0.0901
11923W        W32203   0.911  10.991  10.212 -0.0595  0.1915 -0.3436
11924W        W32204  19.181   5.725  13.492 -0.0125  0.2323  0.0455
11925W        W32205   2.991  12.829  13.110 -0.2937  0.1399 -0.1004
11926W        W32206   4.561   7.748   3.715  0.3056  0.3868 -0.4771
11927W        W32207  16.225  12.359  12.674 -0.0544 -0.1613 -0.1153
11928W        W32208   1.771   5.886  11.916 -0.3061  0.1509  0.0871
11929W        W32209   6.204  17.230   1.115 -0.1115 -0.0679  0.0097
11930W        W32210  16.940   1.618  10.573  0.3563 -0.2365  0.1476
11931W        W32211   9.484  16.643   3.395  0.1420  0.1355  0.0291
11932W        W32212   1.603  10.936  12.214 -0.0158 -0.0279  0.1006
11933W        W32213   9.603   4.614  14.060  0.0358  0.4549  0.0109
11934W        W32214  18.678  13.641   2.172 -0.1077 -0.2378  0.0326
11935W        W32215   8.987   4.162  10.847 -0.0189 -0.0196  0.0735
11936W        W32216  15.008   5.740  10.981 -0.0897  0.1606  0.0121
11937W        W32217  11.405  13.589   1.550 -0.1846 -0.0254  0.0230
11938W        W32218  14.035  12.743   3.274 -0.1017  0.1415 -0.1214
11939W        W32219   5.896  13.073  11.960 -0.0263 -0.3343 -0.0219
11940W        W32220   7.177  18.290  14.364  0.0657  0.2631 -0.2996
11941W        W32221  10.693  13.380  13.368  0.1988  0.2770 -0.0140
11942W        W32222  17.362   4.010   0.195 -0.1009  0.0816 -0.0135
11943W        W32223  15.999  15.219   0.160 -0.3287  0.0748  0.0867
11944W        W32224  10.892   6.449   3.322 -0.0927  0.1319 -0.0064
11945W        W32225  17.490  12.048  14.276 -0.0277 -0.0064  0.1159
11946W        W32226   9.946   6.146  13.761 -0.1055  0.4023  0.0219
11947W        W32227  13.694  14.303  12.015  0.0911 -0.1577  0.0675
11948W        W32228   1.256   8.448   0.270  0.0683 -0.1458  0.2012
11949W        W32229   4.956  16.047  14.153  0.0600  0.0287  0.2891
11950W        W32230   4.481   4.459   0.227  0.0875  0.0077 -0.0110
11951W        W32231  17.474   5.548   3.917  0.0470 -0.0587  0.2335
11952W        W32232  16.178   8.298   3.558 -0.0707 -0.1770  0.0352
11953W        W32233   5.553  11.596  14.232  0.2005  0.0277 -0.1948
11954W        W32234   7.846  14.657  14.138 -0.1721 -0.3551 -0.1251
11955W        W32235   2.389  10.667   1.000  0.1265  0.0420 -0.0129
11956W        W32236  11.322  15.576  11.198  0.4474  0.1175 -0.3811
11957W        W32237   4.819  18.139  11.418  0.2428 -0.1001  0.3118
11958W        W32238   7.900  10.160  10.858  0.2237 -0.0358  0.0630
11959W        W32239  15.168  11.250   2.627 -0.1476  0.2913 -0.1408
11960W        W32240  13.001  16.736   0.450  0.0536 -0.2196 -0.0338
11961W        W32241   2.299  19.408   0.761 -0.1394 -0.0475 -0.2400
11962W        W32242   8.135  14.430   3.821  0.1244  0.0932  0.1875
11963W        W32243   1.028  15.753  14.466  0.2302  0.1691 -0.0690
11964W        W32244  12.826  11.022   4.151 -0.1899 -0.0272 -0.1870
11965W        W32245  16.861  10.571  13.187  0.3743  0.0293  0.2278
11966W        W32246  10.497  17.248  10.969 -0.1241  0.2362  0.1060
11967W        W32247  14.700  14.871  10.588  0.3998  0.4424 -0.1183
11968W        W32248  18.559  13.496  10.463  0.0485 -0.2811 -0.3841
11969W        W32249  12.267  12.182  12.417 -0.0194 -0.0759  0.4141
11970W        W32250   7.974   3.405  11.478 -0.1824  0.1246  0.0047
11971W        W32251  11.119   3.112  10.106  0.2111 -0.3858  0.3323
11972W        W32252  17.282  19.152   0.043 -0.0571  0.1599 -0.0800
11973W        W32253   0.210   7.647  10.279 -0.1900 -0.1051 -0.0582
11974W        W32254  17.803  16.832   0.957  0.3119 -0.1012  0.1294
11975W        W32255   2.724  15.645  13.782  0.1274  0.1127 -0.0344
11976W        W32256  15.191  10.763   2.129  0.0504  0.2726 -0.0398
11977W        W32257  18.601  13.984   0.913 -0.0407  0.1006 -0.1360
11978W        W32258  12.185   0.807   0.074 -0.1855 -0.2387 -0.0305
11979W        W32259   6.349   1.485  11.537  0.1770 -0.1065 -0.2841
11980W        W32260  14.534  18.022   1.168 -0.0365 -0.1226 -0.1048
11981W        W32261   2.693  11.492   0.718  0.0925 -0.4030 -0.4596
11982W        W32262  12.367   8.049   2.087 -0.4026 -0.1673  0.0116
11983W        W32263   0.061  12.948   3.275  0.0978  0.1525  0.2852
11984W        W32264   6.090   8.789  13.209 -0.0050  0.0933 -0.2185
11985W        W32265   9.762   4.106   2.235 -0.0793  0.0309 -0.0893
11986W        W32266  13.496   0.634   3.257  0.3247  0.0287 -0.1310
11987W        W32267  19.280  13.134   2.308 -0.3298  0.0811 -0.1081
11988W        W32268  16.473   0.795   3.182  0.4466 -0.0694  0.1252
11989W        W32269  11.711  14.412   0.248 -0.1640 -0.2935 -0.0139
11990W        W32270  11.461   4.822   3.937  0.1291  0.2739  0.3117
11991W        W32271   9.500   0.835  10.596  0.1531  0.2968  0.0853
11992W        W32272  17.424   3.419   2.304 -0.3018 -0.1000  0.0948
11993W        W32273   6.680  16.705  12.799  0.0214  0.2755 -0.3051
11994W        W32274  18.924   3.561  11.843 -0.1260  0.0373  0.0217
11995W        W32275   0.071  16.047   0.143  0.0157  0.1825  0.1663
11996W        W32276  19.366  19.193   0.474 -0.1702  0.1065  0.1617
11997W        W32277  16.475   1.218   3.978 -0.2031  0.1122  0.0983
11998W        W32278  16.421  14.052   3.484 -0.1123 -0.2733 -0.2547
11999W        W32279   3.957   9.358  14.358 -0.4306  0.2882  0.0053
12000W        W32280   0.211   5.082   0.580  0.0022  0.2510  0.1507
12001W        W32281  14.747  16.365   1.842  0.2557  0.1497  0.1936
12002W        W32282  16.322  16.327   1.983  0.0929 -0.2777  0.1162
12003W        W32283  12.773  19.419   1.006 -0.1300  0.2236 -0.4379
12004W        W32284   3.080   5.891   2.728  0.0534 -0.1080  0.0081
12005W        W32285  17.992  17.326   3.406  0.0648  0.4530 -0.0631
12006W        W32286   1.311   1.367  13.179 -0.2684 -0.2034 -0.0269
12007W        W32287  14.775  10.711  10.885  0.2657  0.0137  0.0301
12008W        W32288   4.828  14.264  10.521 -0.2960 -0.0096 -0.3675
12009W        W32289  12.895   7.248  14.432 -0.2753  0.1868  0.0162
12010W        W32290  17.691  10.745  11.478  0.0954 -0.0077  0.0548
12011W        W32291   2.743   3.484  12.865 -0.2728  0.0455 -0.0671
12012W        W32292  14.111   1.612   0.765 -0.0953  0.1753 -0.3909
12013W        W32293   8.283  16.750   2.781  0.0974 -0.5525  0.2393
12014W        W32294  15.877  12.285  10.256 -0.0596 -0.1265  0.2166
12015W        W32295  14.125  16.981  10.039 -0.0436 -0.3162 -0.0835
12016W        W32296   9.968   0.480  11.831  0.1983 -0.2475 -0.0055
12017W        W32297   2.044   9.383  10.309  0.0153  0.0343  0.1559
12018W        W32298  18.435  17.758   1.886  0.1332  0.1120 -0.0033
12019W        W32299  17.222  10.802   1.040 -0.0920 -0.1944 -0.2469
12020W        W32300   5.304  11.213   1.043 -0.5868 -0.1528 -0.1355
12021W        W32301  13.920  16.172  13.929  0.1931  0.2048 -0.0185
12022W        W32302  10.733  15.318  12.412 -0.1208 -0.0014  0.1852
12023W        W32303   3.893  12.310   2.796 -0.0532  0.0188  0.2071
12024W        W32304  11.979   7.382   3.753 -0.1133  0.0015  0.1922
12025W        W32305   1.983  16.855   0.672 -0.2384  0.1139 -0.0780
12026W        W32306   0.369   3.571   0.718  0.0334  0.0550 -0.0523
12027W        W32307  14.687  12.365   2.493 -0.2756 -0.0112 -0.1302
12028W        W32308  11.685   7.063  13.549  0.0008  0.2182  0.1127
12029W        W32309  18.787   1.121   1.158 -0.3556 -0.1220  0.2787
12030W        W32310   5.086  13.387  12.547 -0.3456  0.2871 -0.2239
12031W        W32311   0.195   1.451   1.282  0.0070  0.1502  0.1439
12032W        W32312  16.149   2.668   1.911  0.0487  0.1936 -0.0120
12033W        W32313   2.019   9.320   4.233  0.0271  0.3841  0.2231
12034W        W32314   9.741   7.067  11.406 -0.1825  0.3006 -0.0619
12035W        W32315   8.247  13.771   1.775 -0.2056 -0.0832  0.3770
12036W        W32316   5.446  17.392  11.663 -0.2114 -0.0479 -0.1950
12037W        W32317  13.407  16.018   2.180 -0.2242  0.0004  0.3055
12038W        W32318  10.894  18.474   0.367  0.0959 -0.0588 -0.0184
12039W        W32319  16.518   6.982   1.962  0.3249  0.2791 -0.0198
12040W        W32320   6.354   3.361  12.486  0.1288  0.2278  0.1702
12041W        W32321  16.019  11.810   0.884  0.0124 -0.1294 -0.3662
12042W        W32322  15.649  10.196   0.464 -0.1970  0.0882  0.0615
12043W        W32323  10.186  18.079   2.948 -0.1788  0.2519 -0.0224
12044W        W32324   1.804  13.501  13.300 -0.3088  0.1913 -0.0118
12045W        W32325  12.365   9.852  12.568  0.3067  0.0328  0.0947
12046W        W32326  18.695   4.818   3.851 -0.0568 -0.0734 -0.3131
12047W        W32327  16.369   2.982  11.944  0.1537 -0.2779  0.1949
12048W        W32328  13.828   5.765  14.007  0.0844 -0.0474 -0.0404
12049W        W32329   9.277   2.450  11.440 -0.0888  0.2190 -0.0540
12050W        W32330  10.561   8.558   3.176  0.1758 -0.1842  0.3473
12051W        W32331   6.996  18.228  13.807  0.0010  0.1644 -0.1517
12052W        W32332  19.314  14.124  10.815  0.1886  0.0035  0.1044
12053W        W32333   7.745   2.449  10.797  0.4194  0.0616  0.0856
12054W        W32334  12.489  11.035  10.479 -0.0924 -0.1264  0.3261
12055W        W32335  12.385  17.672   4.212 -0.0454  0.2328  0.0018
12056W        W32336   4.659  10.778  11.714  0.0246 -0.1096  0.0025
12057W        W32337   0.559  11.880   2.547 -0.0615 -0.0018  0.1056
12058W        W32338  16.631  17.883   1.483  0.0330  0.0255  0.1489
12059W        W32339  16.516   8.889   0.779  0.1125  0.3917  0.1962
12060W        W32340   1.710  11.374   4.399  0.0940 -0.0113 -0.1396
12061W        W32341  11.871   1.393  10.651 -0.1105  0.7219  0.0658
12062W        W32342   4.721  11.888  11.585  0.0024 -0.3126  0.1196
12063W        W32343   6.954  17.984   3.861  0.1376 -0.1883 -0.1645
12064W        W32344  16.378   0.345   4.398 -0.1574 -0.0612 -0.2228
12065W        W32345   5.563  18.369   0.399  0.0603  0.1663  0.1064
12066W        W32346   0.557  10.649   4.475  0.1228  0.1479 -0.0667
12067W        W32347   2.005  18.888   0.721 -0.3829  0.0657  0.0442
12068W        W32348   8.973   2.650  14.121  0.0121  0.0273  0.1787
12069W        W32349  19.030  16.615   2.003  0.0321  0.1013 -0.1453
12070W        W32350  18.980   9.786   2.557 -0.1446  0.2946 -0.2762
12071W        W32351  11.264  11.387   1.555 -0.4133 -0.1144  0.0059
12072W        W32352   5.122  18.550  12.105 -0.1378  0.1742 -0.3509
12073W        W32353  10.102   7.570  10.944  0.1235  0.0751 -0.2505
12074W        W32354  16.118   3.376  11.346 -0.2080  0.1850  0.0801
12075W        W32355  12.057   3.885   0.731  0.1182  0.1380 -0.2983
12076W        W32356   8.930   3.980  14.109  0.2465  0.3287 -0.1101
12077W        W32357  11.121  16.360   0.629 -0.4120  0.0242 -0.0459
12078W        W32358   5.136  12.066  11.835 -0.2238  0.1649 -0.4809
12079W        W32359   2.688   8.678   1.212  0.0344  0.0358 -0.1121
12080W        W32360  10.605   4.670  12.624 -0.0575 -0.0651  0.3853
12081W        W32361  13.888  17.042  12.316 -0.0193 -0.0240 -0.2763
12082W        W32362  13.744   7.317  12.829  0.2019  0.0131 -0.0764
12083W        W32363  16.059   4.839  14.458  0.1020 -0.0302  0.1424
12084W        W32364   1.764  11.022   2.249 -0.0297 -0.3557  0.0293
12085W        W32365  18.252   9.721   1.085 -0.1958  0.3313 -0.1465
12086W        W32366   5.303   4.731   4.025  0.1080 -0.4977  0.3173
12087W        W32367   5.289   2.770   3.764  0.1158 -0.2527  0.2727
12088W        W32368   9.432  11.152  11.102  0.3254  0.1811  0.0700
12089W        W32369  11.321   9.109   1.232 -0.0832 -0.0609 -0.3460
12090W        W32370   5.695   2.482  14.045 -0.0666  0.3641 -0.2363
12091W        W32371  19.040   3.454   0.205 -0.1408  0.2096 -0.3318
12092W        W32372  14.616  18.010   0.179 -0.2312 -0.3160  0.2446
12093W        W32373   4.657   8.247   3.946 -0.0445  0.0399  0.0274
12094W        W32374  19.034   9.580  10.575  0.2035  0.5621 -0.2040
12095W        W32375   4.640   0.608  14.142  0.0095  0.1861  0.2287
12096W        W32376  11.509  10.954   1.418 -0.0079 -0.0015 -0.4188
12097W        W32377   2.453  11.209   2.312 -0.0299  0.0101 -0.0961
12098W        W32378   4.912  13.239   0.998 -0.2272  0.1401  0.0523
12099W        W32379  13.785  17.743   2.394  0.1072 -0.3041  0.1866
12100W        W32380  17.194  11.688   1.047 -0.2458  0.0937 -0.0335
12101W        W32381   2.409   2.877  12.358  0.1269 -0.0446 -0.4280
12102W        W32382  19.169   7.197   1.135 -0.0996 -0.1111  0.3233
12103W        W32383   0.755  13.019  11.738  0.0740 -0.0775  0.1548
12104W        W32384  17.838   8.650  13.299  0.0737  0.0299  0.0573
12105W        W32385   6.352  13.259  13.185 -0.3491 -0.1361 -0.1080
12106W        W32386   6.829  15.899   0.038 -0.1511  0.0799  0.2612
12107W        W32387  16.473  11.567   4.552  0.0836 -0.3168  0.1922
12108W        W32388  17.654  14.584   1.259 -0.1910  0.0410  0.1288
12109W        W32389   1.397  14.608  10.056  0.3657 -0.1482 -0.1151
12110W        W32390   5.432   8.362   2.234 -0.1007 -0.1405  0.0419
12111W        W32391   0.327   3.162  12.992 -0.1361 -0.0496  0.0113
12112W        W32392   2.218   5.763   0.092 -0.1556 -0.0640 -0.2586
12113W        W32393   8.859   4.316  12.676 -0.0148 -0.3090  0.1075
12114W        W32394   2.162   5.138   3.973 -0.1392  0.0014  0.2024
12115W        W32395  16.440  19.198   4.577 -0.0306  0.0745 -0.1124
12116W        W32396   2.708   3.420  13.475  0.0124 -0.0357  0.0940
12117W        W32397   6.885  18.316   1.724 -0.0235  0.3696  0.5721
12118W        W32398  15.306  10.136  11.357  0.0075  0.1472 -0.3919
12119W        W32399  18.727   0.797  13.319 -0.0204 -0.2986  0.2387
12120W        W32400   8.085   7.465  10.871 -0.2999  0.5892 -0.2271
12121W        W32401  16.204   7.710   9.994  0.2222  0.0693 -0.0046
12122W        W32402   0.408   6.889   0.094 -0.0272  0.3313 -0.1760
12123W        W32403  18.751   9.872  10.968 -0.3516  0.1703 -0.3045
12124W        W32404   6.259   9.017   3.145 -0.2811  0.1877 -0.0226
12125W        W32405  18.636   4.261  11.149  0.0335 -0.1359  0.0566
12126W        W32406  17.415   9.945   1.956  0.0994 -0.0113  0.2489
12127W        W32407  18.786  12.790  11.288  0.0225  0.0112 -0.3287
12128W        W32408   6.654   3.254   2.566 -0.5324 -0.0183 -0.0031
12129W        W32409   4.618   3.289  14.320  0.3389  0.0594  0.0926
12130W        W32410   4.847  15.162   0.272 -0.0196  0.3451  0.4200
12131W        W32411  19.338   4.784   2.213 -0.0138  0.1065 -0.0443
12132W        W32412   6.514  10.450   2.833 -0.0823  0.0467 -0.0983
12133W        W32413   3.655  11.510  13.478  0.0838 -0.1273 -0.2817
12134W        W32414  16.667  16.518   1.065  0.0289  0.2479 -0.4097
12135W        W32415   0.108   0.869  10.951  0.0159  0.1416 -0.1158
12136W        W32416   5.600   4.509   1.534 -0.1410  0.1420 -0.2364
12137W        W32417   0.776  10.353  12.778 -0.0855 -0.0046 -0.0008
12138W        W32418  18.525  11.108   1.604  0.2851 -0.2988 -0.1153
12139W        W32419  12.804  19.396   0.137 -0.1578 -0.1756 -0.2155
12140W        W32420   0.685  12.275   8.888 -0.0078  0.0915  0.1837
12141W        W32421  15.785   2.850   0.612  0.2593  0.2032 -0.1893
12142W        W32422   7.257   7.316   3.279 -0.1330  0.0404 -0.1554
12143W        W32423  10.720   0.990  13.606  0.1088  0.1323 -0.1891
12144W        W32424   7.398  17.861  11.855 -0.4291  0.2109  0.1319
12145W        W32425   0.898   8.399  12.856 -0.2452  0.0513 -0.1080
12146W        W32426  14.885  19.053   3.462  0.0821  0.0197 -0.2511
12147W        W32427  18.869  14.796  12.778  0.2179  0.3172  0.0541
12148W        W32428  12.369   4.449   4.139  0.0724  0.0214  0.1751
12149W        W32429  17.766   0.808   3.916 -0.1311  0.0187  0.1214
12150W        W32430   1.192   3.574   2.518 -0.1419 -0.1090 -0.2318
12151W        W32431  16.244   3.140  14.424 -0.0683  0.1690 -0.1811
12152W        W32432  16.694   9.008   9.465  0.4726 -0.0527  0.0217
12153W        W32433   9.935  10.665   3.154  0.0222  0.0727 -0.0670
12154W        W32434  18.306  17.832   3.487  0.1659 -0.0503  0.3330
12155W        W32435   2.952   5.964   1.696 -0.0419  0.3166 -0.0183
12156W        W32436   8.261  15.207  14.188 -0.0084  0.0959 -0.3074
12157W        W32437   5.268   9.010   1.451  0.0886 -0.0685  0.1573
12158W        W32438  13.618   9.879  11.880  0.0417  0.2749 -0.3964
12159W        W32439   3.398  17.395   3.324 -0.1538 -0.4050 -0.1188
12160W        W32440  17.612  14.985   0.787 -0.0511 -0.1588  0.1517
12161W        W32441  12.284  17.831  14.343 -0.0585  0.1667  0.1546
12162W        W32442   6.597  15.179  11.651  0.2630 -0.0565  0.0227
12163W        W32443  15.216  12.041  13.182  0.0312  0.0063  0.1990
12164W        W32444  14.246  15.584   1.507  0.2328 -0.1006  0.2894
12165W        W32445   7.696  12.468  14.420 -0.0466 -0.5377 -0.1891
12166W        W32446   8.654  16.459  13.666  0.0428 -0.3087  0.0061
12167W        W32447   8.222   0.423   1.598 -0.1723 -0.1357 -0.0942
12168W        W32448  19.031   9.319  12.417  0.1036  0.2230 -0.1674
12169W        W32449  18.999  11.976  10.887  0.0226 -0.1577 -0.0712
12170W        W32450   1.386  15.205   1.743 -0.2510 -0.1173  0.0108
12171W        W32451   3.472  12.003   2.596 -0.0474 -0.0573 -0.3268
12172W        W32452  11.078   1.879   4.299 -0.0987  0.1015  0.1397
12173W        W32453  17.707  11.729  14.034  0.1081  0.0212 -0.0368
12174W        W32454  18.833   9.282   3.158  0.2676 -0.1977 -0.0641
12175W        W32455  11.740  17.814   1.146 -0.2418 -0.0537 -0.1463
12176W        W32456   3.416   7.278   3.937 -0.0304 -0.3570 -0.0167
12177W        W32457   6.687  11.864  12.519  0.1837 -0.3967 -0.1321
12178W        W32458   0.603  18.802   2.648 -0.0401 -0.2260  0.0872
12179W        W32459   1.041  11.503  11.097 -0.2618 -0.0791 -0.0439
12180W        W32460  12.488  17.173  12.428  0.0271  0.0037 -0.0216
12181W        W32461  16.052   9.549  13.023 -0.1928  0.0450  0.2023
12182W        W32462  10.442   6.610  11.337  0.0219  0.2236 -0.0739
12183W        W32463   8.946  15.130   2.177  0.0481 -0.1182  0.1750
12184W        W32464   2.848   8.263  11.870 -0.1481 -0.2732  0.1149
12185W        W32465  15.219   1.562  11.228 -0.0780 -0.2003  0.1298
12186W        W32466  17.618   9.228   2.618 -0.0114 -0.2019  0.3347
12187W        W32467  17.572  18.002   3.168  0.1146  0.1764  0.1056
12188W        W32468  15.053  18.049  14.379 -0.4887 -0.0336  0.0295
12189W        W32469  16.863  18.587   3.428 -0.1507 -0.0858  0.1726
12190W        W32470   3.314   8.259   4.478 -0.3519 -0.1008  0.0166
12191W        W32471  12.272   5.870   2.902 -0.1677  0.2012  0.0182
12192W        W32472   1.599  12.724   2.460 -0.4196  0.1690 -0.0100
12193W        W32473   4.518   6.747  11.468  0.4206 -0.0591  0.0042
12194W        W32474  12.700  12.419  14.091  0.1406  0.1539  0.0503
12195W        W32475   8.935   1.975   0.481  0.0140  0.1068 -0.1154
12196W        W32476   3.141   0.859  11.244  0.2292 -0.0357 -0.0910
12197W        W32477   5.945  13.243   1.130 -0.1361  0.1678  0.3380
12198W        W32478  17.373   8.698  13.212  0.3808 -0.0811 -0.1365
12199W        W32479   6.417   9.160  10.155 -0.1034  0.2421  0.4598
12200W        W32480  15.373  10.946  12.945  0.0352  0.1626 -0.0978
12201W        W32481   2.035  13.884   2.476  0.3138  0.4591 -0.1311
12202W        W32482   9.471  12.665   1.398  0.1401 -0.1142 -0.1151
12203W        W32483  10.969  14.037  12.728 -0.1456  0.1452 -0.5401
12204W        W32484  18.702   3.157   3.044  0.0793  0.1371 -0.2422
12205W        W32485   0.801   2.517  14.242  0.0135 -0.3011 -0.2181
12206W        W32486  18.497   5.447  11.131 -0.2057 -0.3201 -0.1921
12207W        W32487  13.091  15.283   2.664 -0.1546  0.2015  0.1746
12208W        W32488  15.317  18.769  12.776  0.0065 -0.0799 -0.1114
12209W        W32489   2.435   5.066   1.868  0.1128 -0.1167 -0.2358
12210W        W32490  15.933  11.511  11.413 -0.0061  0.2361  0.0578
12211W        W32491  19.400   7.539   1.422  0.1856 -0.1395  0.0051
12212W        W32492  15.023  17.175  12.852 -0.1746  0.0164  0.0023
12213W        W32493  15.529  14.902   0.966 -0.1238 -0.2088  0.1263
12214W        W32494   5.703   5.450   3.947 -0.0443 -0.0165 -0.1109
12215W        W32495   6.343  16.911  12.453  0.0102  0.3081  0.0155
12216W        W32496  15.848   8.050   3.909  0.1771 -0.0653 -0.0080
12217W        W32497   4.574   8.119  11.453  0.0123 -0.1351  0.0704
12218W        W32498   9.807  15.402  12.565  0.1690 -0.1988  0.2589
12219W        W32499  14.477  17.810  14.142 -0.0275 -0.1693 -0.1897
12220W        W32500   5.745   4.408  13.029 -0.1120 -0.1192 -0.3556
12221W        W32501   6.653   5.444   3.774  0.0611 -0.1308  0.1599
12222W        W32502  13.779   3.000   2.221 -0.2088  0.0577  0.0786
12223W        W32503  13.932   6.938  13.551  0.3662 -0.1088  0.0068
12224W        W32504   5.078   9.928  11.609  0.1045  0.0430 -0.1929
12225W        W32505  17.725   6.283   3.000 -0.0506  0.0706 -0.1567
12226W        W32506  14.056  13.383   1.421  0.1196 -0.2601  0.0787
12227W        W32507   1.880  15.056  10.393 -0.0622 -0.0407 -0.3279
12228W        W32508  18.976  18.491   1.933  0.2250 -0.0606  0.1842
12229W        W32509  17.704  17.954   2.296  0.1513 -0.0417  0.0655
12230W        W32510   3.043   3.676  14.258  0.1046  0.0003 -0.0001
12231W        W32511   1.227   8.330  10.724  0.1933  0.0278 -0.2503
12232W        W32512  16.898   5.581  11.783 -0.1725 -0.0275 -0.3426
12233W        W32513   9.208   6.599   3.040 -0.0234  0.0468  0.2458
12234W        W32514   4.732  18.145  14.215  0.3293  0.1570  0.0140
12235W        W32515   2.235  12.282  14.422  0.0813 -0.0399  0.1994
12236W        W32516  12.578  13.429   3.144 -0.0545  0.2886  0.0418
12237W        W32517  19.217  19.306  11.347 -0.1074 -0.1893 -0.2268
12238W        W32518  11.926   7.155  11.461  0.0423  0.0677 -0.0364
12239W        W32519  11.411  11.264   3.219  0.4749  0.1039 -0.0537
12240W        W32520   2.973  16.714   2.156 -0.2754 -0.1636 -0.3927
12241W        W32521  12.122  14.380  11.737 -0.2665  0.2922  0.3658
12242W        W32522   7.006   3.458   2.034 -0.2995  0.0372  0.1991
12243W        W32523  17.384   0.561   0.462  0.0070  0.2187 -0.2701
12244W        W32524   9.947  13.671   4.691 -0.3209 -0.1216 -0.2181
12245W        W32525   6.366  15.517  10.610 -0.0684 -0.2514  0.0944
12246W        W32526   1.057  17.086   2.782 -0.0491 -0.2309 -0.1056
12247W        W32527   9.619  11.878  13.054  0.3745 -0.1480  0.0040
12248W        W32528   7.898  17.442  12.618  0.0133 -0.2712  0.2494
12249W        W32529   9.016   2.989  13.061  0.0464  0.1168 -0.3355
12250W        W32530   8.294   2.190   3.248 -0.1722 -0.0682 -0.0311
12251W        W32531   0.047   2.882  13.248  0.2033 -0.0315  0.0973
12252W        W32532   0.458  12.846   0.660 -0.0937  0.2614  0.0904
12253W        W32533   3.169  16.194   3.455 -0.1121  0.2172 -0.1100
12254W        W32534  12.620   8.660   0.843  0.0773 -0.4087  0.0231
12255W        W32535  13.125   0.622  13.863  0.2368  0.3590  0.3002
12256W        W32536   8.908  12.944  11.261  0.0318 -0.0455  0.4374
12257W        W32537   7.311  14.688  13.436 -0.3169 -0.0610 -0.0344
12258W        W32538  12.889   8.113  12.275 -0.1158 -0.1216 -0.0781
12259W        W32539  11.958   2.908  12.079 -0.0218 -0.0505  0.0889
12260W        W32540   0.534  13.407  10.777 -0.0348 -0.1353 -0.1761
12261W        W32541  17.565  14.980   4.144  0.3070 -0.1481  0.1603
12262W        W32542  11.835   3.376  12.089  0.1776 -0.0595  0.0897
12263W        W32543   4.802   3.419   0.328 -0.0579  0.1425  0.0140
12264W        W32544  18.529   1.458  10.811  0.1091  0.1142 -0.0322
12265W        W32545  10.719   8.798  13.114 -0.1280 -0.2107  0.1087
12266W        W32546  17.160  17.893  14.108  0.1329 -0.2432 -0.3273
12267W        W32547  10.920   4.786   2.671 -0.0459 -0.1654  0.2216
12268W        W32548  16.616  16.538   0.315  0.2364  0.0919 -0.0440
12269W        W32549   2.568  13.094  12.229 -0.2765  0.1359  0.1265
12270W        W32550  12.063   1.408   1.782  0.0602  0.2982  0.2370
12271W        W32551   7.989  10.937  13.106  0.0308  0.1437 -0.0876
12272W        W32552  12.385   6.021   1.401 -0.0542 -0.0779  0.3383
12273W        W32553  16.360   5.315   2.583  0.1599  0.0095 -0.3525
12274W        W32554   7.003   9.915   2.213 -0.0586 -0.2249 -0.0458
12275W        W32555   3.541  17.632  12.059 -0.2751 -0.2828 -0.2104
12276W        W32556   2.594  15.682  11.276 -0.2240  0.3231 -0.1655
12277W        W32557  19.014   0.541  14.079 -0.1319  0.3147 -0.1516
12278W        W32558  16.205   9.359   0.590  0.1320 -0.0049  0.1296
12279W        W32559   3.429  17.081   1.357  0.0032 -0.0286  0.0481
12280W        W32560  17.941  15.773  12.389 -0.1041 -0.0317 -0.2591
12281W        W32561   8.118  17.848  12.827  0.0495 -0.0536 -0.0108
12282W        W32562   0.042  12.051   1.634  0.3981  0.0707  0.1161
12283W        W32563   8.136   7.253   4.472 -0.0559 -0.0228 -0.1985
12284W        W32564   0.654   7.313   2.177 -0.3821 -0.0932 -0.1015
12285W        W32565   4.719  12.539   9.667 -0.0620 -0.2758  0.1795
12286W        W32566   2.305  14.239   4.663  0.1369  0.0438 -0.3553
12287W        W32567   3.266   6.550  13.069  0.1085 -0.1252 -0.1383
12288W        W32568  15.697   0.844  12.419  0.2193  0.4066  0.0743
12289W        W32569  13.138  10.810  13.645 -0.1252  0.0454  0.1613
12290W        W32570   9.668  10.291  13.044 -0.0196  0.1461 -0.0879
12291W        W32571  11.506  13.605   0.924 -0.2017 -0.2018 -0.3299
12292W        W32572  10.531  16.421   9.491 -0.0909  0.0844  0.1241
12293W        W32573   2.632  14.205  12.312  0.0023  0.1138  0.0923
12294W        W32574   2.032  19.109  12.649 -0.0595  0.2345  0.0289
12295W        W32575  18.294  12.390   1.600  0.2519 -0.0675  0.0433
12296W        W32576   5.416  14.940  12.313 -0.2987 -0.2596  0.4416
12297W        W32577   9.978   7.229   1.690 -0.1887  0.3212  0.2187
12298W        W32578   6.622  16.576   3.674  0.0481  0.0795  0.0013
12299W        W32579  12.042   7.319  13.394 -0.0495  0.1728  0.2037
12300W        W32580   9.266  17.086  13.358 -0.4218 -0.2861  0.1979
12301W        W32581  10.198   6.336  11.728  0.1217  0.0959  0.1861
12302W        W32582  10.498  19.348   0.151 -0.2533  0.2505  0.2845
12303W        W32583  12.262  13.812  13.745  0.3312  0.1167  0.2941
12304W        W32584  10.951  10.677  13.966 -0.1422  0.0387 -0.0804
12305W        W32585   4.357   1.424  14.179 -0.0092  0.0138 -0.0710
12306W        W32586  16.196   1.550  12.043 -0.1726  0.2998  0.2281
12307W        W32587   6.879  16.827   3.180  0.0245  0.3170 -0.2807
12308W        W32588  13.760   9.268  13.801 -0.0484 -0.4493 -0.0520
12309W        W32589   1.200   1.664  12.392  0.1926 -0.2055 -0.1192
12310W        W32590  10.983   0.263   0.807  0.1672 -0.1017 -0.1762
12311W        W32591   2.202  12.227   3.355 -0.0877 -0.1855 -0.0471
12312W        W32592  12.414  14.879   2.216  0.1231  0.2611 -0.2725
12313W        W32593   4.470   0.771  12.590  0.0579  0.0386  0.3999
12314W        W32594  14.498   2.711   9.201  0.0215  0.1568 -0.0149
12315W        W32595   1.151  11.550  10.533 -0.0022 -0.1016  0.0511
12316W        W32596  15.657  10.782  11.148 -0.0695  0.1005 -0.1072
12317W        W32597  14.160  15.448   4.551 -0.0432  0.1394 -0.0410
12318W        W32598  18.997  18.270   3.860 -0.0877 -0.0459  0.0944
12319W        W32599   1.715   7.913  13.348 -0.3443  0.3485 -0.0082
12320W        W32600  12.464   7.093   0.120  0.0619 -0.0495  0.0704
12321W        W32601   4.576   9.896  11.367  0.0825  0.1267 -0.1459
12322W        W32602   8.094  12.306   4.119  0.4188 -0.2384 -0.0692
12323W        W32603  14.914  10.659   3.337 -0.1731  0.1471  0.1415
12324W        W32604   4.410  15.718  12.574  0.0124 -0.3176 -0.0850
12325W        W32605   4.907   2.916  12.214 -0.0692 -0.1107 -0.2019
12326W        W32606  17.756   0.305   3.950 -0.0501  0.0436  0.0234
12327W        W32607   7.627   1.961   2.233 -0.0332 -0.0189 -0.2374
12328W        W32608  12.912   3.835  10.661 -0.1926 -0.0793  0.0041
12329W        W32609  15.123  18.131   3.709  0.0040  0.3351 -0.0769
12330W        W32610  16.979   5.021   1.176  0.2299  0.0302  0.1347
12331W        W32611  17.317   8.354  13.658  0.1734  0.2678 -0.1143
12332W        W32612   5.548   6.197   3.224  0.0481  0.0242 -0.1009
12333W        W32613  12.797   4.691  11.156 -0.0602 -0.1293 -0.0764
12334W        W32614  13.872  13.218  11.598 -0.1512  0.3609 -0.2825
12335W        W32615   6.717  13.705  14.016  0.0846  0.0436 -0.2537
12336W        W32616  10.473  15.131  13.212 -0.0268  0.2840 -0.0155
12337W        W32617  15.020   1.660  13.397  0.1743  0.1382  0.1365
12338W        W32618  13.855  15.853  11.335  0.1949 -0.0784  0.0448
12339W        W32619  13.219  13.942   0.472 -0.0545  0.2207  0.0941
12340W        W32620   8.530   0.170  12.748  0.0432  0.2206  0.0298
12341W        W32621  12.116  15.883   2.368 -0.0337  0.0611  0.0047
12342W        W32622  18.337  19.066   1.231  0.3550 -0.3152  0.2295
12343W        W32623   4.986   5.151  13.925 -0.0329 -0.1235  0.1347
12344W        W32624   1.330  15.856   1.971 -0.3172 -0.1667  0.1622
12345W        W32625   6.858   5.799   4.117 -0.0166 -0.0161 -0.0194
12346W        W32626  14.648  17.273   1.888  0.3390  0.2170  0.2802
12347W        W32627   1.485   7.275   3.168 -0.2070  0.1791  0.0158
12348W        W32628  18.070  17.874  13.024 -0.3878 -0.0346 -0.2729
12349W        W32629   0.711   1.554   0.388 -0.0167 -0.1057 -0.0281
12350W        W32630  17.755   4.054  10.594  0.0152  0.2053  0.0719
12351W        W32631  11.921  12.895   3.166 -0.1018 -0.0416  0.0816
12352W        W32632   3.802   7.377   1.626 -0.1217 -0.0619  0.1271
12353W        W32633  15.472  17.258  13.514  0.0856  0.3162 -0.5331
12354W        W32634   9.348  19.289  12.799 -0.0945  0.1731 -0.0778
12355W        W32635  17.284   3.230   0.062  0.0276  0.0004  0.3578
12356W        W32636  17.135   0.278   3.613  0.0174  0.1415 -0.1727
12357W        W32637   3.005   4.306  12.982 -0.2060  0.1295  0.0752
12358W        W32638  15.424   3.111  11.970  0.0826  0.2707 -0.2164
12359W        W32639   4.798  14.321  14.435 -0.2256 -0.0873 -0.0848
12360W        W32640   9.581   7.581   3.511 -0.1623  0.2363  0.0979
12361W        W32641   9.746   4.498  12.938  0.1021  0.0161 -0.0274
12362W        W32642   4.157   5.354   0.634 -0.1267  0.1961  0.1322
12363W        W32643  16.142  10.462   0.413 -0.1432 -0.0454 -0.3425
12364W        W32644   5.544  17.103   2.897  0.0436 -0.1392 -0.1345
12365W        W32645  12.874   1.335  12.060 -0.2403  0.0319 -0.2889
12366W        W32646   7.271  15.790   0.690 -0.0217  0.1015  0.2233
12367W        W32647   6.229   1.027  12.808  0.1099  0.1459 -0.0530
12368W        W32648  11.480   7.875   1.126 -0.1467 -0.2562  0.4939
12369W        W32649   4.417  16.137  10.713 -0.1183  0.2335  0.0340
12370W        W32650  13.503  14.882  11.236 -0.1225  0.3553 -0.0885
12371W        W32651  12.657  10.195   2.829  0.1108 -0.0491 -0.0169
12372W        W32652  16.109  14.904   0.512  0.4359 -0.0319 -0.0985
12373W        W32653   0.221  19.427  12.173  0.2028 -0.0551  0.2114
12374W        W32654  16.165  17.379   2.933  0.1137 -0.0181  0.1950
12375W        W32655   3.952  17.646   3.330 -0.0239 -0.0074 -0.0723
12376W        W32656   9.433   5.536   1.160 -0.0746  0.2078 -0.0904
12377W        W32657   0.769  10.498   2.319  0.0253  0.1915 -0.2481
12378W        W32658  13.699  17.122   0.273  0.1757  0.0676  0.2037
12379W        W32659  17.917  16.851   0.019 -0.0577 -0.3900  0.2686
12380W        W32660   7.684  10.260   4.696  0.0879 -0.0450 -0.2324
12381W        W32661   8.351   3.324  14.015  0.0560  0.0402 -0.2897
12382W        W32662  19.274   5.454   1.209 -0.2932  0.0720 -0.2243
12383W        W32663  11.414  16.751   4.565  0.0983 -0.3645 -0.1580
12384W        W32664   6.287   2.872  11.701  0.1625  0.0236  0.0370
12385W        W32665  12.402   1.949   0.391 -0.1582 -0.2866  0.1517
12386W        W32666  12.204   2.086  12.505  0.1844  0.3687  0.1312
12387W        W32667   4.618  17.691  11.449 -0.2846 -0.0629 -0.2022
12388W        W32668   7.599  10.567  10.854 -0.0334 -0.0921  0.1748
12389W        W32669   0.121   6.463   0.768  0.1501 -0.1145 -0.0648
12390W        W32670   8.455  16.496  13.093  0.0473  0.1730 -0.2227
12391W        W32671  16.577   4.814  12.196 -0.1063  0.2072  0.3701
12392W        W32672   2.246   9.163  12.940  0.0270  0.1287 -0.2375
12393W        W32673  17.998  15.839   4.427 -0.2203  0.0582 -0.0964
12394W        W32674  19.057   8.198  10.156  0.0440  0.1452 -0.1330
12395W        W32675   5.130  15.550   1.650 -0.0736  0.0164  0.3130
12396W        W32676  17.018   7.655   2.153  0.1778 -0.1191 -0.2516
12397W        W32677   9.442   3.944   0.476 -0.2956 -0.1087  0.0573
12398W        W32678   1.670  14.677  11.249  0.1667 -0.0891 -0.0253
12399W        W32679   7.134  15.081   1.021  0.1284  0.4144 -0.0227
12400W        W32680   1.680  11.291  13.406 -0.0251 -0.2143 -0.2403
12401W        W32681  17.666  17.558   2.840  0.2750 -0.3666 -0.0342
12402W        W32682   0.689  18.487   0.846 -0.1463  0.0917  0.0564
12403W        W32683   5.126  14.621  11.697  0.0188 -0.2038 -0.1638
12404W        W32684  11.144  10.312   0.713 -0.0348 -0.2117 -0.0535
12405W        W32685   2.478   4.815   4.136  0.0615 -0.0831 -0.3691
12406W        W32686  16.659   1.499  13.784  0.0504  0.1992 -0.3436
12407W        W32687   0.432   4.809   1.191 -0.1887 -0.0064 -0.0235
12408W        W32688  15.690   6.495  12.567 -0.1732  0.1380  0.3466
12409W        W32689   4.434   6.846   1.092  0.1907 -0.0777  0.3229
12410W        W32690  14.732   1.479  10.133  0.2980  0.1038  0.1553
12411W        W32691   9.790   2.062   0.184 -0.1536  0.4211  0.1795
12412W        W32692   8.661   1.050  13.363  0.0611  0.0438  0.1198
12413W        W32693   7.671   8.665   3.712 -0.1101  0.2388 -0.2129
12414W        W32694  12.462  11.767  14.410 -0.2817 -0.1502 -0.3168
12415W        W32695  11.706   9.006  10.592  0.1433 -0.0800  0.2569
12416W        W32696  12.866   0.361  10.199  0.0828  0.2449 -0.1599
12417W        W32697  18.672  14.646  12.299 -0.2041  0.2113  0.0722
12418W        W32698   0.985  13.163   1.850 -0.2299  0.1946 -0.0826
12419W        W32699  15.512   0.771   2.955  0.0997  0.0616 -0.1192
12420W        W32700   4.015  18.069   2.981  0.0351  0.1626  0.1686
12421W        W32701   3.637  13.562   8.701 -0.0433  0.1077 -0.3207
12422W        W32702   9.714   2.325   3.649  0.0121  0.0640 -0.3798
12423W        W32703  12.902   8.742  11.912  0.3660  0.3942  0.1342
12424W        W32704   5.089   4.031  12.476  0.1223 -0.2904 -0.1128
12425W        W32705   5.609   9.090  11.523  0.1487 -0.0008  0.2237
12426W        W32706  16.100   8.046   2.707  0.0996 -0.1264  0.3913
12427W        W32707  16.126   2.685  13.386  0.0719  0.0219 -0.2825
12428W        W32708   4.868  14.646   3.422  0.0275  0.0354  0.0655
12429W        W32709  14.650   9.291   0.889  0.2293  0.5127 -0.0775
12430W        W32710   1.812   3.756   1.647  0.0604 -0.0715 -0.1079
12431W        W32711   8.355   3.201   0.007  0.1774 -0.1364  0.1465
12432W        W32712   7.968  10.839   2.008 -0.0615  0.1000 -0.0767
12433W        W32713  16.376  19.293  14.302 -0.0487 -0.3852  0.0780
12434W        W32714   5.359   9.674   1.364  0.2693 -0.0961 -0.1861
12435W        W32715   5.205   9.817  10.151  0.2401  0.0461 -0.0449
12436W        W32716   1.036  14.701  11.492 -0.1353 -0.1466 -0.0089
12437W        W32717  10.839  11.499  12.344 -0.4227 -0.2591  0.0646
12438W        W32718   6.646  13.689  10.434  0.1357 -0.0149 -0.0839
12439W        W32719   8.703  10.536  12.016 -0.3187 -0.2396  0.3964
12440W        W32720  10.936  18.291   2.261  0.1559 -0.1339  0.1032
12441W        W32721  10.398   8.464   0.090  0.0560  0.0070 -0.0083
12442W        W32722   9.432  13.513  14.051 -0.1867 -0.2090 -0.1897
12443W        W32723  11.623   8.708  13.231 -0.3303 -0.2020 -0.4381
12444W        W32724  16.956   9.004   2.162  0.3505 -0.1794 -0.2361
12445W        W32725   4.974  12.318  13.275  0.0045 -0.0267  0.3414
12446W        W32726   1.050   4.039   3.528 -0.1055  0.2295  0.2068
12447W        W32727  13.484   1.809  10.440 -0.5859  0.2522 -0.1223
12448W        W32728   4.790   4.052   3.406 -0.5830 -0.0384  0.0471
12449W        W32729  13.296   3.800  10.263 -0.1980  0.4387 -0.0370
12450W        W32730   1.474  15.554   4.148 -0.3086 -0.1029  0.0345
12451W        W32731  15.930  13.671  11.742  0.0666 -0.0118 -0.0433
12452W        W32732   1.408  18.729  12.375  0.4485 -0.0486 -0.0364
12453W        W32733  15.875   6.388   2.046  0.3158  0.1115  0.0396
12454W        W32734   9.130  16.183  13.658  0.2004  0.0272  0.0175
12455W        W32735   3.352   2.201   1.585 -0.2518 -0.0475 -0.0571
12456W        W32736   8.431   0.951   4.486  0.0102  0.1003  0.1871
12457W        W32737   5.282  10.910  11.816  0.0950  0.0037  0.1844
12458W        W32738   8.524  18.058   2.853  0.1252  0.0684  0.1069
12459W        W32739  18.806   2.239   2.082 -0.0879 -0.0990 -0.0930
12460W        W32740  16.834   7.811  13.115 -0.1970 -0.0548 -0.0056
12461W        W32741  13.203  18.519   0.842  0.0192 -0.1459  0.0007
12462W        W32742  13.429  10.305   3.557  0.0851 -0.1357 -0.1987
12463W        W32743   5.204  14.291  13.573  0.1628  0.2017  0.0652
12464W        W32744  15.032  16.748   0.184  0.0290  0.0556 -0.1354
12465W        W32745   6.803  15.577   0.424  0.1167  0.1387 -0.3180
12466W        W32746  11.810  18.458   3.935  0.1467  0.2814 -0.1736
12467W        W32747   2.475  11.017  14.483 -0.0612  0.3007  0.0409
12468W        W32748   8.452  13.719   0.804  0.0954 -0.0452 -0.1982
12469W        W32749  10.911   7.698   4.637 -0.3142  0.0067  0.1526
12470W        W32750   4.774  17.261   1.961  0.0495  0.0602  0.1154
12471W        W32751   5.632  12.819  12.670  0.0279 -0.1589 -0.0029
12472W        W32752  15.369   9.035   0.247  0.1653 -0.2457  0.2913
12473W        W32753   5.014  10.927  10.466 -0.2193 -0.1129  0.1272
12474W        W32754   6.286   0.794   3.290  0.1448  0.0306 -0.1829
12475W        W32755   8.425   7.495  12.200 -0.2011 -0.4258 -0.0905
12476W        W32756  10.416   1.858  10.685  0.1142  0.1674 -0.0700
12477W        W32757  12.978   1.101   3.881 -0.1139 -0.1286  0.0244
12478W        W32758   1.570   8.680  12.545 -0.1239 -0.0535 -0.1125
12479W        W32759  11.811  15.406   1.406 -0.2592  0.1829 -0.3716
12480W        W32760  12.236   8.648  13.131  0.0704  0.0166  0.2571
12481W        W32761  11.410   0.388   4.604  0.0476  0.0023 -0.0974
12482W        W32762   7.528  16.469   1.831 -0.1646 -0.1539 -0.0729
12483W        W32763  12.681  11.894  12.596 -0.1748 -0.1887  0.0307
12484W        W32764   1.409  13.611  11.189 -0.0093  0.1424  0.2471
12485W        W32765  11.669   1.942   4.378 -0.2123 -0.0534 -0.0995
12486W        W32766   9.582   3.522   1.394  0.1048 -0.2065 -0.1680
12487W        W32767   2.900   4.785   2.804  0.2610 -0.2128 -0.0642
12488W        W32768   5.543   6.148   0.113 -0.0712  0.1388 -0.1112
12489W        W32769  15.107  16.240   1.457  0.1033 -0.1757  0.0342
12490W        W32770   5.823   4.060   1.694  0.2630 -0.0224 -0.0440
12491W        W32771  17.914   9.117   0.325 -0.0885  0.2290  0.0422
12492W        W32772   6.388  18.377  12.391  0.0643  0.2163 -0.1740
12493W        W32773  13.302   8.872  14.012  0.0372  0.3911  0.2486
12494W        W32774  19.170  14.853   0.625  0.2610  0.1354  0.0177
12495W        W32775  14.266  13.574  13.495 -0.0018  0.0571 -0.1053
12496W        W32776  13.543  16.623   3.907 -0.1309 -0.1401 -0.0590
12497W        W32777  16.123  12.550  10.610 -0.2026  0.1306  0.0745
12498W        W32778   7.442  11.295   3.828 -0.0608 -0.1632  0.2076
12499W        W32779  18.935   9.630   1.866 -0.1101  0.0505  0.0361
12500W        W32780  18.982  17.571  13.504 -0.0251 -0.0879 -0.1817
12501W        W32781  15.214  13.974  14.495  0.0079 -0.1023 -0.1062
12502W        W32782  18.357   9.191  11.517  0.0468  0.1112 -0.4774
12503W        W32783  14.096  15.359  14.229  0.3385  0.0876  0.0560
12504W        W32784  17.065  13.747  13.577  0.3899  0.0364  0.4286
12505W        W32785   9.231  15.050   1.757 -0.0557 -0.3919  0.3450
12506W        W32786   4.631  13.461  10.238  0.1172 -0.1618 -0.1870
12507W        W32787  17.841  14.182  12.521 -0.0832  0.0017  0.1030
12508W        W32788   4.069  12.613   1.116  0.1627  0.1977 -0.2016
12509W        W32789  10.566  18.276   2.715  0.1775  0.4555  0.1251
12510W        W32790   5.828   1.909  13.308  0.0929 -0.1364 -0.3662
12511W        W32791  12.508   3.252   0.779 -0.0581 -0.0079 -0.0848
12512W        W32792   0.520   4.086   3.510 -0.0554  0.0677  0.0096
12513W        W32793   7.620   1.961  12.098 -0.2389  0.1861  0.1422
12514W        W32794  16.078   0.256   2.320  0.1785  0.0245 -0.0663
12515W        W32795   7.754   4.492  10.617  0.3802  0.0430 -0.0237
12516W        W32796  18.706   6.859   0.588 -0.0129 -0.3009 -0.3106
12517W        W32797  13.786   5.325  14.329 -0.0445 -0.2693 -0.1558
12518W        W32798  18.067  16.022   2.065  0.2210 -0.0232 -0.3077
12519W        W32799  16.358   0.185   4.850  0.1297 -0.2849  0.2193
12520W        W32800  17.745  16.547   3.603  0.0273  0.0007 -0.0834
12521W        W32801   0.461  17.269  12.357 -0.1305 -0.0082 -0.1265
12522W        W32802  17.700   0.696  10.098 -0.0368 -0.1354 -0.4154
12523W        W32803  18.302  13.174   2.175  0.5851  0.4233 -0.1007
12524W        W32804   1.588   0.079   2.019  0.0890  0.4258  0.0616
12525W        W32805  10.208   9.373   1.139 -0.2534 -0.0169  0.2695
12526W        W32806  19.095   8.850   0.151  0.3828 -0.0474  0.1552
12527W        W32807   6.848   2.625  13.750  0.0814  0.0735  0.0245
12528W        W32808  12.883  10.933  12.155 -0.1667 -0.1097 -0.0253
12529W        W32809  10.421   4.442  10.934  0.1977 -0.1586 -0.1382
12530W        W32810   5.801  10.270  14.000  0.0378  0.1376 -0.0421
12531W        W32811  10.967   9.840   3.981  0.0565 -0.2020  0.0476
12532W        W32812  16.554  10.238   0.557  0.2308  0.0074 -0.2101
12533W        W32813   7.187  19.122   2.562  0.0686  0.0049 -0.0916
12534W        W32814  14.698  16.837  13.931 -0.1767 -0.0038 -0.1951
12535W        W32815   0.806   6.143   2.914 -0.0217 -0.0127 -0.1580
12536W        W32816   7.738   2.112   4.162 -0.1372 -0.0927  0.0553
12537W        W32817   6.229  10.412  13.203 -0.2315 -0.2476 -0.2533
12538W        W32818  18.539   1.935  11.128 -0.0725 -0.1791 -0.1721
12539W        W32819  10.486   5.805   3.643  0.1268  0.0995  0.2095
12540W        W32820  16.328  14.126  14.030 -0.0336 -0.1647  0.0889
12541W        W32821   9.599   1.584   0.217  0.1306 -0.1891 -0.1978
12542W        W32822  18.902  16.861  12.083 -0.0139  0.1387 -0.0937
12543W        W32823  13.352   0.695  13.067 -0.0495 -0.1077  0.0520
12544W        W32824   6.656  17.790   2.364 -0.2481 -0.1245 -0.2285
12545W        W32825  10.307   2.498   3.235 -0.1097 -0.4158  0.2930
12546W        W32826   4.542  16.714   3.192  0.0092  0.0205 -0.1736
12547W        W32827   7.991  11.117  10.211  0.2706  0.0831  0.1066
12548W        W32828  14.571   9.097  13.253  0.0114  0.1136  0.0877
12549W        W32829   2.712   6.022  11.907 -0.0724 -0.0215 -0.0693
12550W        W32830  15.218  19.371   0.469 -0.0717  0.1903  0.0369
12551W        W32831   4.919   6.891   1.031 -0.0664  0.1831  0.0284
12552W        W32832  10.123   9.992  10.640 -0.1061  0.2544 -0.0711
12553W        W32833  13.713  11.346  13.932 -0.0278 -0.0476 -0.0727
12554W        W32834  12.943   3.763   2.180  0.1733  0.2072 -0.3700
12555W        W32835   7.674   0.581   5.098  0.0919  0.0965 -0.4110
12556W        W32836  15.885   0.448   4.729 -0.1036 -0.2702 -0.0892
12557W        W32837   3.787   9.377   2.927 -0.1237 -0.1639 -0.0908
12558W        W32838   5.086   7.831  11.216  0.1109 -0.2917  0.0322
12559W        W32839   1.866   5.459   3.823  0.0542  0.0503  0.0158
12560W        W32840   2.669  11.114   2.801 -0.2443  0.1172  0.0060
12561W        W32841  16.178  12.259  11.087 -0.3508 -0.0176  0.0334
12562W        W32842   6.242   2.732   3.074  0.0311 -0.1890  0.0384
12563W        W32843  16.438  18.093   2.403  0.2269 -0.0661  0.1464
12564W        W32844  13.637  13.002   0.606 -0.0626 -0.1605  0.1426
12565W        W32845   4.708  13.599   1.447  0.1687 -0.0676 -0.0341
12566W        W32846  16.605   9.199   2.542  0.1210  0.0228  0.1351
12567W        W32847  11.502   1.497   0.646 -0.1803 -0.2393 -0.0922
12568W        W32848   8.124   7.873  14.453 -0.0570 -0.1322 -0.1464
12569W        W32849  16.802  10.707   1.343  0.6799  0.0941  0.0244
12570W        W32850  16.357   6.431  12.984 -0.2686  0.1252  0.2626
12571W        W32851  13.348  13.153  11.825  0.0917  0.2520  0.0597
12572W        W32852  19.334   3.769   0.617  0.1498  0.0957 -0.1620
12573W        W32853  10.216   8.523  11.582 -0.4149 -0.1244 -0.2047
12574W        W32854   6.438   5.549  11.130  0.2784  0.3192  0.1630
12575W        W32855  11.364  14.825  12.328 -0.0972  0.2977  0.0093
12576W        W32856   6.682  16.467  13.308 -0.1692 -0.1582  0.0766
12577W        W32857   1.874  14.529  10.141 -0.2457 -0.1614  0.1193
12578W        W32858  12.188   7.919  10.128  0.2468  0.0510 -0.1661
12579W        W32859  16.364  11.806   2.100  0.0284  0.2333 -0.2115
12580W        W32860  13.418   2.689   1.558  0.2337 -0.0044 -0.2733
12581W        W32861   3.729  14.324   0.895 -0.1352 -0.0637 -0.2590
12582W        W32862   7.910   4.002  11.327 -0.3240 -0.2928 -0.2794
12583W        W32863   3.473  16.771   2.233 -0.0408 -0.0301 -0.1325
12584W        W32864   1.366  11.745   2.501 -0.1993 -0.1896  0.1214
12585W        W32865  12.901   7.131   3.775 -0.2118  0.0693 -0.3383
12586W        W32866   6.586   0.608   2.317  0.1385 -0.1681 -0.2688
12587W        W32867   1.615  18.573   1.016 -0.1546 -0.4740  0.0294
12588W        W32868   7.735  14.271  10.589 -0.1605  0.1452  0.1665
12589W        W32869  18.740  19.418  12.540 -0.2358  0.1449  0.2408
12590W        W32870  12.617   2.587   3.701  0.1714 -0.2199  0.2747
12591W        W32871   8.888  17.522   0.778  0.2606 -0.1511 -0.3639
12592W        W32872   9.287   9.351   3.843  0.1433  0.4795 -0.1159
12593W        W32873  13.195  11.174   1.829 -0.0386 -0.2369 -0.0347
12594W        W32874  19.141  10.452  10.283  0.0543 -0.0955 -0.2480
12595W        W32875   9.518   6.683   0.528  0.0817 -0.1092 -0.1136
12596W        W32876   1.878  12.276   0.863  0.0016  0.0524  0.0510
12597W        W32877   8.713  18.564  11.804  0.0952 -0.2013  0.0404
12598W        W32878  10.701  10.188   3.474 -0.0909  0.1330  0.1387
12599W        W32879  18.957  16.329  12.731  0.0250  0.1349 -0.1914
12600W        W32880  14.212   8.297  10.778 -0.3337  0.1955 -0.0012
12601W        W32881   5.568   2.368  13.371 -0.1570 -0.3548  0.1093
12602W        W32882   9.703  15.839   3.148 -0.1068  0.1264  0.1202
12603W        W32883   4.552  10.152  12.502  0.1960 -0.3075  0.1865
12604W        W32884  14.845  18.278   2.361  0.0668 -0.1042 -0.0556
12605W        W32885  18.906   7.032  11.958 -0.0690 -0.2286 -0.0111
12606W        W32886  10.754   2.768  11.447 -0.1953  0.0467 -0.0139
12607W        W32887   4.622   5.508   1.195 -0.1561 -0.3428 -0.2214
12608W        W32888  19.319   0.213   1.252 -0.2594  0.1295  0.3596
12609W        W32889  15.456  17.077   0.966 -0.2579  0.0837 -0.1966
12610W        W32890   4.740   9.079  13.732  0.1423 -0.1209  0.0028
12611W        W32891   5.149  15.115  12.690  0.0898  0.0141 -0.2785
12612W        W32892  16.382   1.807   0.740  0.3045  0.1049 -0.0407
12613W        W32893  16.640  18.029  13.259  0.1394  0.0501 -0.3072
12614W        W32894   6.882  17.793  14.006 -0.3089  0.4614 -0.1753
12615W        W32895   4.414  15.959   2.633  0.0918  0.0493 -0.3703
12616W        W32896  13.015  16.539  13.432  0.1373 -0.0615 -0.4174
12617W        W32897  10.332  13.193   0.464 -0.1326 -0.1839 -0.1117
12618W        W32898  15.599   5.390  11.308 -0.3152 -0.0239  0.0510
12619W        W32899   3.912   1.221  10.872 -0.2854 -0.0836 -0.0027
12620W        W32900   0.885   5.967  12.227  0.0362  0.2708 -0.3773
12621W        W32901   2.704   9.915  11.302 -0.1478  0.2212 -0.1834
12622W        W32902  11.557   7.415   3.511 -0.1016 -0.0069  0.0567
12623W        W32903   4.246   0.631   4.790  0.2666 -0.0993  0.1233
12624W        W32904   0.804   8.462   3.039  0.0238  0.0785  0.3349
12625W        W32905   1.953   4.591   2.916 -0.1478 -0.0776  0.1984
12626W        W32906  10.151  13.307   1.665  0.3426  0.1752 -0.1237
12627W        W32907  12.097   9.455   1.314  0.2629  0.2111 -0.1468
12628W        W32908  11.015   2.307  12.403  0.3471 -0.0290 -0.1276
12629W        W32909  10.480   1.293   0.430 -0.1148  0.0844 -0.0030
12630W        W32910   1.153  13.713   1.234  0.0245 -0.3952  0.3576
12631W        W32911   1.246   8.177   9.751  0.0180  0.0949 -0.2039
12632W        W32912  13.016  10.993  11.337  0.0957 -0.0742  0.1528
12633W        W32913  11.488  15.537  13.689 -0.0682  0.2317 -0.3205
12634W        W32914  17.461   7.235  11.643  0.0442 -0.0521 -0.0263
12635W        W32915   2.385  18.272  11.520 -0.1224 -0.3398  0.0952
12636W        W32916  17.001   4.372  13.240  0.2592  0.0282 -0.3309
12637W        W32917   5.534   8.098   1.857  0.2809 -0.2970  0.0810
12638W        W32918   4.470   8.621   2.635  0.0563  0.0811  0.0056
12639W        W32919  12.395  16.562   2.809  0.0105 -0.1786  0.0314
12640W        W32920   4.102  18.861  10.128 -0.2922 -0.0050  0.0742
12641W        W32921   6.836   8.432   3.437  0.0408  0.0319  0.0807
12642W        W32922   1.973   0.570   3.072 -0.2435 -0.0599  0.0568
12643W        W32923   4.925  17.719   2.743  0.0319 -0.0874 -0.2241
12644W        W32924   3.531   7.711   2.278  0.0996 -0.0437  0.1780
12645W        W32925  18.226  13.169   1.369  0.0085  0.1510 -0.3877
12646W        W32926  10.020   9.539   3.332  0.0573 -0.1370 -0.2033
12647W        W32927   5.696   5.647  11.988  0.1462 -0.0384 -0.1077
12648W        W32928   4.926   5.530  13.569  0.0965  0.1044  0.1625
12649W        W32929  16.970   3.241   1.092  0.3570  0.1508 -0.0416
12650W        W32930   0.538  18.386   3.055  0.0406  0.1636 -0.1117
12651W        W32931  19.147   2.317  13.972 -0.0053 -0.2121  0.0448
12652W        W32932   0.174  13.508   2.137  0.3346  0.3012 -0.2262
12653W        W32933  10.070  11.667  11.262  0.0631 -0.1529  0.0841
12654W        W32934   9.728   7.266  12.511  0.2107 -0.0473 -0.1441
12655W        W32935  17.642   2.209  14.349 -0.2386  0.2181 -0.0533
12656W        W32936   5.850   2.913  13.849 -0.1514 -0.1721 -0.0767
12657W        W32937   1.633   7.367  13.981  0.1415 -0.1626  0.2093
12658W        W32938   5.380   5.215   2.302  0.1869  0.2583  0.2287
12659W        W32939   8.199   9.863   3.146  0.0280  0.2308  0.0439
12660W        W32940  18.355  16.903   0.801 -0.0653 -0.1064  0.0609
12661W        W32941  10.255  18.480  10.926  0.0572  0.0486  0.0491
12662W        W32942   7.336   8.833   2.818 -0.2122 -0.0022  0.1799
12663W        W32943   7.154   4.533  11.261  0.0258  0.1171  0.1450
12664W        W32944   5.390   1.692   1.636 -0.3044  0.2456  0.1180
12665W        W32945  11.397  15.695   3.337  0.1058 -0.1555 -0.0867
12666W        W32946   3.343   0.082   3.779 -0.0048  0.2604  0.3147
12667W        W32947   9.544   4.021   3.865  0.3737 -0.0255 -0.2394
12668W        W32948   5.005  13.309  11.548  0.0977  0.0104 -0.2411
12669W        W32949  19.308  13.431   3.366 -0.2675  0.0743  0.3480
12670W        W32950   4.170   4.030  12.565  0.0732 -0.2354 -0.2685
12671W        W32951   7.871   6.045   0.799 -0.0502 -0.0157 -0.1404
12672W        W32952  15.603  17.272   3.000 -0.1551 -0.1089 -0.1677
12673W        W32953  15.760  18.094  13.197  0.0124  0.0781 -0.2359
12674W        W32954  17.164  12.651   1.470  0.0786  0.1489 -0.1337
12675W        W32955   9.074  15.493  12.152  0.2018 -0.2185 -0.0223
12676W        W32956   0.612  14.237  10.319  0.2337 -0.1524  0.1869
12677W        W32957   2.316  10.668  14.009 -0.0345  0.1976 -0.0301
12678W        W32958   5.071   3.901   3.808 -0.0874  0.0499 -0.0103
12679W        W32959  10.853  19.292   3.366 -0.3105  0.2019 -0.4169
12680W        W32960  19.032  16.514  10.385 -0.0695  0.0646  0.2052
12681W        W32961   0.587   0.029   1.037 -0.1851 -0.1980  0.1025
12682W        W32962   4.094   9.972  11.281  0.0826 -0.0163 -0.0127
12683W        W32963  13.201   6.350  13.682  0.1120  0.1198 -0.2956
12684W        W32964  16.246  14.192   0.082 -0.0482 -0.2794 -0.2555
12685W        W32965   8.310  19.424   1.876  0.0893  0.1749 -0.0946
12686W        W32966   3.471   9.940   0.896  0.0019 -0.1980  0.0473
12687W        W32967   7.034   5.464  12.340 -0.0523  0.0385 -0.0132
12688W        W32968   1.154  11.508  12.630 -0.0166 -0.1682 -0.0295
12689W        W32969   8.674  13.064  12.705 -0.0735  0.1273  0.3023
12690W        W32970  10.143  10.385   2.057  0.3500 -0.0677 -0.2436
12691W        W32971  18.609   2.675   3.230  0.1602  0.0442 -0.0298
12692W        W32972  10.523  15.744   5.347  0.1737  0.1830 -0.0348
12693W        W32973  14.659   7.828   3.745 -0.2365 -0.4130  0.0350
12694W        W32974   8.770   6.366  12.190 -0.3108  0.0572  0.1065
12695W        W32975   0.092  19.083  12.925 -0.4140 -0.0259 -0.2381
12696W        W32976  18.262   5.182  11.443  0.1711 -0.2302  0.2248
12697W        W32977   7.034   1.316  11.133  0.0444 -0.4058 -0.1618
12698W        W32978  13.426   3.209   1.131 -0.0320  0.2320 -0.1347
12699W        W32979   6.167   3.859  10.714  0.2455  0.0527 -0.0843
12700W        W32980   2.338   6.480   3.133 -0.0707  0.1932  0.1861
12701W        W32981  15.547   8.768  12.845 -0.0839  0.2987  0.1549
12702W        W32982  16.528  16.995   3.347  0.1101 -0.0068  0.1054
12703W        W32983  11.800  18.158   5.004  0.1076 -0.1168 -0.1588
12704W        W32984  10.800  19.356   1.977  0.0075  0.1369 -0.1268
12705W        W32985  14.308   7.089  13.228 -0.1045 -0.1936  0.0221
12706W        W32986   4.688   7.538  11.172 -0.0237 -0.0940 -0.3072
12707W        W32987   3.704   6.888   2.551  0.3310  0.0710 -0.0285
12708W        W32988   0.978   4.332   3.108 -0.0636 -0.0417  0.0496
12709W        W32989  15.315  16.446  10.744 -0.3479 -0.0395  0.1845
12710W        W32990   3.232  14.407   0.978 -0.0806 -0.3381 -0.0380
12711W        W32991   7.369  18.581   0.766  0.0545  0.3702 -0.1459
12712W        W32992   8.711  16.984   3.842  0.2182 -0.0491 -0.1977
12713W        W32993   8.316   1.459  13.292 -0.1914 -0.1701  0.2203
12714W        W32994  16.016   4.461   2.226 -0.0081  0.0494  0.0150
12715W        W32995  16.775  10.938  11.320 -0.1008 -0.0787  0.0842
12716W        W32996  16.635   4.494   3.237 -0.0992  0.1160  0.3787
12717W        W32997   7.554   1.476  10.900 -0.2037 -0.1747 -0.1833
12718W        W32998   8.734  15.214   3.224  0.0187  0.0535  0.1911
12719W        W32999   7.053   1.330  10.626  0.0970  0.4723 -0.0776
12720W        W33000   2.933  10.227   2.890  0.0519  0.1539  0.0538
12721W        W33001   2.895  17.110  14.422 -0.0320 -0.0215 -0.1116
12722W        W33002  14.228   3.465  14.067 -0.2388 -0.0604 -0.1016
12723W        W33003  14.767   8.480  11.539  0.1975  0.0016 -0.1581
12724W        W33004  17.099  12.737  11.579  0.0726  0.0522 -0.2885
12725W        W33005  12.728   5.329   0.723 -0.1289 -0.0173  0.2549
12726W        W33006   9.927  14.470  13.099  0.0399 -0.3326  0.0871
12727W        W33007  15.382  12.670  11.452 -0.1099 -0.4897 -0.1563
12728W        W33008  17.614  14.737   3.591 -0.1365  0.0656 -0.1698
12729W        W33009  10.767   4.860   3.581 -0.3049 -0.1702  0.2399
12730W        W33010   8.013   4.070   0.590  0.1905 -0.1078 -0.2637
12731W        W33011  11.924   0.470  11.348 -0.0412  0.1688  0.0942
12732W        W33012   8.627   0.291   0.059 -0.3002 -0.2715  0.1668
12733W        W33013  13.190  10.006  12.052  0.2132  0.0267  0.1923
12734W        W33014   2.359   6.332   2.648 -0.0445  0.1197  0.0071
12735W        W33015  15.307  16.836   2.886 -0.0530  0.0634  0.2162
12736W        W33016  17.449  14.147  13.098  0.2521 -0.2922  0.0743
12737W        W33017   2.314   8.323   2.850  0.0159  0.0709 -0.0071
12738W        W33018  15.512   9.821  14.039 -0.0122 -0.1104 -0.3225
12739W        W33019   8.938   9.732  14.305 -0.1410  0.3115  0.1509
12740W        W33020  15.429   5.280  12.583  0.2136  0.0763 -0.0863
12741W        W33021  14.478  16.152  13.494 -0.0873  0.1451 -0.0553
12742W        W33022   8.945   6.981   1.456  0.1338  0.2802  0.1485
12743W        W33023  19.038   8.349  12.369  0.0894 -0.1007 -0.2862
12744W        W33024  17.284  13.411  13.913 -0.0710 -0.2625 -0.1443
12745W        W33025  12.441  18.936   2.538 -0.0842  0.1285  0.2977
12746W        W33026   4.182   3.257   3.389  0.0967 -0.0574 -0.1489
12747W        W33027  12.744  14.575   3.749 -0.1586 -0.2129  0.0886
12748W        W33028  11.478  10.377  12.118  0.2088 -0.1243  0.0690
12749W        W33029  18.594  13.515   1.204  0.1444  0.1496 -0.2575
12750W        W33030  16.580  12.785  14.344 -0.1297 -0.1692  0.0408
12751W        W33031   0.410  15.093   3.875 -0.1231  0.1887 -0.2349
12752W        W33032   5.964   5.017   0.791  0.0733  0.0206  0.1339
12753W        W33033  14.065   0.594  13.829  0.0889 -0.0094  0.1769
12754W        W33034   8.979  13.038   2.676 -0.0369 -0.2568  0.0037
12755W        W33035  16.304  14.617  14.031  0.1653 -0.0399 -0.0850
12756W        W33036   5.324  17.519   1.026 -0.2246 -0.2430 -0.1159
12757W        W33037  14.652  11.534   4.989 -0.0418 -0.1545  0.1383
12758W        W33038   8.223   7.780  10.484 -0.0429  0.1543  0.0667
12759W        W33039   4.468  10.775   2.752 -0.0925  0.3206 -0.1433
12760W        W33040   7.659  13.989  12.397  0.1808 -0.1060 -0.1850
12761W        W33041  18.810  16.037  11.286  0.0665  0.0085  0.2606
12762W        W33042  11.902  16.232   4.034 -0.0216  0.1869  0.1012
12763W        W33043   2.020   3.256   4.431  0.0615 -0.0467 -0.0419
12764W        W33044  11.046   1.541  13.598  0.0652  0.1417 -0.1883
12765W        W33045  19.289   6.740   1.956 -0.1473  0.2184  0.2069
12766W        W33046   2.157  11.612   2.529  0.2116 -0.1812  0.2724
12767W        W33047   8.706  11.410  13.142 -0.1643  0.1371 -0.1715
12768W        W33048   9.292   3.323   0.082  0.0771 -0.0207 -0.3576
12769W        W33049   4.480   1.979  12.889 -0.0333  0.1496  0.0788
12770W        W33050   5.798   3.289   4.224 -0.1065  0.0292  0.3489
12771W        W33051   7.563   6.948  11.511 -0.0697 -0.2211 -0.1915
12772W        W33052   6.055  15.950   0.894  0.0167  0.0394 -0.3325
12773W        W33053  10.521   6.419   1.443 -0.3018 -0.0481 -0.0415
12774W        W33054  18.852  11.515   0.823 -0.1713  0.1180  0.2376
12775W        W33055   7.480  11.739   1.608  0.1996  0.1736  0.0977
12776W        W33056  10.377  19.310  12.574 -0.3163  0.1724  0.2134
12777W        W33057   1.917   7.662   0.754 -0.0891  0.1224 -0.2498
12778W        W33058   0.582  11.773  12.476 -0.2765  0.0017 -0.3402
12779W        W33059   4.103  18.501  14.396  0.1534 -0.0252 -0.0919
12780W        W33060  11.684  19.157   4.087  0.2382 -0.1736 -0.3143
12781W        W33061  12.388   7.368   1.408 -0.1383  0.2029 -0.1139
12782W        W33062   4.925   2.714   1.466 -0.4233 -0.1220  0.1834
12783W        W33063  19.020   6.229   1.767 -0.2483  0.3396 -0.3434
12784W        W33064  12.405   8.038   2.633 -0.0624  0.1956 -0.2475
12785W        W33065  11.328   2.373   4.403  0.0752  0.0470 -0.1905
12786W        W33066   9.226  16.819  11.227 -0.0822 -0.5545 -0.1738
12787W        W33067   7.993   7.256  11.450  0.0387 -0.0883  0.1336
12788W        W33068  13.818   0.122   2.046  0.0159 -0.1121 -0.2969
12789W        W33069   7.551  12.975   4.086 -0.3455 -0.0456  0.0343
12790W        W33070   9.000  14.176  12.524  0.1461  0.0128 -0.3765
12791W        W33071  16.194  14.878   2.424  0.3776  0.0223  0.3760
12792W        W33072   0.348   2.174  11.643 -0.0341  0.2859  0.1362
12793W        W33073   5.319   9.730  12.896  0.0251 -0.0404  0.1659
12794W        W33074   9.108   7.631  13.460  0.3019  0.0265  0.0623
12795W        W33075   4.948   3.457   4.052  0.3219  0.0110  0.0975
12796W        W33076   9.435  11.643  12.161 -0.0443  0.3436 -0.0304
12797W        W33077   4.283  13.125  10.146  0.0556  0.1582 -0.0233
12798W        W33078   3.645   7.130   2.097  0.2623 -0.1063 -0.1310
12799W        W33079  14.983   4.702   3.637 -0.1172 -0.3218 -0.0878
12800W        W33080   0.992   1.847  11.677  0.1276 -0.1699  0.0614
12801W        W33081   8.560   2.676  12.980 -0.1782 -0.4308  0.0101
12802W        W33082   4.675   6.673  13.093 -0.1603  0.0547  0.0035
12803W        W33083  18.820   7.955   2.637 -0.2044 -0.1401  0.1689
12804W        W33084  16.566  19.400   4.101 -0.3281  0.3325  0.2147
12805W        W33085  16.004   2.171   3.398  0.1377 -0.1288 -0.0118
12806W        W33086   2.081  16.365  10.853 -0.3964  0.1028  0.1130
12807W        W33087  13.994   9.617  12.142  0.2523  0.0045 -0.0193
12808W        W33088  18.644   3.930  12.773 -0.3446  0.1034 -0.2855
12809W        W33089   3.752  19.238  12.404 -0.0308 -0.3183 -0.0392
12810W        W33090  12.942  15.177  14.321  0.3537 -0.0510  0.0954
12811W        W33091   5.431  17.274  14.098  0.2223 -0.0746 -0.1693
12812W        W33092  14.494  12.253  11.399 -0.0666  0.0989 -0.0987
12813W        W33093   3.648   6.038  11.790  0.2762  0.2093  0.0172
12814W        W33094  13.303   0.823   4.293 -0.1801 -0.1774 -0.2778
12815W        W33095  11.578   3.498   3.973  0.1557 -0.2307 -0.4123
12816W        W33096   9.001  13.277  13.783 -0.0151 -0.0064  0.1496
12817W        W33097  10.259  16.355  14.495 -0.3589 -0.0810 -0.0643
12818W        W33098  16.823  17.496   1.781  0.0998 -0.1286  0.0794
12819W        W33099   1.704  13.409   8.956  0.0371  0.2171 -0.1819
12820W        W33100   6.617  19.016  13.581 -0.4091 -0.1393 -0.0085
12821W        W33101   5.685  12.514   1.737 -0.1385  0.0154  0.0858
12822W        W33102  15.270   3.159  11.452 -0.0381  0.0647 -0.1345
12823W        W33103   2.399  16.062  11.609  0.1523  0.2215 -0.2392
12824W        W33104  17.582  17.227  10.962  0.3067 -0.2773 -0.4612
12825W        W33105   3.503   8.060  10.659 -0.0851 -0.1829  0.0826
12826W        W33106   0.813   7.269   0.096 -0.0289  0.2274 -0.0480
12827W        W33107   8.985   2.280   0.013  0.1003 -0.1562 -0.0020
12828W        W33108  19.257   4.167  13.595 -0.1019  0.2315  0.0004
12829W        W33109  17.636  10.915   9.211  0.2572 -0.0949 -0.0815
12830W        W33110   1.477  10.144  11.611  0.0859  0.1689  0.2333
12831W        W33111   2.177  17.144  13.105  0.2151 -0.2525 -0.0142
12832W        W33112   1.381   7.327  11.852 -0.0933 -0.1823 -0.1624
12833W        W33113   6.804   7.733   3.998  0.1394  0.0334 -0.0520
12834W        W33114  11.015  17.436  11.049  0.1094 -0.0572 -0.3616
12835W        W33115   4.915  14.182   0.950  0.1545 -0.1597  0.0507
12836W        W33116   6.296   8.991  12.287 -0.1712  0.2964  0.2333
12837W        W33117   6.049   5.585   0.828 -0.0360  0.4378 -0.0392
12838W        W33118  12.416  16.627  12.477  0.0341 -0.0617 -0.2110
12839W        W33119  13.111   4.049   1.223 -0.3050 -0.1556 -0.0548
12840W        W33120   6.684  18.362   3.647 -0.0916  0.1040  0.1797
12841W        W33121  16.296   7.249   3.278 -0.1072  0.0473  0.0230
12842W        W33122  12.466  17.333   1.333 -0.1900 -0.1473 -0.0355
12843W        W33123  11.606   3.438  14.217 -0.2197  0.1209 -0.0840
12844W        W33124   5.986  10.828   2.118  0.0299  0.1621 -0.0740
12845W        W33125   7.329   6.724  12.314 -0.0590 -0.1400  0.0403
12846W        W33126   4.721   1.627  12.044 -0.0961  0.0438  0.0110
12847W        W33127  14.529   0.446  12.127  0.1574  0.2381  0.2317
12848W        W33128  16.418   3.662   3.603  0.1800 -0.0995  0.3079
12849W        W33129   1.151   4.784   3.913  0.1885  0.0188  0.2634
12850W        W33130  10.074   8.597   2.154  0.2229  0.0793 -0.0034
12851W        W33131  13.131   7.231   3.104  0.4745  0.3095  0.0380
12852W        W33132  10.436   4.167   0.931 -0.0688  0.2055 -0.0841
12853W        W33133  16.914  13.095   1.999  0.1729 -0.0023  0.1459
12854W        W33134  15.821   3.010   9.503 -0.0537  0.1180 -0.1795
12855W        W33135  15.466  16.526   1.618  0.0956  0.2539 -0.2634
12856W        W33136   3.715   7.398   0.402 -0.3067 -0.2366  0.2278
12857W        W33137   5.950   6.755   1.248 -0.2905  0.1164  0.1838
12858W        W33138   9.035   0.698   1.898  0.0404  0.0296  0.2136
12859W        W33139   1.326  13.276  14.137 -0.2738 -0.2057  0.1624
12860W        W33140   8.756   6.605   3.652  0.2075 -0.0206  0.3025
12861W        W33141  15.671   4.377  14.065 -0.0331  0.0714  0.0659
12862W        W33142  11.309  17.565   4.432  0.1503  0.0921  0.3526
12863W        W33143  18.905   5.101  14.113 -0.0204 -0.0334 -0.0029
12864W        W33144   0.910  10.603  10.998  0.2140  0.1176  0.1852
12865W        W33145   3.769   5.571   3.229  0.2300 -0.0573 -0.0777
12866W        W33146   6.065   9.955   3.427  0.5069 -0.0760 -0.1687
12867W        W33147  12.443   2.743  11.918 -0.2254 -0.1013 -0.1906
12868W        W33148  13.902  12.543   1.704 -0.0052 -0.0499 -0.2924
12869W        W33149  14.387  15.311  13.727  0.1301  0.0836 -0.1119
12870W        W33150  12.409   3.754   2.053  0.0897 -0.1010  0.1569
12871W        W33151   4.044  18.306  12.316  0.1554  0.0007 -0.0062
12872W        W33152  18.002  14.972   4.449  0.0996 -0.0884  0.1246
12873W        W33153   7.529  10.854  13.261  0.3532 -0.0653  0.2212
12874W        W33154   8.775  15.471  11.776 -0.1331 -0.1774  0.1396
12875W        W33155   4.090   6.554  14.392 -0.2571  0.3075 -0.0670
12876W        W33156  18.268   2.732   4.201  0.1089 -0.2987  0.3033
12877W        W33157   3.035  16.691   0.090 -0.0457 -0.0693  0.0952
12878W        W33158   5.383  12.914  11.651  0.0472  0.1705  0.1683
12879W        W33159  16.223   9.298   2.073 -0.1617 -0.0840 -0.3901
12880W        W33160  14.980   7.577  11.654 -0.2039  0.0277 -0.2167
12881W        W33161  15.815   5.941  11.607  0.2744 -0.0413  0.3045
12882W        W33162   9.762  11.098   1.548  0.0066  0.2641  0.2050
12883W        W33163   1.426   7.816   0.627  0.0348 -0.3856  0.0541
12884W        W33164   0.514  12.253   2.942 -0.1442  0.2259  0.4816
12885W        W33165  18.466  10.515   1.595  0.3432 -0.0642 -0.5007
12886W        W33166   5.001   8.657   0.851  0.1150 -0.0440  0.1153
12887W        W33167  13.048  13.706  12.724  0.4225  0.0817  0.2106
12888W        W33168   8.291   9.139  13.231 -0.1799 -0.2779  0.0308
12889W        W33169  12.036  13.655   2.169 -0.1876 -0.0641  0.0278
12890W        W33170   7.847  10.816   3.067  0.0394  0.2259 -0.2199
12891W        W33171  18.108  12.596   3.431  0.0184  0.1257 -0.1524
12892W        W33172   9.585  13.543   5.077  0.3849  0.0498  0.1710
12893W        W33173   4.328  12.892  13.540  0.3466  0.0440  0.2573
12894W        W33174  18.611   8.113  13.788  0.1432 -0.0491 -0.2230
12895W        W33175   7.294  10.273  13.119 -0.0482 -0.3632 -0.0600
12896W        W33176  19.418   0.591  13.850 -0.3224  0.0659 -0.2265
12897W        W33177   4.232   1.811   0.023  0.0128 -0.0270 -0.0265
12898W        W33178  14.985   7.994   3.419  0.2281 -0.0288 -0.2740
12899W        W33179   3.254   5.574  10.925  0.0867 -0.1964 -0.1691
12900W        W33180  19.132  15.997   2.940 -0.0785 -0.1502  0.2815
12901W        W33181   9.660   3.081   2.041  0.0776  0.0265  0.0248
12902W        W33182  17.966   6.516   0.362 -0.0168 -0.2069 -0.1287
12903W        W33183   1.894  12.639  10.012 -0.0431 -0.1132  0.1930
12904W        W33184   5.781  10.975  12.970  0.0147  0.1207 -0.1859
12905W        W33185  11.669   1.037   0.099  0.1126  0.1263 -0.0016
12906W        W33186   5.668  17.130  11.315  0.0148 -0.0434 -0.1676
12907W        W33187  19.409  18.318  13.919  0.3744  0.2573 -0.1663
12908W        W33188   1.996  16.399  12.460 -0.2921  0.0860  0.4138
12909W        W33189   3.250  15.345   2.369  0.0240  0.0448  0.0528
12910W        W33190  12.459   5.563   2.168  0.2144 -0.1475 -0.1094
12911W        W33191   4.728   4.410   4.997  0.0167  0.0055  0.1460
12912W        W33192  18.602   9.251   1.635 -0.2843 -0.0526 -0.0731
12913W        W33193   5.153   0.031  13.003  0.0181  0.0701 -0.0606
12914W        W33194   5.704  10.380   2.272 -0.2463 -0.0462 -0.1729
12915W        W33195  17.570  17.402   1.266 -0.0400  0.0164 -0.2488
12916W        W33196  13.827   6.016   2.410 -0.4385 -0.1425 -0.1492
12917W        W33197  15.394  19.247  13.905  0.1087  0.0138  0.1952
12918W        W33198   9.582   3.161   0.948  0.0094 -0.2420 -0.2230
12919W        W33199  12.716   7.345  12.759  0.0171 -0.1065 -0.1482
12920W        W33200   6.351  12.366  12.222  0.0084  0.1106  0.0872
12921W        W33201  13.235  11.845   0.926 -0.1962 -0.1253 -0.1438
12922W        W33202   2.547   9.146  12.036 -0.0712  0.0754  0.0433
12923W        W33203  16.644   9.340   1.761  0.1134 -0.0958 -0.0729
12924W        W33204  12.206   6.284   2.279  0.1908 -0.2524 -0.0342
12925W        W33205   9.558  10.361   0.488  0.0261 -0.3489 -0.0681
12926W        W33206  14.065   0.467  14.379  0.0909  0.1751 -0.2746
12927W        W33207   1.871   6.583  11.309 -0.0054  0.0366 -0.0582
12928W        W33208  15.186   7.445   2.408  0.0936  0.3478 -0.0740
12929W        W33209  12.638  14.876   4.826  0.0560  0.1648  0.2004
12930W        W33210   1.733   4.572  13.526  0.1006 -0.0454  0.1959
12931W        W33211  11.955  19.140   3.686  0.2084 -0.0064  0.1108
12932W        W33212  11.744  11.442  12.092 -0.0301 -0.1938 -0.0701
12933W        W33213   3.620  10.469  13.029 -0.2472  0.2019 -0.0707
12934W        W33214   2.826   2.978  12.697  0.0821 -0.2063  0.2981
12935W        W33215   2.260  19.004   3.990 -0.3697  0.5316 -0.0605
12936W        W33216  17.442  17.391   3.286 -0.2254 -0.1231  0.3859
12937W        W33217  10.146   9.666  12.258 -0.1307  0.0544  0.0870
12938W        W33218   4.868  10.319  11.413  0.1380 -0.1606  0.1380
12939W        W33219   7.195   2.080   2.567  0.2341 -0.2431 -0.0894
12940W        W33220  13.475   3.708   1.031 -0.1890  0.1170 -0.0246
12941W        W33221   0.815   4.161  13.889 -0.1751 -0.1986  0.2865
12942W        W33222   1.856   5.300   1.053 -0.1736  0.2121 -0.2250
12943W        W33223   8.115   7.180   0.391 -0.2024  0.1292  0.0253
12944W        W33224  11.233   7.112   0.044  0.0060  0.0459  0.0352
12945W        W33225  18.494  18.895  13.712 -0.0860  0.2278  0.1273
12946W        W33226   5.640   2.195   0.399 -0.1861 -0.1119 -0.1628
12947W        W33227  14.544   5.736   2.841 -0.0020  0.1657 -0.2648
12948W        W33228  11.332   5.810   3.882 -0.1748 -0.0024 -0.0665
12949W        W33229  15.999  10.543  10.872 -0.0835 -0.2420  0.1090
12950W        W33230   1.358   6.571  11.189  0.1218 -0.1026 -0.1281
12951W        W33231   3.016  17.199  13.048 -0.0910 -0.1098  0.1593
12952W        W33232  15.009   4.640  12.430  0.0131  0.4040 -0.1859
12953W        W33233   2.331   6.671  13.600  0.1066  0.3737 -0.0734
12954W        W33234  10.955   6.285  12.636  0.0820  0.0234 -0.0331
12955W        W33235  19.200   3.108  13.593 -0.2900 -0.0653  0.2645
12956W        W33236  18.554   2.480  12.798  0.0558 -0.2047 -0.0141
12957W        W33237   1.181   9.362  11.928 -0.0064  0.0706 -0.2814
12958W        W33238  14.294  14.044  10.605 -0.1261 -0.3036 -0.0779
12959W        W33239  14.124  16.638   0.718 -0.0474  0.0860  0.2739
12960W        W33240   4.849   7.483  13.921  0.0439  0.0548  0.1120
12961W        W33241   6.515   3.616   1.636 -0.4627 -0.3473  0.0544
12962W        W33242  14.338   1.613  13.719 -0.0535 -0.0520  0.0571
12963W        W33243   0.924  13.743  14.041  0.0016  0.1190 -0.0158
12964W        W33244   3.585   2.890   2.898 -0.2869 -0.2637 -0.0162
12965W        W33245   1.686  13.538  11.638 -0.3472 -0.0319  0.0847
12966W        W33246   8.965   3.304  11.139 -0.4586 -0.0421  0.0296
12967W        W33247  14.422  18.826  14.317 -0.0059 -0.1235 -0.1820
12968W        W33248  14.673  10.871  10.417 -0.2761  0.1775 -0.0719
12969W        W33249   3.132  10.443  11.287  0.0595 -0.0811  0.0848
12970W        W33250  10.076   5.486  12.250 -0.1587  0.2283 -0.2262
12971W        W33251  13.278   3.544  10.829  0.1808 -0.2264 -0.0691
12972W        W33252   6.364   4.592   1.406 -0.0602 -0.1670  0.1906
12973W        W33253  12.780  11.977  13.670 -0.0675  0.3037 -0.2046
12974W        W33254  17.809  12.986  12.721  0.0542  0.1276  0.0961
12975W        W33255   6.663  12.227  14.401  0.1993  0.4526 -0.1023
12976W        W33256   6.986  18.147   0.834  0.1029  0.0862  0.2430
12977W        W33257   5.630   6.355  13.184  0.0311  0.0761 -0.0812
12978W        W33258   1.507   4.529  13.973  0.2027 -0.0503 -0.0649
12979W        W33259   7.026   8.410  12.331 -0.0448  0.1054 -0.0327
12980W        W33260   5.458  13.958  10.081  0.1646 -0.0562 -0.1625
12981W        W33261  13.151   6.627  13.237 -0.0807  0.1277  0.0875
12982W        W33262  16.340  16.105   3.731 -0.0426  0.1243  0.1360
12983W        W33263  15.342   3.675   3.548  0.1503 -0.1038  0.0440
12984W        W33264   2.140  12.775   0.119  0.0792 -0.0082  0.0361
12985W        W33265   8.008   7.577  11.836  0.1875  0.0054 -0.1029
12986W        W33266   5.556   3.212  10.808 -0.0018 -0.0720  0.2152
12987W        W33267  12.111   5.299  13.871 -0.2050  0.0849  0.0324
12988W        W33268   7.128  17.331   1.530  0.4432  0.1310  0.1323
12989W        W33269   1.788   4.178  12.584  0.1293  0.1276 -0.1834
12990W        W33270  10.096   2.466   1.049 -0.1305  0.0599  0.0871
12991W        W33271   5.215  16.920  14.379  0.0856  0.1739 -0.0838
12992W        W33272   0.727  17.850   4.171  0.1729  0.1819  0.0774
12993W        W33273  18.331   1.194  12.653 -0.0542 -0.3373 -0.4266
12994W        W33274   5.456   3.095  11.348  0.1757 -0.0964 -0.0599
12995W        W33275  12.017  19.182   2.746 -0.1838 -0.0180  0.1256
12996W        W33276   3.201  15.704  13.549 -0.2803 -0.0418 -0.2457
12997W        W33277   3.153  13.175  11.810 -0.2616  0.3075 -0.1364
12998W        W33278  11.212  11.829  14.391  0.3168 -0.2358 -0.1963
12999W        W33279   3.497  18.933   3.780 -0.0135 -0.2556 -0.0230
13000W        W33280  15.033   6.129  13.728 -0.0400 -0.2193 -0.2232
13001W        W33281   4.755   2.978   3.993 -0.1823  0.2323  0.0321
13002W        W33282   6.950   5.743  11.913  0.0030  0.1053  0.1463
13003W        W33283   4.652   1.852   0.926 -0.3069 -0.1774 -0.3456
13004W        W33284  10.283   2.206   2.365  0.2143 -0.0432  0.1149
13005W        W33285  16.992  16.145  13.175  0.1642 -0.0467  0.1284
13006W        W33286  17.334   2.996   0.857  0.1276  0.0591 -0.1340
13007W        W33287   3.189  12.705  11.013 -0.2031  0.0514  0.2665
13008W        W33288   5.974  17.657  11.439  0.1190 -0.1297 -0.1458
13009W        W33289   9.246   3.742  10.980 -0.1556  0.2777  0.0972
13010W        W33290  15.470   1.039  12.784 -0.0479 -0.0001 -0.2517
13011W        W33291  12.135  11.566   1.613  0.0599  0.0990  0.0964
13012W        W33292   1.974  15.459   4.361 -0.1975  0.0483  0.1012
13013W        W33293   5.738  15.162  14.305 -0.1102  0.0375  0.0489
13014W        W33294   9.191  18.621   1.895  0.2079  0.0915  0.1274
13015W        W33295   0.333  13.869   3.065 -0.0283 -0.0763 -0.0779
13016W        W33296  11.880   5.511  13.115 -0.1403  0.5031  0.1948
13017W        W33297  19.339   6.268   1.231 -0.2498 -0.0955 -0.0043
13018W        W33298   5.310   7.944  13.216 -0.3158 -0.1285 -0.2035
13019W        W33299   5.759  17.033  13.753 -0.1259 -0.2252  0.0282
13020W        W33300  19.025  14.283  11.729 -0.1122 -0.3652  0.1183
13021W        W33301  17.694  10.035   1.589  0.0106 -0.1404  0.0252
13022W        W33302  16.704  14.612  13.685  0.0462  0.2591 -0.0071
13023W        W33303  14.692   6.519  10.915 -0.2526 -0.0468  0.0137
13024W        W33304   6.793   3.513  12.223  0.3697  0.3741 -0.0864
13025W        W33305   7.044   8.587   1.599 -0.0637  0.1860  0.2303
13026W        W33306   0.069   9.708   0.481  0.0286  0.0066 -0.1725
13027W        W33307  12.586  13.119   0.963 -0.2939  0.0251  0.0599
13028W        W33308  14.126  17.992  13.305 -0.2283 -0.1806 -0.0734
13029W        W33309  14.179  17.091   2.135 -0.0910 -0.6293 -0.0730
13030W        W33310   2.989  17.092   3.209 -0.3161  0.0250 -0.0907
13031W        W33311  15.103   0.083  11.075  0.0737  0.2347  0.3525
13032W        W33312  18.835   4.120   3.431 -0.1205  0.1022 -0.0734
13033W        W33313   4.482   4.063   1.511 -0.1141  0.0093 -0.0096
13034W        W33314   7.568   6.098   1.689  0.0715  0.0939 -0.0151
13035W        W33315   5.795   9.969  11.203 -0.1275  0.2851  0.2616
13036W        W33316   7.169   7.665   0.933  0.0014  0.1394  0.1242
13037W        W33317   9.160  16.474   5.036 -0.0442  0.1295 -0.1792
13038W        W33318  15.986  14.968   3.253  0.0016 -0.1994 -0.3185
13039W        W33319  13.632   1.810   1.046  0.0635  0.2945  0.0465
13040W        W33320   7.793  18.035  13.268 -0.1281 -0.2021 -0.0440
13041W        W33321   2.069  11.502   1.921 -0.2221 -0.0385 -0.1348
13042W        W33322  12.142  11.391  10.830 -0.0597 -0.0202  0.0269
13043W        W33323  17.225   6.039  11.742  0.3104  0.1291  0.0829
13044W        W33324  17.470   4.959  12.859  0.1958 -0.4113  0.1047
13045W        W33325  11.514  18.635   0.729 -0.2332 -0.1685 -0.1309
13046W        W33326  10.694   8.447   2.679 -0.0886  0.0477  0.0428
13047W        W33327  13.627  14.635   2.742  0.2334 -0.0205  0.2598
13048W        W33328  12.714  15.864  12.677 -0.1104 -0.0465 -0.1053
13049W        W33329   5.853   3.830  10.262 -0.3502  0.2649  0.1531
13050W        W33330   2.121   7.557  13.405  0.0803  0.0823  0.4737
13051W        W33331   7.103   7.199  11.526 -0.2102  0.1031  0.1226
13052W        W33332   8.520   4.017   4.317 -0.1503  0.0487  0.3550
13053W        W33333  15.071  13.245   2.455  0.1289 -0.2481 -0.3510
13054W        W33334   3.278   3.005   3.444 -0.0175  0.1981  0.1179
13055W        W33335  11.993   0.382  14.402 -0.0215  0.0250  0.1338
13056W        W33336   4.954  10.451  13.127  0.0391  0.1453  0.2250
13057W        W33337  15.924   5.660   2.562 -0.0165 -0.1516  0.2424
13058W        W33338   9.861  16.390  13.193  0.4837 -0.0363 -0.1498
13059W        W33339   5.368  17.940  10.686  0.4447 -0.0607  0.1011
13060W        W33340  11.134   6.264  11.758  0.1231  0.0089 -0.0539
13061W        W33341  14.771   0.695   4.046  0.1786  0.0409 -0.0134
13062W        W33342  11.089   0.124  14.407 -0.0218  0.1418 -0.0526
13063W        W33343   8.441   0.148   2.847  0.0219  0.2978  0.3363
13064W        W33344   4.157   4.832   0.935  0.3769 -0.0576 -0.0879
13065W        W33345   6.476  15.449   4.185  0.0546 -0.2790 -0.1201
13066W        W33346  17.553   6.431   1.975 -0.1372  0.2472 -0.0053
13067W        W33347   0.110   7.010  11.119  0.1738  0.0059  0.3003
13068W        W33348  16.336   9.336  10.230  0.1543  0.0277  0.0697
13069W        W33349   3.230  10.876   0.543  0.0339 -0.0016 -0.2080
13070W        W33350   0.924   2.566  12.328 -0.1399  0.3260 -0.0847
13071W        W33351  10.011  12.932  12.202 -0.1342  0.1308 -0.2859
13072W        W33352  11.351  12.291  11.873 -0.0963 -0.2871  0.2946
13073W        W33353  12.691  10.462  10.890  0.4040 -0.0871 -0.1983
13074W        W33354   4.747  16.523  11.449  0.0818  0.0893  0.1360
13075W        W33355   0.344  18.880   3.041 -0.0188  0.0951 -0.1710
13076W        W33356  16.769  17.612  10.698 -0.2126 -0.1999 -0.1011
13077W        W33357  12.810  10.114  12.589  0.0711  0.0172 -0.0742
13078W        W33358   3.033  14.644  12.280  0.2903  0.3205 -0.2576
13079W        W33359  10.637   2.126  12.104  0.0031 -0.0741  0.2022
13080W        W33360   7.410   5.807  12.244  0.0991  0.1503  0.2234
13081W        W33361   0.770   9.341   0.499 -0.0994 -0.0820  0.0058
13082W        W33362   7.811  19.112  11.880 -0.0099  0.1926  0.3481
13083W        W33363   5.636   8.261  12.070 -0.1224  0.1410 -0.1126
13084W        W33364   6.016   9.932   1.173 -0.1797 -0.3407  0.2886
13085W        W33365   7.024   3.208  11.327  0.1487  0.3217 -0.0225
13086W        W33366  11.183  15.210   3.401  0.0221 -0.3370 -0.1851
13087W        W33367   4.719   5.017   0.777 -0.1378 -0.2356  0.2768
13088W        W33368  12.900  17.994   2.674  0.0023 -0.3075 -0.1620
13089W        W33369  11.256  19.270  12.935 -0.3311  0.0200 -0.3109
13090W        W33370   3.215  11.008  14.057  0.2981 -0.0181 -0.1115
13091W        W33371  10.816  16.591   3.370  0.1490  0.2409 -0.0457
13092W        W33372   1.845   6.478   3.408 -0.0102  0.2617 -0.1911
13093W        W33373   2.336   1.854   2.454 -0.0267 -0.1516  0.0163
13094W        W33374   3.435  12.916   1.938 -0.0891  0.0928  0.1489
13095W        W33375   5.221  15.615  12.939 -0.1626 -0.1735 -0.0746
13096W        W33376  13.134   1.363   4.341 -0.3246  0.0310 -0.0150
13097W        W33377   4.345  12.279   4.424  0.1031  0.0982 -0.2363
13098W        W33378  10.773   3.755  12.601  0.2293  0.0407  0.1577
13099W        W33379   0.377  17.770  13.778 -0.1103  0.4091  0.0510
13100W        W33380  18.222  10.600  11.199 -0.0765 -0.3466  0.0321
13101W        W33381   1.398   0.345  13.247 -0.1427  0.4464  0.1279
13102W        W33382   5.640  10.308   0.857 -0.2468  0.2102 -0.1703
13103W        W33383  12.464   9.412  12.402  0.2782 -0.1913 -0.0593
13104W        W33384  14.630   7.736  13.088 -0.0050 -0.2634 -0.4129
13105W        W33385  14.005  19.182   3.142 -0.0976 -0.1894 -0.0184
13106W        W33386   5.619  13.952   0.341 -0.0604  0.0230  0.1467
13107W        W33387  15.619  14.539  11.741 -0.1546  0.0302  0.1017
13108W        W33388   8.499  13.134   2.588 -0.0683  0.2559  0.0424
13109W        W33389   6.691   2.804   1.459 -0.0965  0.0950  0.0262
13110W        W33390  13.581  12.720  14.328 -0.5008  0.0375 -0.0893
13111W        W33391   3.456   7.965  12.305  0.4797 -0.1067 -0.1272
13112W        W33392   6.205   4.889  12.364  0.1515 -0.1564  0.4168
13113W        W33393  10.828  16.681  11.705 -0.2009  0.2553  0.0543
13114W        W33394  14.758   2.912   4.167  0.0966 -0.2531 -0.3723
13115W        W33395  14.924  10.704  11.932  0.2083  0.4373  0.1975
13116W        W33396   7.432  14.145   1.413  0.0964 -0.0640  0.1753
13117W        W33397   1.403  17.681   2.863 -0.1723 -0.2680 -0.1461
13118W        W33398   4.582   0.866   2.450 -0.2362 -0.0070 -0.2963
13119W        W33399  17.673  16.712  13.862 -0.1185  0.0488 -0.5560
13120W        W33400   9.331  17.589   4.048  0.0375 -0.3557 -0.0009
13121W        W33401   0.585   4.924   2.297  0.3257  0.1921 -0.3227
13122W        W33402   3.293  12.696   4.937 -0.0134  0.0006  0.0622
13123W        W33403   1.237   5.391  11.057  0.0566 -0.0666 -0.1428
13124W        W33404   3.689  15.610   1.343  0.1549 -0.1773 -0.1380
13125W        W33405  14.491   5.615   0.423  0.0375 -0.0408  0.1097
13126W        W33406  12.179   5.858  13.644  0.1238 -0.0460 -0.3161
13127W        W33407  14.651   8.371   3.653  0.2936  0.0195 -0.1760
13128W        W33408   6.524   9.906   2.078 -0.1119 -0.4440 -0.1677
13129W        W33409  18.050   9.562   1.526  0.0662  0.1791 -0.3835
13130W        W33410   4.374   3.017  11.538 -0.0416 -0.1933  0.0731
13131W        W33411   3.111   7.699   1.024  0.4557 -0.2014 -0.0574
13132W        W33412  11.374   9.212  13.232  0.1981  0.1441  0.0411
13133W        W33413   7.673  10.598   0.170 -0.0728  0.1317  0.1290
13134W        W33414  15.231   8.539   2.458 -0.0871  0.0558 -0.2649
13135W        W33415   9.317  12.424   0.095  0.1091 -0.0254 -0.1934
13136W        W33416   3.940   7.896   0.126  0.1591  0.1864  0.0070
13137W        W33417  11.498  19.122   2.754 -0.1187  0.0744 -0.1490
13138W        W33418  14.491  11.515  11.071  0.1886  0.1054 -0.0972
13139W        W33419  17.308   3.239  10.600 -0.0920 -0.2565 -0.2922
13140W        W33420   7.365   1.866   3.985 -0.3817  0.0781 -0.1643
13141W        W33421   7.807   2.410   2.129  0.0895  0.1178  0.0119
13142W        W33422  17.403   4.220   4.099  0.2863  0.0645  0.1654
13143W        W33423  17.739  19.061  14.167  0.2767 -0.2247  0.0828
13144W        W33424  13.292  16.611  10.865 -0.0131  0.1426 -0.2111
13145W        W33425   6.055  11.013  12.452 -0.0511 -0.1542  0.0698
13146W        W33426   5.271   7.672   1.967 -0.0667  0.3027  0.3870
13147W        W33427   7.843   2.660  12.706 -0.0869 -0.0435  0.1277
13148W        W33428  12.163  14.921   0.771  0.0450 -0.3066 -0.0351
13149W        W33429   4.496   1.650   4.233 -0.0940  0.0511  0.0883
13150W        W33430   7.078  16.240  13.542  0.2174 -0.0640 -0.0007
13151W        W33431  11.249  16.192  13.698 -0.0309  0.1629 -0.2650
13152W        W33432   7.487  11.259  11.453  0.0017 -0.0631  0.0715
13153W        W33433  18.511  13.154   3.235  0.0222 -0.0554 -0.0887
13154W        W33434  18.568   1.710  10.318 -0.0499 -0.2703  0.0351
13155W        W33435  17.252   0.077   0.458  0.1165  0.0889  0.4771
13156W        W33436   3.101  11.030  11.317  0.4034  0.0602  0.0457
13157W        W33437   0.456   0.684   9.835  0.0185 -0.0206  0.0864
13158W        W33438   2.074  16.570   0.283  0.1043 -0.0017  0.0095
13159W        W33439   5.286   6.714  11.282  0.0361 -0.1922  0.1606
13160W        W33440  14.749  13.719   3.670 -0.0682 -0.0482  0.1067
13161W        W33441  18.591  16.191   3.852 -0.0510 -0.0666 -0.1345
13162W        W33442  12.742  19.140   2.179 -0.1108 -0.4960  0.3802
13163W        W33443  14.813   6.727   1.724  0.5104 -0.2614 -0.1804
13164W        W33444   3.312   7.284   2.421  0.0911 -0.2836  0.3635
13165W        W33445   0.873  13.404   0.403 -0.2258 -0.2418 -0.0491
13166W        W33446   2.143  17.049   3.752  0.2679 -0.0597 -0.2228
13167W        W33447   7.184  16.639   1.374 -0.1496 -0.1111  0.2646
13168W        W33448   3.321  16.301  13.416 -0.0204  0.3877  0.1385
13169W        W33449  17.975   4.873  14.186  0.0004 -0.1056 -0.1678
13170W        W33450  19.032  12.880   2.682 -0.0483  0.6132 -0.0426
13171W        W33451  18.510   8.046   2.156  0.3950 -0.3192 -0.2189
13172W        W33452   7.007   6.044  13.025  0.0598  0.0632  0.0658
13173W        W33453   4.612  17.760   3.795 -0.0411  0.0667 -0.0850
13174W        W33454  11.211  15.549   0.032 -0.1971 -0.0577 -0.0783
13175W        W33455   3.289   7.458   3.307 -0.2540  0.1718  0.3000
13176W        W33456   4.656   9.309  12.223 -0.5564 -0.4429 -0.2761
13177W        W33457  15.376  11.108   1.436  0.2022 -0.2756 -0.0303
13178W        W33458  11.594   8.121   4.179 -0.2896  0.0352  0.2939
13179W        W33459  12.834   6.863   2.270 -0.1096  0.3754  0.0811
13180W        W33460  19.236   4.585  12.771 -0.0450 -0.3215  0.1014
13181W        W33461   9.300   8.372  11.063  0.1012 -0.0463 -0.0002
13182W        W33462   3.356  11.772   2.075  0.0420  0.1424  0.1047
13183W        W33463   6.423   0.550   1.321  0.0171  0.0833  0.0992
13184W        W33464  16.086  13.580   2.359  0.1083 -0.2026  0.1399
13185W        W33465   8.279   7.719   2.259 -0.0827 -0.4390  0.1795
13186W        W33466  11.748  12.299  11.624  0.0086 -0.1328 -0.1941
13187W        W33467  14.120   1.770   1.716 -0.1028  0.2832 -0.5468
13188W        W33468  18.401   5.185  14.340  0.0407  0.0206 -0.0870
13189W        W33469  14.577  10.765  13.371 -0.3786  0.0560 -0.0899
13190W        W33470   8.503   2.442  10.769 -0.0458  0.0872  0.0585
13191W        W33471   0.849   0.362  11.027  0.0355  0.0589  0.1239
13192W        W33472   6.068   3.537  11.688  0.2391 -0.0851 -0.0864
13193W        W33473   9.216   0.555   0.571 -0.1947 -0.2521  0.1461
13194W        W33474  11.577  10.091   2.721  0.1869  0.1206  0.0328
13195W        W33475   0.601   0.653  12.650  0.0168  0.2732  0.1188
13196W        W33476  10.677   2.486   2.167 -0.0722  0.1104 -0.0522
13197W        W33477  19.410   0.056   2.240 -0.1119 -0.1053 -0.0812
13198W        W33478   7.344   3.817  11.129 -0.0567 -0.0311 -0.1245
13199W        W33479   1.099  13.534   3.107 -0.1499 -0.1842  0.0664
13200W        W33480   1.377  11.424  13.752 -0.0887  0.1198  0.2588
13201W        W33481   3.146   0.829   3.233 -0.0082 -0.1921  0.2909
13202W        W33482  19.268   4.086   2.902  0.4272  0.0892 -0.0539
13203W        W33483  12.611   7.943   3.111  0.0107 -0.1748 -0.1171
13204W        W33484  13.334   6.340   4.113  0.2230  0.2576  0.1756
13205W        W33485   6.350   9.721   0.352  0.1933 -0.0692 -0.0210
13206W        W33486   2.565   1.071  12.510 -0.0560  0.0881  0.1304
13207W        W33487  12.294  18.317   4.248  0.1895 -0.0601 -0.2280
13208W        W33488  14.493  11.316  12.418 -0.2643  0.4303  0.0654
13209W        W33489  12.208  19.332   4.358  0.1619 -0.1112 -0.1740
13210W        W33490  14.477  12.291   3.085 -0.2030 -0.1178 -0.1168
13211W        W33491  14.078   8.861   2.532 -0.1622 -0.0537  0.0776
13212W        W33492   6.692  19.326   3.171 -0.0082 -0.3216  0.2256
13213W        W33493  10.974  14.134   1.287 -0.4306 -0.1636 -0.0592
13214W        W33494   8.479   6.015  10.814 -0.2049  0.2652 -0.0471
13215W        W33495   8.331   6.296   1.047 -0.2106 -0.1973  0.0517
13216W        W33496  15.903   3.695  13.426  0.1551  0.0595  0.5700
13217W        W33497   8.861  14.690  13.830  0.0589 -0.0619  0.0068
13218W        W33498  14.317   4.863   4.349  0.1562  0.0921 -0.0216
13219W        W33499  14.652   1.184   4.166  0.1820  0.2113 -0.0661
13220W        W33500  13.769  16.472   2.095 -0.0288  0.1126 -0.0700
13221W        W33501  12.762  10.521   2.418  0.1184  0.1863 -0.0187
13222W        W33502   5.006  16.057  13.351 -0.0232 -0.1616 -0.1175
13223W        W33503   8.923  15.746   0.227  0.5779 -0.1358 -0.0066
13224W        W33504  14.063   6.672   4.560 -0.3260 -0.1249  0.2966
13225W        W33505   6.829  15.239  12.172  0.3136  0.2044 -0.2094
13226W        W33506  16.198  17.750  10.835 -0.1117  0.0080 -0.0272
13227W        W33507  15.089   3.783   0.463  0.1249 -0.1173  0.3458
13228W        W33508  18.140   1.105   3.788 -0.3952  0.0767  0.0255
13229W        W33509   3.405  13.850   1.651 -0.0405 -0.0387 -0.0860
13230W        W33510   0.041   8.047  12.587  0.0607  0.0454 -0.0919
13231W        W33511  18.900  17.066   4.087 -0.0391  0.0744 -0.2836
13232W        W33512   3.744  18.504  11.887 -0.0479 -0.2143 -0.0883
13233W        W33513   4.839  13.654  13.103  0.1325  0.0529 -0.1814
13234W        W33514  16.702   4.686   5.432 -0.1125  0.2225 -0.0099
13235W        W33515  14.525   8.207  12.355  0.2451  0.1294 -0.2699
13236W        W33516   5.601   0.409   5.105  0.2428 -0.0225  0.0505
13237W        W33517   9.898   7.935   2.157 -0.2618 -0.4451  0.0274
13238W        W33518  18.714   4.270   0.106  0.0059  0.0574  0.1122
13239W        W33519  12.648   2.520   1.816 -0.0907 -0.4192  0.1300
13240W        W33520   2.511   8.777   2.622 -0.0007  0.1170 -0.0450
13241W        W33521   6.973  16.302  10.712  0.0229 -0.0900 -0.0993
13242W        W33522   4.740  16.175   4.573  0.0586  0.2429 -0.3228
13243W        W33523  12.820  17.994   4.054  0.0566 -0.3409  0.0622
13244W        W33524  10.765  11.134  14.121  0.1951  0.2158  0.2910
13245W        W33525   6.421   8.358   1.968  0.2881 -0.1556  0.3401
13246W        W33526  13.358   2.117  11.731  0.1039 -0.0049 -0.2471
13247W        W33527   2.159   4.381  13.002 -0.0646 -0.1057 -0.0943
13248W        W33528   0.290  13.766  14.189  0.2109 -0.1920 -0.2927
13249W        W33529   3.144   1.633   3.027 -0.0786 -0.3169  0.0618
13250W        W33530  16.379  12.145   2.556  0.0914 -0.0337 -0.1121
13251W        W33531   6.843  18.540  11.461 -0.1426  0.0128 -0.4707
13252W        W33532  12.282   5.538   1.666  0.3372  0.0449 -0.1308
13253W        W33533   0.755   9.588  10.626  0.1021 -0.0966 -0.3011
13254W        W33534  18.712  12.249  12.577  0.0392  0.1458 -0.1693
13255W        W33535   2.783   2.915  11.648  0.1187  0.0160  0.1965
13256W        W33536   9.266   1.504  12.602 -0.2640 -0.1120 -0.1916
13257W        W33537  13.750  17.303   2.077  0.0839  0.1698 -0.0249
13258W        W33538   1.169   4.165   0.568 -0.0160  0.1329 -0.0840
13259W        W33539   9.108   0.243   1.692  0.0329 -0.2472  0.1299
13260W        W33540   7.731   8.258  13.163  0.4668 -0.3863  0.2908
13261W        W33541   8.685   8.648   2.237  0.1853 -0.0262  0.1848
13262W        W33542  13.220   4.340   0.701  0.1331  0.0009 -0.2441
13263W        W33543   6.780   3.349   3.056 -0.0001 -0.2577 -0.1748
13264W        W33544  11.238   0.976  11.234 -0.1898  0.2095 -0.4424
13265W        W33545  10.048  15.422  13.477 -0.2286  0.1313 -0.0149
13266W        W33546  11.922  11.189  11.339 -0.1771  0.0854  0.1145
13267W        W33547   9.201   1.350   3.978  0.1888  0.0304 -0.2286
13268W        W33548  13.729   9.280   4.282  0.0839  0.1648  0.2245
13269W        W33549  16.646  13.312   3.052 -0.0618 -0.3515 -0.1841
13270W        W33550  18.432  17.938   2.702 -0.0628  0.1577 -0.1095
13271W        W33551  17.228   4.594  14.061  0.0281  0.0872 -0.0243
13272W        W33552  17.758   3.456   4.128  0.1592  0.0245  0.2045
13273W        W33553  14.080   7.323  11.939 -0.2051  0.1302  0.3255
13274W        W33554   8.298   7.169   5.397 -0.2370  0.2202  0.1276
13275W        W33555   3.109   6.767   3.145 -0.0222 -0.3626 -0.1260
13276W        W33556  10.866   1.472   3.153  0.1330 -0.3925 -0.0445
13277W        W33557  18.624  10.143  11.846 -0.1338 -0.5423 -0.0695
13278W        W33558  16.446   8.859   1.874  0.2663 -0.0163  0.0254
13279W        W33559  14.037   9.674  13.617  0.0330  0.2700 -0.0223
13280W        W33560  18.575  10.483  10.316  0.0847 -0.1871  0.0705
13281W        W33561  10.514  10.122  10.900  0.1576  0.2656 -0.0276
13282W        W33562  11.747  10.061   1.918 -0.4555 -0.0538 -0.1598
13283W        W33563   2.576   5.372  12.755 -0.2070 -0.2117 -0.0188
13284W        W33564  16.782  14.554  14.238  0.0049  0.3776 -0.0815
13285W        W33565  17.270  18.552  12.324  0.0085  0.0042  0.1551
13286W        W33566   0.235   2.649  14.200 -0.0145  0.0675 -0.4266
13287W        W33567   2.114   4.956   0.390  0.0231  0.1778 -0.1271
13288W        W33568  11.912  13.951  13.058 -0.0638 -0.1242 -0.0630
13289W        W33569   1.318   7.271  12.322  0.1661  0.2348 -0.2006
13290W        W33570   4.979  12.776   1.446  0.1937 -0.0390 -0.1956
13291W        W33571   1.319   4.645   0.734  0.0287 -0.0384  0.0906
13292W        W33572   5.231   4.900   0.733 -0.2585  0.1041  0.0995
13293W        W33573   6.417  18.971  12.234 -0.0700  0.3227  0.2503
13294W        W33574  17.453   8.717   2.903 -0.2085 -0.1058 -0.1585
13295W        W33575  14.845   1.240   2.565  0.0616  0.0770 -0.1967
13296W        W33576   8.633  16.343  11.006  0.0747  0.1858  0.0991
13297W        W33577  14.531  12.202  14.206  0.0311 -0.0475  0.1439
13298W        W33578  15.329   4.334   3.587 -0.0361  0.4220 -0.1489
13299W        W33579  16.066  17.845   2.732  0.0777  0.0443 -0.0347
13300W        W33580  17.393   7.721  11.921  0.1283 -0.0800 -0.1018
13301W        W33581   1.317  17.217  14.169 -0.3906  0.1343 -0.3511
13302W        W33582   7.822   9.248  12.244  0.4930 -0.0983  0.1472
13303W        W33583  14.127  15.347   3.257 -0.5787  0.4164  0.1071
13304W        W33584  18.971   7.844  12.407 -0.1739 -0.0736 -0.0637
13305W        W33585  13.058  14.194   1.624  0.1037 -0.2032  0.1486
13306W        W33586   6.944  11.002  14.259  0.2039 -0.0328 -0.0051
13307W        W33587  19.427  19.423   9.777 -0.0641 -0.0083  0.2248
13308W        W33588  17.162  16.956  10.920  0.0136  0.1103  0.1318
13309W        W33589  17.165   8.549  12.728 -0.0395 -0.1816 -0.2426
13310W        W33590  10.646   6.398  13.042 -0.0375 -0.0819 -0.0146
13311W        W33591  10.943   1.410   0.574 -0.0737 -0.1319  0.0223
13312W        W33592  15.749   9.577   1.773  0.1033 -0.2434  0.1766
13313W        W33593   8.170   8.101  11.575  0.0873 -0.0837 -0.2027
13314W        W33594  10.866  16.926  13.236  0.1725 -0.2610  0.0880
13315W        W33595   1.378  16.140  11.953  0.1002 -0.1227  0.4090
13316W        W33596   8.401  16.046   0.440 -0.0412  0.2772 -0.1137
13317W        W33597  17.227   1.874   1.369  0.3538  0.2933  0.0723
13318W        W33598   8.548  17.832   3.374  0.2302 -0.0141  0.1142
13319W        W33599  12.599  18.036   0.166  0.3217 -0.1002 -0.2619
13320W        W33600   9.172  18.606   0.903  0.0004 -0.1602 -0.2117
13321W        W33601  18.715  13.919   2.783 -0.0491  0.0826  0.3444
13322W        W33602   3.070  14.755   2.513  0.1047  0.1879  0.0382
13323W        W33603   1.788   5.857   0.306 -0.2748 -0.1295 -0.1392
13324W        W33604   6.582   0.279   0.263 -0.3904 -0.1290 -0.1742
13325W        W33605   6.297  13.404  14.106 -0.1946  0.1842  0.1574
13326W        W33606   8.170   8.279   1.425 -0.0490 -0.1052  0.1708
13327W        W33607  14.180  13.865   0.143  0.0897 -0.1159 -0.2159
13328W        W33608   1.082  11.724   0.953  0.2114  0.2493  0.3724
13329W        W33609  16.823  14.209   2.150  0.0277 -0.4259 -0.2611
13330W        W33610   8.018  10.667  12.543  0.2351  0.1697  0.3278
13331W        W33611  19.200   4.147   4.122  0.0219  0.3001  0.0184
13332W        W33612   1.226   5.498  12.425  0.0847 -0.1420  0.1998
13333W        W33613   9.459  12.641  11.181  0.1123 -0.0949 -0.0910
13334W        W33614  10.367  12.061   3.473 -0.0938  0.3974 -0.1457
13335W        W33615   3.803   5.059  13.811  0.1812 -0.1952 -0.0439
13336W        W33616   1.972  17.692   1.118 -0.0830  0.0169  0.1853
13337W        W33617  12.896  14.385  11.559 -0.2861 -0.0395  0.0156
13338W        W33618   6.343   0.039  13.570  0.0361  0.2539 -0.1513
13339W        W33619   2.258  14.301   2.356  0.0579  0.1691  0.3546
13340W        W33620  16.566   0.249   0.048 -0.2311  0.3341  0.1416
13341W        W33621  17.084   9.649   0.314  0.2208 -0.0157  0.1816
13342W        W33622   6.236   8.953   1.286 -0.0747 -0.0814 -0.0224
13343W        W33623   3.496  16.754  14.371 -0.0573  0.2042  0.1514
13344W        W33624  15.195   9.687  11.782  0.0505 -0.1428  0.0953
13345W        W33625  18.544   0.015  10.834  0.1513  0.0794 -0.1180
13346W        W33626  15.143   5.740   0.992  0.0938  0.0124  0.0260
13347W        W33627  16.501   5.539   3.053 -0.1430  0.1849  0.1826
13348W        W33628  10.462  16.605   3.798  0.2672 -0.4102  0.1539
13349W        W33629  13.587   8.071   9.528  0.0113 -0.1511 -0.0818
13350W        W33630   4.770  14.526  13.581  0.4033 -0.0398 -0.1335
13351W        W33631  18.707  12.704   3.052  0.3708  0.0442  0.0336
13352W        W33632   8.536   9.413  11.840  0.1636  0.1003 -0.1082
13353W        W33633   0.868   3.237   1.607  0.0885  0.1063 -0.3391
13354W        W33634  16.630  13.619  14.048  0.0515 -0.0521  0.0929
13355W        W33635   8.156  15.165   2.529  0.2220 -0.4866  0.0149
13356W        W33636   1.470   2.019  12.538  0.0955 -0.1223  0.1284
13357W        W33637   5.333   6.053   2.336 -0.0088  0.0401 -0.0414
13358W        W33638  12.599  10.181   3.291  0.4113 -0.0573 -0.0206
13359W        W33639  14.182   4.920   5.402  0.2113 -0.1117  0.2369
13360W        W33640   2.655  19.218   1.658  0.0967 -0.1188  0.1049
13361W        W33641   1.287  18.826   2.915  0.0841 -0.2479  0.1563
13362W        W33642   4.774   3.552   3.527 -0.0992  0.1405 -0.0168
13363W        W33643  12.200   3.452   1.636 -0.3885 -0.1002  0.1098
13364W        W33644  12.421   6.910   4.108  0.0974  0.2193 -0.1047
13365W        W33645   3.713  16.164  10.572 -0.0382  0.1409 -0.0963
13366W        W33646  14.420  12.765   1.659 -0.3085  0.0433 -0.3989
13367W        W33647  16.010  11.463  12.763  0.3822 -0.0617  0.0249
13368W        W33648   1.884   1.299  11.987  0.1245 -0.0417 -0.0717
13369W        W33649   8.909  14.441   4.790  0.1892 -0.0668  0.0952
13370W        W33650   3.557   5.100   0.415 -0.2353  0.0064 -0.0095
13371W        W33651   1.768  14.683  14.046 -0.0563  0.3401 -0.0949
13372W        W33652   0.231   7.360  10.674 -0.1458 -0.0695 -0.2165
13373W        W33653   3.026  16.684  13.113 -0.2984  0.1359 -0.4542
13374W        W33654  12.662   2.824   1.369  0.1457  0.0759 -0.1839
13375W        W33655   4.643  11.915  10.521  0.0566 -0.0416  0.0753
13376W        W33656  13.195   6.175  12.984  0.0737  0.0173  0.2362
13377W        W33657   5.379  11.848   0.120  0.2632  0.2544  0.0188
13378W        W33658   2.163  14.494  13.043  0.4106 -0.0348 -0.0777
13379W        W33659   8.463   4.927   2.392  0.1077  0.1769 -0.0783
13380W        W33660  19.127   9.554  13.513  0.1087  0.0530  0.2076
13381W        W33661  17.115  15.019  12.323  0.0760  0.2837 -0.1092
13382W        W33662   4.593  17.282   0.672  0.1026  0.0903  0.1543
13383W        W33663   6.550   6.666  11.941 -0.1760 -0.1202  0.0390
13384W        W33664   6.643  13.072   1.279 -0.2212 -0.2146 -0.1795
13385W        W33665  11.520   7.996  11.696  0.1830  0.1840 -0.0164
13386W        W33666  17.765   6.886  11.491 -0.1094  0.1623 -0.0661
13387W        W33667  16.170   6.306  12.472  0.0620 -0.5138  0.0075
13388W        W33668  15.908   0.125   0.647 -0.1525 -0.0111  0.0561
13389W        W33669   3.504  12.973   3.872  0.1005  0.0171  0.1053
13390W        W33670  11.622  19.077  13.174  0.1295 -0.2601 -0.0206
13391W        W33671   9.457  12.477  12.603 -0.2301 -0.3579 -0.0537
13392W        W33672   3.409   5.362   3.481 -0.0051 -0.1513 -0.0438
13393W        W33673   6.098  15.950   1.862  0.0625  0.0855 -0.0617
13394W        W33674   5.354   5.727   3.238  0.0619  0.1244  0.1032
13395W        W33675   9.272  18.136  14.436  0.0061  0.0484  0.0902
13396W        W33676  19.162   5.834   1.540  0.0530  0.1203 -0.1514
13397W        W33677  17.754   4.543  13.023  0.1055 -0.0429  0.2083
13398W        W33678  18.595  10.052  12.436  0.4293 -0.2314  0.1560
13399W        W33679   7.896  12.639   3.189 -0.0899 -0.0579 -0.3696
13400W        W33680   6.565  18.565   0.836  0.2799  0.1439 -0.0690
13401W        W33681  13.176   6.485   0.257  0.3620  0.2863 -0.0397
13402W        W33682  16.729  14.703   2.301 -0.1128 -0.2656 -0.1150
13403W        W33683  16.297   1.262   2.146 -0.2442 -0.2373  0.0071
13404W        W33684  13.205  19.142  12.153 -0.1648 -0.1366 -0.1544
13405W        W33685   8.810  17.974   2.215  0.3096  0.2230 -0.0655
13406W        W33686  15.455  12.286   1.267 -0.2149  0.3289  0.0041
13407W        W33687  17.151   4.115  14.188 -0.1551  0.0728 -0.3194
13408W        W33688  17.934  19.246  13.085 -0.1227  0.0474  0.2546
13409W        W33689  13.648   6.104  13.725 -0.1667  0.1336 -0.0356
13410W        W33690   5.916   0.866   2.133  0.1984  0.0906 -0.4042
13411W        W33691  12.542   4.011  13.077  0.5235  0.0324  0.1373
13412W        W33692  14.104   6.123  13.402 -0.1211 -0.1040 -0.0914
13413W        W33693   7.738   4.753   0.325  0.0198 -0.2175 -0.2043
13414W        W33694   3.495   2.985  11.090  0.0061  0.3431  0.1231
13415W        W33695   4.211   8.306  14.333  0.0289 -0.0099  0.0083
13416W        W33696  11.080   3.105   3.258  0.1171 -0.2023 -0.6340
13417W        W33697   2.128   6.519   0.788 -0.2742  0.2694  0.1178
13418W        W33698   7.665   0.891   3.455  0.3721  0.0882 -0.1826
13419W        W33699   1.430  17.089   4.115  0.1005 -0.4972 -0.2396
13420W        W33700   4.088  11.303  13.569 -0.0943  0.1626  0.1322
13421W        W33701  18.434  11.447  13.394 -0.2897  0.0785 -0.1844
13422W        W33702  14.524  16.133   4.112  0.0111  0.3976 -0.1882
13423W        W33703  12.815   7.791   3.941  0.1322  0.1481  0.0538
13424W        W33704   9.604   1.822   3.864 -0.0051 -0.0135  0.1421
13425W        W33705   8.856   5.100  11.628 -0.1749  0.2859  0.3376
13426W        W33706   9.408   0.205   2.486  0.3156 -0.1473 -0.0374
13427W        W33707  11.197   5.545  11.204 -0.2731  0.0986 -0.0155
13428W        W33708  15.117   3.298   3.879  0.0363  0.0605  0.1616
13429W        W33709  10.947  16.510   0.178  0.0346 -0.1910 -0.2291
13430W        W33710  14.232   6.824  10.983 -0.3374 -0.2491 -0.0444
13431W        W33711  13.636   6.064  13.206 -0.0686 -0.1044 -0.3412
13432W        W33712  19.385   1.133   0.018  0.0194  0.0285 -0.0528
13433W        W33713   4.354   9.262   1.941  0.1276 -0.5002 -0.3236
13434W        W33714  16.185  17.333   5.193 -0.2290  0.1082 -0.1106
13435W        W33715  10.387   1.121   3.416  0.2498  0.0562  0.2668
13436W        W33716   0.648  16.978   0.852 -0.3688 -0.3402  0.4165
13437W        W33717  15.414  12.539   3.602  0.1227 -0.2671 -0.3753
13438W        W33718   3.735  12.265   1.369  0.4248  0.2284 -0.3420
13439W        W33719   5.976  10.426  11.322 -0.0590 -0.1296  0.1725
13440W        W33720   8.977   5.786   3.924  0.0055 -0.0931  0.1070
13441W        W33721   1.709   4.803   3.858 -0.1144  0.1771  0.4963
13442W        W33722   3.297   0.050  12.703  0.0802  0.1236  0.0915
13443W        W33723   8.356   7.386   3.232  0.0655 -0.0205  0.0365
13444W        W33724   2.774  10.299  10.933  0.3491  0.3043 -0.0935
13445W        W33725  14.282  14.482  11.378  0.2743  0.0793 -0.1165
13446W        W33726   7.311   3.462  12.062  0.1371 -0.1700 -0.2120
13447W        W33727  12.006  14.298   2.991 -0.1097  0.2595  0.3638
13448W        W33728  13.931   3.890   1.226  0.1482 -0.1760 -0.1763
13449W        W33729  14.074   8.900   1.487  0.0248 -0.0392 -0.0973
13450W        W33730   1.056   2.628   0.250  0.2229 -0.0758  0.1909
13451W        W33731  15.746  12.264   0.862  0.2103 -0.0614  0.0339
13452W        W33732  18.830  18.385  11.671  0.1383 -0.0346 -0.0661
13453W        W33733   3.222   1.360   5.094 -0.0362 -0.0022  0.1209
13454W        W33734   3.267   6.401   2.639  0.2637  0.0322 -0.2246
13455W        W33735   7.965   8.770   1.436 -0.1156 -0.4102 -0.1230
13456W        W33736  10.721  12.311  13.543  0.0784 -0.0408 -0.2545
13457W        W33737   3.736  11.654  11.384 -0.1955 -0.0482  0.2037
13458W        W33738  15.543  17.531  10.879 -0.3239  0.0422 -0.0050
13459W        W33739   0.476   5.520  11.202  0.3214 -0.3749  0.0306
13460W        W33740   9.938   8.210   1.369  0.4721 -0.0234  0.3642
13461W        W33741  19.103   7.767   3.184 -0.0345 -0.2040  0.2833
13462W        W33742   2.016  10.266  10.157  0.0830 -0.0640 -0.0178
13463W        W33743  12.839   1.375   0.631  0.1120 -0.0517  0.1722
13464W        W33744   5.469   9.160  11.050 -0.1703  0.1813 -0.3074
13465W        W33745  12.102   9.569   0.312 -0.2609 -0.1489  0.1613
13466W        W33746  12.963  17.123   3.395  0.0472 -0.1070 -0.2130
13467W        W33747   1.696   3.674  11.268  0.1644  0.3116 -0.1213
13468W        W33748   1.110  12.460  10.706  0.0440  0.2296  0.1203
13469W        W33749   4.298  14.276   2.203 -0.1300  0.0472  0.0607
13470W        W33750  14.367  13.521  12.686  0.1511 -0.1115  0.1504
13471W        W33751  10.028  16.694   0.253 -0.3148 -0.1240 -0.1103
13472W        W33752  12.229   4.054  12.620  0.1787  0.3407 -0.1778
13473W        W33753  12.005   3.819   2.820 -0.0381  0.4181 -0.0481
13474W        W33754  12.355   4.694   1.742  0.0227 -0.0310  0.0581
13475W        W33755   4.748  11.810   2.347  0.1467  0.1779  0.1064
13476W        W33756  16.214   8.435   0.677 -0.0765 -0.1326  0.0652
13477W        W33757  17.144   6.199  14.254 -0.4326 -0.1783  0.1346
13478W        W33758  11.346  16.921  10.979  0.1157  0.0812  0.1128
13479W        W33759  17.285   8.625  11.185  0.1403 -0.0888 -0.3056
13480W        W33760   3.485   3.774  13.977  0.1679 -0.1830  0.1627
13481W        W33761   3.257   1.566  10.245 -0.2789  0.0151  0.0487
13482W        W33762  12.732  18.442  14.339 -0.0513 -0.0559 -0.0634
13483W        W33763   9.725  15.963  11.648  0.1630  0.0499  0.2814
13484W        W33764  16.230   2.054   2.576  0.1531 -0.1335  0.2028
13485W        W33765  13.528  15.115   3.525  0.0807  0.1844  0.2632
13486W        W33766  16.632  17.006   1.673 -0.0359 -0.0150  0.0638
13487W        W33767   9.157  17.862   0.388  0.0375 -0.1945  0.0730
13488W        W33768  17.426  10.589  13.126 -0.3429  0.0175 -0.2079
13489W        W33769  15.841  14.454   1.354  0.1117 -0.0317 -0.0412
13490W        W33770  18.412   8.356   3.224 -0.0921  0.2340 -0.2774
13491W        W33771   5.824  18.547   1.953  0.0811  0.3771  0.1880
13492W        W33772   2.124   6.941   2.728 -0.0557  0.2159 -0.0915
13493W        W33773  11.215  15.894   3.728 -0.0094  0.1782  0.0171
13494W        W33774  10.307  19.015   1.055  0.0635 -0.3115 -0.3553
13495W        W33775  17.099  12.184  11.585  0.3917 -0.2936 -0.2498
13496W        W33776   2.014   7.789   9.289 -0.1839  0.2065 -0.1557
13497W        W33777  12.615   7.386  11.124 -0.1198 -0.4605  0.0274
13498W        W33778   9.389   1.420   1.407  0.0330 -0.0404  0.2507
13499W        W33779   0.133  10.566   0.453 -0.0694  0.1418 -0.1775
13500W        W33780   8.025  16.884  13.810  0.0950  0.2203  0.2227
13501W        W33781   9.715   2.437  12.331  0.3140 -0.1882 -0.1230
13502W        W33782  18.734   3.578  12.372 -0.1145 -0.0217 -0.1175
13503W        W33783   0.598  13.537   1.020 -0.4242 -0.0682 -0.0405
13504W        W33784   0.286  11.110   4.510  0.0051 -0.0640 -0.0305
13505W        W33785   9.799   5.376  12.656  0.3207  0.1362  0.2091
13506W        W33786   6.115  13.651  11.672 -0.2836  0.1260  0.0483
13507W        W33787  17.590  16.976  13.322 -0.1922 -0.1299 -0.1614
13508W        W33788  15.958   8.603   3.919  0.1973  0.0536 -0.0357
13509W        W33789   8.858   9.963   2.746 -0.2888  0.1673 -0.0617
13510W        W33790  11.219   9.934  11.299 -0.2622 -0.0500  0.0189
13511W        W33791   0.067   2.693   0.816 -0.2104 -0.0926 -0.0096
13512W        W33792  13.267   8.784   5.173  0.1036  0.0565  0.0701
13513W        W33793   9.757   1.895  13.061 -0.0705 -0.0741  0.1025
13514W        W33794   0.327   7.720   3.064 -0.0998  0.0612 -0.2941
13515W        W33795  12.705  15.739   2.372 -0.0339  0.0377 -0.0797
13516W        W33796  12.815   4.796  14.467  0.1157  0.0378 -0.1030
13517W        W33797  18.251   5.676  14.497  0.3892  0.0543  0.2412
13518W        W33798   2.580  13.481   1.949  0.0611 -0.1261  0.0512
13519W        W33799   6.595   9.270   1.345  0.1820  0.0013 -0.4445
13520W        W33800   5.464   8.301  10.647 -0.1870 -0.1161  0.0572
13521W        W33801   0.732   5.402   0.130 -0.1275  0.1514 -0.3071
13522W        W33802   2.447  17.836   3.321  0.3061 -0.1066  0.0941
13523W        W33803   9.376   7.391  11.312  0.2075 -0.1486 -0.1952
13524W        W33804  11.366  17.077   1.520  0.1584 -0.1296  0.0230
13525W        W33805  15.957   3.065  12.321 -0.1527  0.0550 -0.1613
13526W        W33806   8.924  11.005  12.249  0.0006  0.0564 -0.0228
13527W        W33807  15.752  14.437  12.782  0.5458 -0.1406  0.1410
13528W        W33808   1.814  18.357   1.939 -0.0834 -0.0737 -0.0844
13529W        W33809  18.630  11.786   3.306 -0.3945 -0.1071 -0.1328
13530W        W33810  10.691  10.131   0.813 -0.3909 -0.1272  0.0911
13531W        W33811   7.182   3.777   1.589 -0.2919  0.0725 -0.0679
13532W        W33812  11.825  12.618   2.323  0.0077 -0.2637 -0.1633
13533W        W33813  17.091   1.709  12.596  0.0027  0.2095  0.0020
13534W        W33814  13.266   4.414   4.066  0.3278  0.4046  0.1819
13535W        W33815  10.680  11.728  10.538  0.1294  0.3408  0.1951
13536W        W33816  14.367   7.069   1.089  0.1104 -0.0522  0.3269
13537W        W33817   9.103   8.711  12.305  0.0455  0.1513 -0.0091
13538W        W33818  16.314  10.067  12.887  0.0864  0.1388 -0.0116
13539W        W33819   0.245  19.182  13.828  0.1134 -0.1487  0.0527
13540W        W33820  17.320   3.997  12.956 -0.1061  0.2431  0.0362
13541W        W33821  11.908  19.307  10.666  0.1393 -0.0114 -0.2351
13542W        W33822   8.052   6.762  11.578 -0.2699 -0.1168 -0.3116
13543W        W33823   7.674  19.198   2.660 -0.0697  0.1894 -0.0920
13544W        W33824   9.527   4.379   2.544 -0.0006 -0.0145 -0.0420
13545W        W33825  14.777   1.383  12.122 -0.2831  0.0040  0.1400
13546W        W33826  11.722   6.399  13.101 -0.1548 -0.1099 -0.1013
13547W        W33827   0.883  11.468  13.461  0.0301 -0.1463  0.1049
13548W        W33828   3.460   1.408   0.193 -0.4278  0.0128  0.0569
13549W        W33829  12.446   0.811  13.549  0.3132  0.1585  0.0277
13550W        W33830  19.201   5.157   0.281  0.1989 -0.1612  0.3747
13551W        W33831  18.607   7.885   3.052  0.1205 -0.0087  0.0756
13552W        W33832   3.151   6.467   0.454 -0.4724 -0.1450 -0.2294
13553W        W33833  12.058  19.218   0.460 -0.0492 -0.1364 -0.1827
13554W        W33834   9.689  16.133   2.742  0.3752 -0.3801 -0.1651
13555W        W33835  11.503   6.889   0.385 -0.2802 -0.2125  0.4315
13556W        W33836  16.273   4.828   3.576  0.1472 -0.4607 -0.1247
13557W        W33837  10.997   8.950   4.949  0.0855  0.1454 -0.0527
13558W        W33838   5.962  11.308   3.846 -0.1851  0.1599 -0.4735
13559W        W33839  17.006   9.802  10.677  0.0888  0.3536 -0.1085
13560W        W33840  16.620   4.673   1.364  0.1903  0.0467  0.0242
13561W        W33841   7.231  15.672   1.673  0.1787  0.1773 -0.2278
13562W        W33842   9.608  19.339   1.618  0.1109 -0.1335  0.2794
13563W        W33843   8.119  18.651  11.715  0.1627  0.1501  0.0684
13564W        W33844   7.270  13.086   3.578 -0.1100  0.1345 -0.2125
13565W        W33845  11.941  16.186   0.217 -0.0355  0.0790  0.2391
13566W        W33846   6.465  11.142   3.630  0.2700 -0.0461 -0.2358
13567W        W33847  10.722   0.245  12.366 -0.0475 -0.3590 -0.0024
13568W        W33848  11.134   7.122   2.159  0.0512 -0.1387  0.1612
13569W        W33849   3.151   1.724  12.382 -0.1149 -0.0695  0.1586
13570W        W33850  12.489  17.802   3.760 -0.0756  0.0116  0.0307
13571W        W33851  10.171  16.216   1.953 -0.0144  0.3050  0.0551
13572W        W33852   2.080   0.417  12.205  0.0988 -0.0887  0.0908
13573W        W33853   9.587   6.857   4.675 -0.2080  0.1343  0.0193
13574W        W33854  18.902   9.609   1.103  0.0665  0.1657  0.1765
13575W        W33855   5.539   3.532  11.824 -0.0964  0.1283  0.2651
13576W        W33856   1.830   5.484   3.308 -0.2987 -0.0385 -0.0403
13577W        W33857  18.137  10.358  11.612  0.1156 -0.2739 -0.2167
13578W        W33858  15.921  18.963   3.441  0.4378  0.2942  0.2381
13579W        W33859   8.079   0.377   2.107 -0.0214  0.2155  0.1361
13580W        W33860   9.158   4.986   0.921  0.1841  0.1227 -0.1613
13581W        W33861   8.497  17.320  13.522 -0.0167 -0.0456  0.2569
13582W        W33862   1.596  13.548   1.281 -0.2506  0.3581  0.1120
13583W        W33863   2.047   2.436   2.323  0.1559 -0.2384 -0.0797
13584W        W33864  12.606   3.410  10.826 -0.1881  0.0452 -0.0109
13585W        W33865   7.057   0.490   1.270 -0.1077  0.3675  0.1303
13586W        W33866   9.662  17.064   0.487  0.3739  0.2382 -0.0712
13587W        W33867   5.990   4.035  13.135  0.3190  0.0083 -0.1555
13588W        W33868  10.455   0.999  10.920 -0.1895  0.0121  0.1904
13589W        W33869   9.947  18.990   3.088 -0.1607  0.1993 -0.1161
13590W        W33870   0.188  13.730  12.809 -0.1363  0.0281  0.0229
13591W        W33871  11.287  14.021   1.736  0.0696  0.1250 -0.0964
13592W        W33872   5.619   1.637  12.494 -0.0197 -0.0285  0.1752
13593W        W33873   9.011  14.354   2.340  0.1932 -0.2020  0.1544
13594W        W33874   0.715  14.727   1.639  0.2316  0.0654 -0.3008
13595W        W33875  19.274   8.497  14.157 -0.4380 -0.1885 -0.2695
13596W        W33876   3.664  18.324  12.713  0.1526  0.1364 -0.0969
13597W        W33877  15.964   0.407  11.264 -0.2327  0.0070 -0.1609
13598W        W33878  16.087  14.907  13.606 -0.2132 -0.1252  0.0202
13599W        W33879  10.500  11.385   3.716 -0.1682  0.3156 -0.0281
13600W        W33880  14.098   7.976   1.801  0.2179 -0.0164  0.1738
13601W        W33881   0.765  15.016   1.179  0.3929 -0.0570  0.0138
13602W        W33882   8.792   2.436  11.248 -0.1278  0.2511  0.1692
13603W        W33883  12.675  11.144  12.990 -0.0956  0.5719 -0.0858
13604W        W33884   1.644  14.220   2.389  0.0873 -0.2242 -0.3643
13605W        W33885  13.182   0.093  10.919  0.0676 -0.2332 -0.4710
13606W        W33886  16.490   8.439  10.539  0.3769 -0.0980 -0.0558
13607W        W33887  10.030  18.965   2.544  0.0317 -0.1106  0.1288
13608W        W33888  19.251  17.306   2.292  0.2289 -0.0819  0.0035
13609W        W33889  12.192  16.488   3.632 -0.2471  0.1719 -0.0674
13610W        W33890   8.455   8.993   1.626  0.1216  0.3651  0.0044
13611W        W33891  12.146  12.484   3.328 -0.2613 -0.0176  0.0966
13612W        W33892   3.998   8.739   1.092 -0.0191 -0.0780  0.1877
13613W        W33893   5.344  10.511   2.732 -0.2416  0.0370 -0.0035
13614W        W33894  10.155   8.407   4.828  0.1085 -0.1599  0.1771
13615W        W33895  14.436   0.395   0.627  0.0711  0.1325  0.3122
13616W        W33896  13.382   8.318  13.750 -0.1615 -0.0776  0.3297
13617W        W33897  13.818   4.543   2.674 -0.1249  0.2371 -0.0457
13618W        W33898  12.993  18.937   2.587  0.0055 -0.1097  0.0171
13619W        W33899   2.888  19.419  13.092 -0.2285 -0.2339 -0.1354
13620W        W33900   8.272  19.287  13.058 -0.4043 -0.1685 -0.2842
13621W        W33901   0.403   8.604  13.954 -0.2008 -0.1039  0.1648
13622W        W33902   7.638  10.072   4.170  0.1441 -0.3642  0.0840
13623W        W33903   6.884  12.753  11.076  0.2332  0.3524  0.0817
13624W        W33904  19.090  15.368   1.873  0.5273 -0.2364 -0.0351
13625W        W33905  13.345   0.615  11.058 -0.0035 -0.2000  0.2843
13626W        W33906   6.222   1.570   2.544  0.1007 -0.0002  0.0348
13627W        W33907  18.566   3.046   3.903  0.2845 -0.3002  0.4457
13628W        W33908   0.493   2.092  12.567  0.0223 -0.4535 -0.3032
13629W        W33909  12.527   7.666  13.125  0.3488  0.0273 -0.2199
13630W        W33910   7.769   7.552   0.292 -0.2358 -0.0560  0.2604
13631W        W33911   2.400   0.993  13.001 -0.1188 -0.3138 -0.0162
13632W        W33912  13.284   8.999   1.998  0.1754 -0.0175 -0.4317
13633W        W33913   0.861   5.825   0.524  0.0027  0.0183 -0.0627
13634W        W33914  12.491   0.548   5.622 -0.1177 -0.0494  0.0438
13635W        W33915  19.380   7.543  11.253  0.1281  0.2304  0.1119
13636W        W33916  14.102   7.016   2.660 -0.1647  0.0154  0.0509
13637W        W33917   2.611   7.028   2.707  0.1092 -0.3055 -0.3927
13638W        W33918   6.576  18.694   2.512  0.2054 -0.0280 -0.2673
13639W        W33919  16.691  17.306  11.867  0.2824  0.1417 -0.1859
13640W        W33920   7.912  13.464   0.855  0.2063  0.0910  0.1008
13641W        W33921  13.625  10.572  10.595 -0.2346 -0.1098  0.0032
13642W        W33922   2.265   8.205   0.022 -0.0227  0.0818 -0.2789
13643W        W33923   3.424   7.462  14.073 -0.1942  0.1057  0.0648
13644W        W33924  17.777  16.483  13.389  0.0446 -0.1409 -0.0169
13645W        W33925  18.245  19.067  14.148  0.2598  0.0743  0.1663
13646W        W33926   2.568   9.281  11.494  0.2341  0.0104  0.0635
13647W        W33927  14.196   9.631   3.655 -0.3028 -0.0808  0.0283
13648W        W33928  16.787  17.403   0.716  0.0048 -0.0786 -0.0191
13649W        W33929   3.588  14.546   1.313  0.1099 -0.1657 -0.0190
13650W        W33930  17.854  18.625  10.908  0.3211  0.0358 -0.2003
13651W        W33931   1.132  12.877  12.743 -0.4621 -0.1807 -0.2054
13652W        W33932   9.783   4.221   0.765 -0.3948 -0.1598  0.0500
13653W        W33933  16.702   9.655   2.728 -0.1239 -0.0721 -0.3466
13654W        W33934  14.203   4.018   1.644  0.0109  0.1172  0.0677
13655W        W33935  12.867  15.783   1.942  0.0464  0.1787 -0.1015
13656W        W33936  16.331  17.737   0.952  0.1436 -0.1085  0.1335
13657W        W33937  11.732  19.392   2.345 -0.2739 -0.1845 -0.0721
13658W        W33938  15.713   5.330   1.031  0.4739  0.1916 -0.0048
13659W        W33939  13.970  14.845  11.167  0.0517  0.3176 -0.0416
13660W        W33940  13.532  11.928   0.111 -0.3157 -0.0293 -0.3680
13661W        W33941   1.796  16.339   3.562 -0.1337 -0.0029  0.0997
13662W        W33942   0.338   8.411   0.731 -0.0385  0.1836  0.1080
13663W        W33943  14.006   2.107  12.986  0.1693  0.2756  0.1226
13664W        W33944  18.724  18.180   2.346 -0.2411  0.2049 -0.0414
13665W        W33945   3.465   1.143  11.089  0.2534 -0.0245 -0.2137
13666W        W33946  15.277  18.174  13.006 -0.1473 -0.1248 -0.1182
13667W        W33947   8.496  15.064   3.647 -0.4407 -0.2838  0.1611
13668W        W33948   7.075   7.614  10.407  0.0557 -0.0560  0.0529
13669W        W33949   3.896   2.732  14.259 -0.1410  0.1501  0.0372
13670W        W33950   5.752   7.174  11.956  0.0383 -0.2524  0.2074
13671W        W33951   5.738   1.508   0.712  0.1087  0.0394 -0.0600
13672W        W33952  14.650  11.206  13.689 -0.2183 -0.0940 -0.2114
13673W        W33953  19.067  16.509   2.934  0.0409  0.1483  0.3370
13674W        W33954  18.936  18.072  13.448 -0.2618 -0.2407 -0.1764
13675W        W33955   6.428   6.827   1.440 -0.2332 -0.3881  0.0149
13676W        W33956  15.438  14.420   0.041  0.2647  0.2740 -0.0104
13677W        W33957  15.669  15.641   1.425 -0.0082 -0.0322 -0.0183
13678W        W33958   8.704   6.645   0.131 -0.1858 -0.4056  0.2647
13679W        W33959  13.295   8.599   3.933 -0.1271  0.1262  0.0558
13680W        W33960   8.600   2.846  13.444 -0.2111 -0.0285  0.1278
13681W        W33961   9.310  16.070  12.539  0.1911 -0.1863  0.0127
13682W        W33962  10.551   4.822   1.262 -0.2455  0.1775  0.4680
13683W        W33963  15.221  15.538  12.505 -0.3550 -0.0638  0.1537
13684W        W33964   0.592  16.127   4.222  0.1853  0.0382  0.2042
13685W        W33965   3.680  17.231   2.430  0.0902  0.2059 -0.0130
13686W        W33966  18.546  17.527   0.261  0.4995  0.1197 -0.3566
13687W        W33967  16.889  12.762  13.264 -0.2648 -0.2068 -0.3301
13688W        W33968  10.744  13.705  10.757 -0.0169  0.0501 -0.0989
13689W        W33969  10.410   1.636   3.721 -0.2956  0.0028 -0.1286
13690W        W33970   5.786  18.684   0.137 -0.0482 -0.0139  0.4690
13691W        W33971  13.269   2.212   0.288  0.1693  0.0139 -0.3690
13692W        W33972   8.488  15.603  14.484 -0.1325 -0.1360  0.4388
13693W        W33973   2.566   2.762  13.610 -0.4044  0.0758  0.2605
13694W        W33974   5.815  14.115  10.535  0.0512 -0.2749 -0.1448
13695W        W33975  12.417   6.144   0.959  0.2264 -0.2692  0.1282
13696W        W33976   1.123  19.311   0.882  0.3318 -0.0741  0.0328
13697W        W33977  14.116   8.571  10.335 -0.1689 -0.2177  0.2847
13698W        W33978  17.448  17.549  12.845  0.1521 -0.1712  0.1166
13699W        W33979   5.871   8.061   4.306  0.0364 -0.1494 -0.2272
13700W        W33980   8.826   4.415   3.546 -0.1703  0.1579  0.0989
13701W        W33981  18.384  13.439  10.937 -0.2072  0.0276  0.0741
13702W        W33982  14.905  13.199  12.948 -0.1168  0.0967  0.2269
13703W        W33983   2.598  10.575  13.056  0.1119 -0.3168  0.1713
13704W        W33984   0.481   5.058  12.369 -0.2034 -0.2720 -0.1941
13705W        W33985   0.828  12.558  11.909  0.0314 -0.2370 -0.2426
13706W        W33986  18.661  11.863  10.461 -0.2234  0.0125  0.2397
13707W        W33987   9.801  14.853  12.689 -0.1342 -0.0923  0.2437
13708W        W33988  17.788  12.590   1.617  0.2682  0.0308  0.3114
13709W        W33989   4.463   6.978   0.068  0.0738 -0.1820  0.2042
13710W        W33990   7.349   7.774  13.389  0.0743  0.0571  0.2925
13711W        W33991  13.864  12.176  11.675 -0.0368 -0.0131 -0.3264
13712W        W33992  14.641   6.529   2.203 -0.0204 -0.4219  0.1026
13713W        W33993  17.257  16.136  11.152  0.0867 -0.0908  0.0802
13714W        W33994  13.169  10.570  14.157 -0.0171 -0.0495  0.0359
13715W        W33995  11.775   7.617  12.181  0.4530 -0.4857 -0.0836
13716W        W33996  16.812  19.289   2.704 -0.3551  0.0482  0.2078
13717W        W33997  19.059  16.522  13.739  0.2563  0.1503 -0.0634
13718W        W33998   9.565  13.533  11.052  0.1837  0.0760 -0.1456
13719W        W33999  15.598  17.374  12.077 -0.0736  0.2180 -0.0282
13720W        W34000   5.529  12.293   0.115 -0.0878 -0.0011  0.2667
13721W        W34001  12.131   8.989   4.087 -0.1371  0.1172 -0.1299
13722W        W34002  12.316  13.954  10.695 -0.2292  0.3093  0.0047
13723W        W34003  11.796   1.585   1.433 -0.0338  0.2964  0.2323
13724W        W34004  10.027   8.359   0.689  0.2762  0.1027  0.0553
13725W        W34005  14.176   2.026   2.649  0.2453  0.2466 -0.1131
13726W        W34006  15.163  19.337   3.055  0.0304 -0.2762 -0.0602
13727W        W34007  15.519  11.268  11.030  0.0517 -0.0742  0.1565
13728W        W34008   3.339  15.538   0.986  0.2071 -0.1946 -0.2501
13729W        W34009  17.083   5.049  13.221  0.1716  0.1539 -0.2430
13730W        W34010   7.676   7.022   2.382  0.3233  0.0092  0.1647
13731W        W34011   2.775  13.451  10.404 -0.1867 -0.0053 -0.0160
13732W        W34012   9.897  13.485   2.428  0.4023 -0.0997  0.0315
13733W        W34013  11.678  17.337   2.566 -0.0075  0.0037  0.0397
13734W        W34014   2.214   3.215   0.258 -0.3409  0.0026 -0.0509
13735W        W34015   8.366  14.239  12.529 -0.1192 -0.1252 -0.0817
13736W        W34016  17.818   3.060   2.384  0.2390 -0.0473 -0.1732
13737W        W34017  11.225  12.555   4.167  0.1869  0.1158 -0.4330
13738W        W34018   7.396  17.652   2.092 -0.3029 -0.2012  0.3479
13739W        W34019  15.877  17.568  10.382  0.0293  0.0251 -0.1841
13740W        W34020   8.771   4.497   9.532 -0.0364  0.0460  0.0361
13741W        W34021   3.662  10.916  10.988 -0.1344  0.0115  0.0450
13742W        W34022  11.258  17.524   1.326 -0.0930 -0.4342 -0.2172
13743W        W34023   2.134  12.900  10.453 -0.0848  0.2767 -0.0037
13744W        W34024  16.151   3.350   9.785 -0.0318  0.1747  0.0177
13745W        W34025  10.195   5.138  13.526  0.4076 -0.0842 -0.4388
13746W        W34026   6.861   2.530  10.562 -0.1892 -0.2578 -0.2301
13747W        W34027   4.290  12.207  11.682  0.0660 -0.1538  0.0627
13748W        W34028   9.845  10.311  14.497 -0.1786 -0.2110  0.1210
13749W        W34029  10.403   4.334  11.767  0.1258 -0.0227 -0.0591
13750W        W34030  12.715   5.569   1.497 -0.0462 -0.0626  0.6011
13751W        W34031  11.240  18.643  11.525 -0.1431 -0.0975  0.1369
13752W        W34032  13.325  14.812  13.398  0.0666 -0.0671 -0.1085
13753W        W34033  11.046   4.027   4.041  0.1172 -0.0609 -0.1432
13754W        W34034   5.622  17.288   9.860 -0.2518  0.1780  0.0845
13755W        W34035   5.988   3.495  12.201  0.2693  0.1886  0.0532
13756W        W34036   2.496   0.444  13.196  0.1070  0.3141  0.1294
13757W        W34037  16.617   6.848   2.635 -0.1703 -0.0699 -0.1039
13758W        W34038   4.361   1.705   2.478  0.2508  0.2542  0.0529
13759W        W34039   0.057  13.094   0.360 -0.2950 -0.1232  0.0043
13760W        W34040   9.788   0.846   2.133  0.0772 -0.1871  0.3425
13761W        W34041  11.005  17.273   0.870  0.0428 -0.1675 -0.0377
13762W        W34042  13.300  10.090  14.338 -0.3122  0.1691  0.1233
13763W        W34043  17.378  12.675  13.446  0.3930 -0.0442  0.0568
13764W        W34044   9.595   3.924   2.668  0.1616 -0.0425  0.1954
13765W        W34045  14.761   3.072   3.178 -0.0172 -0.2071 -0.0117
13766W        W34046   0.912   8.735  13.984  0.3206  0.0014 -0.0168
13767W        W34047   6.532  14.053   2.839  0.1272  0.0148 -0.0084
13768W        W34048  16.491  17.242  11.015  0.1311 -0.0264  0.0287
13769W        W34049  10.707  10.450  10.127 -0.1498 -0.2284 -0.0230
13770W        W34050   6.464   0.121  13.081  0.1560 -0.1298 -0.2088
13771W        W34051   6.009  14.515  13.542 -0.2414  0.3000 -0.2108
13772W        W34052   9.417  16.695  14.136  0.0783 -0.1707  0.4185
13773W        W34053  16.157  18.693   1.563  0.0442  0.0772  0.1177
13774W        W34054   8.131   9.290  11.514  0.2651  0.2684  0.2958
13775W        W34055   1.821  10.218  10.756 -0.1068  0.1952 -0.0570
13776W        W34056   7.175  14.286  11.844  0.0392  0.1954  0.1724
13777W        W34057  15.835  14.749   1.784  0.3696  0.0118  0.2059
13778W        W34058  16.149   0.398   1.003  0.1958  0.1403 -0.2835
13779W        W34059   8.575  13.159   3.224 -0.1775 -0.0756  0.1871
13780W        W34060   0.994   8.290  11.364 -0.3001 -0.2709  0.1443
13781W        W34061   5.115   9.598  11.984 -0.0195 -0.2144 -0.1051
13782W        W34062  11.313   6.687   0.788 -0.0487  0.0683 -0.1371
13783W        W34063   0.717   9.073   0.938 -0.0506 -0.1681 -0.1080
13784W        W34064   9.351  12.149  11.399 -0.3279 -0.1152 -0.0236
13785W        W34065   6.925   6.576  12.872 -0.1224 -0.1504  0.1975
13786W        W34066   4.898  12.953  13.849  0.0945  0.2407 -0.1671
13787W        W34067  15.481   7.621  11.016 -0.1113 -0.2592  0.2086
13788W        W34068  18.957   6.539  13.375  0.2003  0.2239 -0.3223
13789W        W34069   4.143  11.451   3.682  0.1645 -0.2295 -0.1430
13790W        W34070  17.254  19.381   1.901  0.4315 -0.1980  0.0189
13791W        W34071  15.958   3.164  14.021  0.1464 -0.3383 -0.0618
13792W        W34072   0.965  13.826   1.851  0.2108  0.1202 -0.1651
13793W        W34073  15.897  17.125  13.854 -0.1601  0.0834  0.2776
13794W        W34074  12.788   1.777   2.766  0.1396  0.0259 -0.0156
13795W        W34075  17.611   9.839   0.150  0.3162 -0.1645  0.0015
13796W        W34076   7.974  10.381   1.732 -0.1833 -0.3325 -0.2269
13797W        W34077   7.432   2.397   9.906  0.1492 -0.1116  0.1337
13798W        W34078  12.648   6.089   0.009  0.0492 -0.1512 -0.3595
13799W        W34079  17.761   2.149   3.675 -0.1196  0.0275 -0.0455
13800W        W34080   3.041   8.490  13.861  0.0873  0.1038  0.1936
13801W        W34081  13.803   0.267  11.629 -0.2370 -0.1056 -0.0532
13802W        W34082  14.854  18.373   2.871 -0.0159 -0.2644  0.0214
13803W        W34083  10.539   4.995  11.093  0.2032  0.0781  0.0512
13804W        W34084  14.944  18.001   4.150 -0.2553 -0.1910 -0.4142
13805W        W34085   5.120  19.020   2.157 -0.1728  0.2859  0.0315
13806W        W34086   3.220   6.283  11.985 -0.0452 -0.0603  0.0056
13807W        W34087  12.793   6.177   3.977 -0.2429 -0.0389  0.1956
13808W        W34088   2.660  19.008  13.898  0.4161  0.0352 -0.0316
13809W        W34089   9.923   8.302   3.903 -0.0053 -0.0414  0.2781
13810W        W34090   0.006   9.941  13.323  0.1630  0.2867 -0.1397
13811W        W34091  11.578  18.792   3.576 -0.0687  0.2924 -0.1688
13812W        W34092   1.121   9.986   1.074 -0.0426  0.2689 -0.1863
13813W        W34093   7.861  14.497   3.076  0.2893 -0.0605  0.1468
13814W        W34094   4.001   6.199  14.075  0.2475  0.2919  0.2302
13815W        W34095   7.166  18.390   3.782  0.0046 -0.0402 -0.0953
13816W        W34096  13.902   3.256   1.155  0.1069 -0.0363  0.2261
13817W        W34097  13.974  19.067   2.563 -0.2488  0.3937 -0.2333
13818W        W34098   7.555  17.681   1.410 -0.0447  0.1953 -0.0192
13819W        W34099   1.878  11.103  11.126 -0.1224  0.3022 -0.1188
13820W        W34100   4.161   4.371   0.730 -0.0071 -0.0090 -0.1297
13821W        W34101  19.313  11.618   1.900  0.0682 -0.0300 -0.0436
13822W        W34102  16.578   1.140  13.417  0.1968  0.3434  0.3375
13823W        W34103  13.582  14.852   4.089 -0.2298  0.1285  0.0158
13824W        W34104  12.869  13.534   0.479 -0.1621 -0.2314 -0.0512
13825W        W34105  17.577  13.900  13.815 -0.4563 -0.1083 -0.0525
13826W        W34106   3.558   3.131   2.407 -0.1841  0.1477  0.0036
13827W        W34107  13.598   2.418   3.348  0.2632 -0.2059 -0.0041
13828W        W34108  13.571   4.355   4.522 -0.3112  0.0918  0.5476
13829W        W34109  16.251  15.199   3.944  0.2444 -0.1914  0.0749
13830W        W34110  19.182  15.726   4.167 -0.0422  0.0748  0.2184
13831W        W34111   1.717  18.370  12.210 -0.0519 -0.2927  0.0854
13832W        W34112  13.700  16.952   1.208 -0.5616  0.3399  0.1134
13833W        W34113  18.027  10.918  14.195 -0.1057 -0.1059 -0.0962
13834W        W34114  19.368  11.500  11.035  0.1488 -0.3859 -0.0822
13835W        W34115   8.397   0.885  11.581 -0.1810 -0.4494 -0.0428
13836W        W34116  17.997   8.025  14.264  0.0929 -0.1694  0.4672
13837W        W34117   5.621   1.912   3.618  0.1350 -0.3079 -0.0641
13838W        W34118  19.037  15.085  11.739 -0.0215  0.1917 -0.0197
13839W        W34119  17.259   8.100   0.821  0.0190  0.2735 -0.2217
13840W        W34120  12.445   1.207  12.867  0.1911  0.1379 -0.3495
13841W        W34121   4.788  13.773  13.741  0.1511  0.0301 -0.0153
13842W        W34122  11.401   5.339  12.829 -0.0334  0.1484  0.0822
13843W        W34123  10.650  14.438   4.167  0.1976 -0.2254  0.1520
13844W        W34124   5.685  14.903  13.737  0.0496 -0.1277  0.0636
13845W        W34125  12.462   6.441   4.289  0.1662  0.3877 -0.1538
13846W        W34126  16.228   0.511   2.751 -0.0897  0.2961 -0.2478
13847W        W34127  10.410   0.533   3.912 -0.2872 -0.1809  0.0826
13848W        W34128  19.185  15.011  10.504  0.1047  0.0627 -0.0527
13849W        W34129   7.167  11.270   1.722 -0.2882 -0.1859  0.0280
13850W        W34130   3.717  11.613   3.396  0.0069 -0.1426 -0.2741
13851W        W34131   3.610   4.769   2.220 -0.1874  0.3136  0.1625
13852W        W34132   7.571  16.257  13.691 -0.1204  0.1422 -0.1637
13853W        W34133  15.642  15.356  11.433 -0.1360  0.0414  0.0325
13854W        W34134   4.118   3.174  13.525 -0.4019 -0.0893 -0.1402
13855W        W34135  12.924   3.524  11.196  0.2079  0.1633  0.0185
13856W        W34136   1.123   7.380  13.844  0.0045  0.0153  0.1500
13857W        W34137  12.538   0.174  12.403 -0.1146 -0.1154 -0.0777
13858W        W34138  17.521   1.493  13.484 -0.0254  0.3609  0.1074
13859W        W34139   5.455  14.612  12.738  0.0614  0.0551 -0.0177
13860W        W34140  18.166   6.313  14.075  0.0466 -0.3370 -0.0933
13861W        W34141   8.008   2.645   2.523  0.1553 -0.1110 -0.0634
13862W        W34142  16.809  11.857   4.296  0.0101  0.1250 -0.1304
13863W        W34143  10.196  19.242  10.823  0.2546 -0.0163 -0.2645
13864W        W34144  12.354   4.930  13.710  0.2576  0.2169 -0.3353
13865W        W34145  12.112  12.729  14.071  0.1728  0.3372  0.0052
13866W        W34146  12.648  11.005  13.464 -0.2180 -0.0580  0.0939
13867W        W34147  11.249   8.695  10.840  0.2067  0.0509 -0.0822
13868W        W34148  18.286  14.360  12.287  0.0242  0.3101  0.2249
13869W        W34149  11.938  15.605  13.663  0.1329 -0.1373  0.0812
13870W        W34150   3.796   4.953   2.679 -0.0125  0.0400 -0.1838
13871W        W34151   1.071  15.759   3.350 -0.1907 -0.2282 -0.1955
13872W        W34152   3.351   3.707   0.142 -0.0698 -0.0601 -0.1179
13873W        W34153   9.453   9.224   2.730  0.1265  0.0506  0.0216
13874W        W34154   9.021  15.613   2.403 -0.2965 -0.0694  0.2016
13875W        W34155  13.182  15.623  12.924 -0.0912 -0.3490  0.1309
13876W        W34156  12.624   0.052  13.254 -0.4352 -0.2068  0.1012
13877W        W34157   6.908  13.635   0.799  0.1132 -0.0355  0.1053
13878W        W34158   5.615   8.421   0.748 -0.1927  0.0057 -0.1225
13879W        W34159   5.339  14.121  10.546 -0.1712 -0.0854  0.0657
13880W        W34160  17.941  11.220   0.210 -0.0544 -0.1004  0.0501
13881W        W34161  12.446  10.522   9.633  0.1534  0.1568  0.1490
13882W        W34162  16.488  17.696  12.823 -0.2040  0.0101 -0.2432
13883W        W34163   8.003   9.814  10.530 -0.3133  0.0985  0.3831
13884W        W34164   2.752   4.809   1.053  0.1937  0.0297 -0.0783
13885W        W34165   2.508  18.699   3.645  0.1602  0.1881  0.1204
13886W        W34166   0.926   2.242   2.714 -0.1107 -0.0944  0.2091
13887W        W34167  11.716   2.342   3.465  0.1729  0.2094 -0.2199
13888W        W34168   1.175   6.882  11.992 -0.0410  0.1555 -0.2946
13889W        W34169   7.078  12.659   2.590  0.0556 -0.2587  0.0101
13890W        W34170   8.230  10.877   2.414 -0.3497  0.3112  0.0168
13891W        W34171  18.894   8.365  13.314  0.0038  0.1323  0.0188
13892W        W34172   6.273  12.133  13.453  0.1882 -0.0246 -0.0141
13893W        W34173  14.805   1.912  10.313  0.0315 -0.2084  0.0286
13894W        W34174   8.259   6.196  10.409 -0.2478 -0.1820  0.0335
13895W        W34175  13.902   9.336   0.577 -0.5568 -0.0542  0.0553
13896W        W34176  10.763  15.285   0.677 -0.1299 -0.3201 -0.0553
13897W        W34177   6.219  15.402   2.669  0.1279  0.2069  0.1271
13898W        W34178   0.790   7.523   1.354 -0.1514  0.0856  0.0032
13899W        W34179   5.690  12.849   3.168 -0.3965 -0.2997  0.0755
13900W        W34180   7.193  15.203   1.565  0.0100  0.4296 -0.3062
13901W        W34181  14.645  16.820   2.043  0.0677  0.3624 -0.0001
13902W        W34182  12.871   1.105  12.639 -0.0564  0.0828  0.3613
13903W        W34183  16.043  17.132   2.249 -0.1154  0.1166 -0.1265
13904W        W34184  17.775   6.808   0.985  0.1031  0.0410 -0.0543
13905W        W34185  10.245   0.832   2.443  0.1731 -0.1333 -0.0227
13906W        W34186  15.226   4.673  13.978 -0.1321 -0.0774  0.0405
13907W        W34187  17.694  17.879   4.061 -0.2508  0.1231  0.2312
13908W        W34188   5.540   0.556   4.603  0.0967 -0.0327 -0.2262
13909W        W34189   2.740  14.032  11.144 -0.0317 -0.0050 -0.1610
13910W        W34190  15.948   0.595   0.573 -0.1195  0.3812  0.1373
13911W        W34191  17.938  13.077   0.913  0.0477 -0.0328 -0.1775
13912W        W34192   8.304   2.481  12.018  0.0110 -0.0464 -0.0443
13913W        W34193   7.641  16.485  12.275 -0.2601 -0.1766 -0.0259
13914W        W34194   3.489   9.132   3.361  0.2475  0.0457  0.0074
13915W        W34195  10.895   3.480  13.006  0.0294 -0.0635 -0.3601
13916W        W34196  10.581  14.497  11.223 -0.1215 -0.1093 -0.0450
13917W        W34197   8.891   7.601   0.394 -0.1232  0.2325  0.1883
13918W        W34198   8.178   3.573   1.492 -0.3681 -0.1663  0.2416
13919W        W34199  18.118  15.423  14.064  0.2230 -0.1504  0.0424
13920W        W34200   5.996  12.200  10.925 -0.1132 -0.0976  0.2126
13921W        W34201  12.061  17.862   1.722  0.2238  0.2634 -0.1161
13922W        W34202   2.326   3.369  12.533 -0.1722 -0.0682  0.1981
13923W        W34203   5.627  17.419  12.322  0.0531 -0.0213 -0.1078
13924W        W34204   9.145   6.317   3.505 -0.2593  0.0775  0.1549
13925W        W34205  12.914   3.546   2.996  0.1416 -0.3474 -0.1889
13926W        W34206  16.037   3.574   2.264  0.2437 -0.1831  0.0170
13927W        W34207   9.840  13.933  11.432  0.3687  0.3040  0.3395
13928W        W34208  18.103  15.842   4.953 -0.2060 -0.2002  0.2231
13929W        W34209  16.130   4.729  13.876  0.1094 -0.2079 -0.1854
13930W        W34210  13.824   0.906   2.715  0.1242 -0.0303  0.2945
13931W        W34211  16.365  11.762   4.982  0.1198  0.0763 -0.0826
13932W        W34212  10.051   0.821  12.770  0.2025 -0.1732  0.2197
13933W        W34213  12.827  17.064  10.814  0.0624 -0.1097 -0.0931
13934W        W34214  13.414  10.731  11.863 -0.3259 -0.3458 -0.0978
13935W        W34215  10.112   6.611  10.931 -0.1012 -0.2710  0.0015
13936W        W34216  15.257  18.757  11.780  0.2727  0.1101  0.1206
13937W        W34217   0.617   3.560   1.277 -0.1266 -0.1844 -0.3377
13938W        W34218  14.185  14.377  11.843  0.0868  0.0458 -0.1819
13939W        W34219   7.336   5.516  11.319  0.2733 -0.2430  0.1603
13940W        W34220  12.134  17.348   0.939  0.1792 -0.2619 -0.0185
13941W        W34221   1.461   6.434   1.948  0.5537 -0.2004 -0.1836
13942W        W34222  11.146   1.300   1.060 -0.0316 -0.1822 -0.0189
13943W        W34223  17.259  12.953   3.580 -0.2259 -0.2529 -0.0182
13944W        W34224  16.170  12.036   3.018  0.1001 -0.1900 -0.0204
13945W        W34225   0.198   7.158   2.042 -0.1871  0.0297 -0.0094
13946W        W34226   1.307   2.966   1.890  0.0833 -0.0038  0.1079
13947W        W34227  17.519  17.470  14.081  0.1701 -0.2826 -0.0247
13948W        W34228   1.457  14.171  10.565 -0.2099 -0.1230 -0.0065
13949W        W34229   0.922  14.009   2.477  0.0463 -0.0513  0.1828
13950W        W34230   0.404   0.627   3.054  0.1412 -0.1241 -0.0549
13951W        W34231   4.976  10.109  10.975  0.2164 -0.0052 -0.1813
13952W        W34232  17.193  17.589   4.290  0.0761 -0.2280 -0.5033
13953W        W34233   6.784  18.706  12.518 -0.3118 -0.1488  0.1910
13954W        W34234  12.365   5.668  14.062 -0.0972 -0.3577 -0.1242
13955W        W34235  16.607   9.841   1.712 -0.1513  0.0041  0.0189
13956W        W34236   7.749   8.948  10.440 -0.2589 -0.2874  0.0731
13957W        W34237   5.903  16.314   2.212 -0.1426 -0.1925 -0.0418
13958W        W34238  18.349  12.750  13.662  0.0086 -0.1733 -0.0347
13959W        W34239  11.921  13.328   1.707  0.0656  0.2922  0.3730
13960W        W34240  18.117   2.450  13.101 -0.1622  0.0092 -0.0884
13961W        W34241  14.534  13.073   3.654  0.1629 -0.0767  0.0747
13962W        W34242   1.443  12.276   2.314  0.0599  0.4168  0.2547
13963W        W34243   3.348   4.938   2.883  0.0226 -0.0837 -0.2424
13964W        W34244  11.505  14.730  11.381 -0.2626  0.1807  0.0090
13965W        W34245  19.272   0.638   3.080 -0.1678 -0.1078  0.0516
13966W        W34246   0.317  17.883   0.319 -0.1390  0.0367  0.0377
13967W        W34247  17.054   0.772   0.885 -0.2118 -0.0016  0.1639
13968W        W34248   8.925   2.469   2.125  0.1310  0.0800  0.2257
13969W        W34249   4.439   9.548  14.081  0.1989  0.2140 -0.0578
13970W        W34250   1.290   7.914   1.939 -0.1893 -0.0437 -0.3389
13971W        W34251  12.099   8.610   1.692  0.0571 -0.1418  0.3760
13972W        W34252  10.795   1.368  14.422 -0.1495  0.1547  0.1075
13973W        W34253  17.129   2.263   1.057 -0.0217  0.1033 -0.0529
13974W        W34254   1.669  13.425   3.796  0.1580  0.0952 -0.2785
13975W        W34255  19.377  15.395   3.741 -0.0371  0.0627  0.1961
13976W        W34256  18.366  12.000   0.274  0.0411  0.1639 -0.0455
13977W        W34257   3.447   1.213   4.277  0.0440 -0.1995 -0.2631
13978W        W34258   2.580  16.109  11.082 -0.0445 -0.0980  0.3254
13979W        W34259   8.756  17.760  13.943  0.2152 -0.3973 -0.1855
13980W        W34260  15.658  12.909   0.208  0.3758  0.0753  0.3561
13981W        W34261  10.235   3.921  13.491 -0.1204 -0.3947  0.0530
13982W        W34262  14.798   7.533  10.819 -0.0151  0.0438 -0.0043
13983W        W34263  10.146   2.146  10.313 -0.1233 -0.1210  0.0710
13984W        W34264  16.043   5.151   3.082  0.1204 -0.0605 -0.2121
13985W        W34265   3.937   6.201  12.637 -0.0311 -0.0543  0.0594
13986W        W34266  15.346   1.159   9.582 -0.0950  0.0860 -0.0998
13987W        W34267   0.341   8.516   3.156  0.0501 -0.1867 -0.2542
13988W        W34268   2.139  16.885  11.081  0.2750  0.2326  0.0796
13989W        W34269  13.006  16.936   0.968 -0.3375  0.1891 -0.1084
13990W        W34270   2.466   5.079  12.227 -0.3414  0.0938 -0.1270
13991W        W34271   3.413  14.289  13.489  0.2023  0.1314  0.2584
13992W        W34272   5.370  18.429  12.600 -0.1706 -0.3010 -0.1910
13993W        W34273  19.193  14.861   1.088  0.1655  0.1645 -0.2441
13994W        W34274   3.258  13.382   1.848  0.1656 -0.2146  0.2063
13995W        W34275   5.551  14.838  11.572  0.0294 -0.2826 -0.0812
13996W        W34276   0.663  16.575  14.026 -0.3812  0.2498 -0.0213
13997W        W34277   7.980   7.465  12.925  0.1915 -0.2035 -0.0518
13998W        W34278  10.129  18.348   1.305 -0.3520  0.3339  0.0289
13999W        W34279   7.556   7.449   2.749 -0.0546  0.0306  0.3355
14000W        W34280   9.729  14.370   4.171 -0.2632  0.2130 -0.0231
14001W        W34281  19.210  13.372   1.793  0.0482 -0.3897  0.0725
14002W        W34282  10.764   4.316  11.422 -0.1104  0.1694 -0.1388
14003W        W34283   2.532  10.318   4.757 -0.1887  0.0389  0.3796
14004W        W34284   0.147   3.119  14.399 -0.1239  0.1487  0.0326
14005W        W34285  11.547  15.382  12.249 -0.1431 -0.0145  0.2777
14006W        W34286   5.204   0.670  13.772  0.0228  0.1673 -0.2142
14007W        W34287   3.875  19.353  13.331 -0.0766 -0.0418 -0.3628
14008W        W34288   2.224  15.440  13.863  0.0079  0.0644 -0.1080
14009W        W34289   1.116  16.845  11.541  0.0857 -0.0923 -0.1184
14010W        W34290  16.825   1.266  14.223 -0.0686  0.1155  0.0359
14011W        W34291  14.098   5.895   4.304 -0.1902 -0.2019  0.3259
14012W        W34292   4.412   8.625   9.758  0.0473  0.0105  0.1922
14013W        W34293  11.038   7.543  14.253  0.3576 -0.2426  0.0516
14014W        W34294  14.067  17.176   1.545  0.2237  0.2348 -0.0519
14015W        W34295  16.955   3.286  13.222 -0.2388  0.1876 -0.0360
14016W        W34296  18.462   2.095   1.738  0.3065 -0.2616 -0.1812
14017W        W34297   9.803  16.352   2.283  0.0930 -0.1258  0.3599
14018W        W34298  10.916   9.155  11.580  0.2098 -0.1046  0.0335
14019W        W34299   3.020   7.239  11.822  0.1630  0.3244 -0.3061
14020W        W34300   1.459   9.311   0.061  0.0847  0.1686 -0.0506
14021W        W34301   4.020  16.743  14.078  0.1809 -0.1806 -0.0551
14022W        W34302  18.439  10.983   0.111 -0.4007  0.0039  0.0672
14023W        W34303  15.242   2.703   0.590 -0.0094 -0.1271 -0.2368
14024W        W34304   6.834  15.025   2.887  0.0637 -0.0959  0.2880
14025W        W34305   5.963   6.384  14.388 -0.1358 -0.0264  0.0046
14026W        W34306   0.957   8.648   2.284  0.0310 -0.1048 -0.2021
14027W        W34307  14.325  12.725   2.749  0.0286  0.0606 -0.1029
14028W        W34308   8.385   3.377   3.679 -0.2901  0.0672 -0.2828
14029W        W34309  18.154  14.129  10.055  0.0104 -0.0287  0.1417
14030W        W34310  13.744   8.484  11.318  0.0791 -0.0924 -0.0827
14031W        W34311   8.263  16.885   2.265 -0.0925 -0.2853  0.0603
14032W        W34312   5.600   1.357  11.128  0.0896 -0.3010 -0.0851
14033W        W34313   2.479  18.366   3.294  0.1410 -0.0192  0.0661
14034W        W34314   1.687  18.660   2.411  0.3195 -0.0414 -0.3247
14035W        W34315   7.222  11.770   1.141  0.2981  0.1044 -0.3121
14036W        W34316   6.298  13.582  11.114  0.3127 -0.1117 -0.1388
14037W        W34317   4.714   3.042   3.419  0.3459 -0.0901 -0.0409
14038W        W34318   5.902  11.233  14.383  0.1432  0.0546  0.1690
14039W        W34319  14.473  10.782  12.224 -0.0817  0.2068 -0.0609
14040W        W34320   3.943   7.796   0.641 -0.3030 -0.1824 -0.2452
14041W        W34321  13.823   9.767   4.154 -0.2546 -0.0093  0.2142
14042W        W34322  15.854  17.660   1.139 -0.3563 -0.3475  0.1094
14043W        W34323   3.404  11.084   9.998 -0.3424  0.3422  0.0718
14044W        W34324   0.609  15.065   3.011  0.0609  0.3160  0.0485
14045W        W34325  11.044   0.819  10.762 -0.0077  0.0471  0.1511
14046W        W34326   9.214  10.119   3.188 -0.1196 -0.0726  0.4300
14047W        W34327  17.320   8.459  10.646 -0.0144 -0.1755 -0.0234
14048W        W34328   1.243  18.680  14.015  0.0095 -0.2653  0.1319
14049W        W34329   6.717   6.303   1.956 -0.1238 -0.0126  0.0707
14050W        W34330  18.714   6.499   3.307 -0.2621  0.0400 -0.0738
14051W        W34331  18.441  19.359  12.113 -0.3548 -0.1243 -0.1228
14052W        W34332   7.674   8.189   3.808  0.0698  0.1122  0.1039
14053W        W34333  12.795   5.998   4.883  0.1056 -0.1804 -0.4057
14054W        W34334   8.303  11.117   3.406 -0.0342 -0.1626  0.2869
14055W        W34335  14.018  11.695   0.312 -0.1861 -0.1774  0.2677
14056W        W34336   2.307  18.101   3.759 -0.1426  0.0656 -0.0610
14057W        W34337   7.925   3.813   1.159  0.1315  0.1436  0.4206
14058W        W34338   8.339   0.581  14.206 -0.2067 -0.1859  0.3095
14059W        W34339   8.226   1.581   0.102 -0.0320  0.3445 -0.1130
14060W        W34340   4.732  19.039  11.690  0.1494  0.2425  0.1029
14061W        W34341   9.404   0.743  12.094  0.0966 -0.1117 -0.0003
14062W        W34342   4.033   0.759   0.305 -0.0143 -0.1533  0.0566
14063W        W34343   9.402  10.964  14.280  0.1663 -0.0683 -0.3140
14064W        W34344  19.282  11.532   0.361  0.1841  0.3533 -0.1119
14065W        W34345  13.142   8.542   2.452 -0.0137 -0.2259  0.1247
14066W        W34346   6.927   8.593  11.085  0.0794  0.2699  0.1263
14067W        W34347   8.711  17.685  11.228  0.1963 -0.2070  0.2640
14068W        W34348   1.302   8.445  14.258 -0.0314 -0.0191  0.0551
14069W        W34349  13.854   8.146   0.122 -0.1307  0.1063 -0.1087
14070W        W34350   8.059  19.218  11.426 -0.0054 -0.1752 -0.1176
14071W        W34351  18.887   6.925   3.016  0.1006  0.2199 -0.0098
14072W        W34352  14.193   7.267   1.525  0.3424  0.0279 -0.2371
14073W        W34353   2.086  15.086   0.588  0.1223 -0.0078 -0.0752
14074W        W34354   4.205  14.800   3.478 -0.2313  0.1340 -0.0645
14075W        W34355  11.466   9.172   3.006  0.3775  0.0338  0.2488
14076W        W34356   0.416   0.523   0.073 -0.0811  0.0276  0.1392
14077W        W34357   1.339   3.264   2.872 -0.0812 -0.1405  0.2547
14078W        W34358   6.056   5.257   3.102 -0.2100  0.2984 -0.0759
14079W        W34359  16.215   3.516   0.444 -0.0019  0.3352 -0.0923
14080W        W34360   9.092  10.380  13.066  0.0545  0.0421 -0.0334
14081W        W34361   4.520   6.122   3.272 -0.2847  0.0164  0.0877
14082W        W34362   7.716   9.618  10.927  0.0670  0.0674 -0.1054
14083W        W34363  15.261  17.026   1.925 -0.0945  0.0739  0.2907
14084W        W34364   0.140   1.943  12.940  0.2073  0.1328  0.0381
14085W        W34365   9.447  16.473  12.236 -0.0528 -0.0833  0.0282
14086W        W34366   0.612  13.711  13.067  0.1036 -0.0999  0.0470
14087W        W34367  18.164  13.464   4.135 -0.1198 -0.0576 -0.2008
14088W        W34368  18.085  15.209   2.483 -0.2762 -0.0576 -0.2562
14089W        W34369  11.077   6.362  14.372 -0.0747  0.1356  0.1475
14090W        W34370   6.748   2.385   4.055  0.0383 -0.1221 -0.0662
14091W        W34371  11.378   0.184   4.109  0.0379 -0.0995 -0.3474
14092W        W34372  14.680   1.793  12.406  0.0534  0.0846 -0.1576
14093W        W34373   1.782   0.522   4.781 -0.0519  0.1955 -0.0971
14094W        W34374  13.617   7.652   0.804  0.1181 -0.1457  0.0530
14095W        W34375   0.009  11.852  12.513 -0.0124  0.1065  0.1825
14096W        W34376  19.374  13.485  14.011 -0.2483  0.2021 -0.3586
14097W        W34377  17.688   3.490   1.469 -0.2861 -0.1561  0.0998
14098W        W34378  11.136  12.326   1.144 -0.1095 -0.0250 -0.0572
14099W        W34379  17.264  11.456  14.482 -0.3162  0.0003  0.0941
14100W        W34380  17.031  12.053   3.290 -0.1797  0.0752  0.1029
14101W        W34381  10.593  19.111   3.767 -0.0548 -0.0278  0.2626
14102W        W34382   2.911   0.923   0.641  0.0519 -0.0661  0.1875
14103W        W34383  11.970   8.162   2.855 -0.0450 -0.0719  0.2543
14104W        W34384   3.695  17.244  12.365 -0.2384  0.1126 -0.0558
14105W        W34385   8.270  11.501  11.164 -0.1586  0.2088 -0.0126
14106W        W34386  15.869  19.120   2.946 -0.0771  0.0881 -0.1756
14107W        W34387   6.617  14.976  10.780  0.1650  0.0093 -0.0313
14108W        W34388  17.780  14.018   1.231 -0.0153  0.0577 -0.1846
14109W        W34389  13.947   3.967  12.456 -0.1145 -0.1780  0.0704
14110W        W34390  13.363   5.020   2.458 -0.1614  0.1880 -0.1325
14111W        W34391   8.891  15.716  12.565  0.0761  0.0455  0.0397
14112W        W34392   8.499   7.554  11.713  0.2339 -0.3136  0.1006
14113W        W34393  15.978  16.632  11.497  0.0070  0.2809  0.2031
14114W        W34394   3.946   3.126   3.808 -0.1454  0.0956 -0.2000
14115W        W34395   8.519  14.308   3.563  0.1779 -0.0959 -0.0428
14116W        W34396   8.470   5.892   2.705 -0.1273 -0.1441  0.2044
14117W        W34397  13.548  18.204  13.280  0.3564 -0.0937  0.1452
14118W        W34398  10.690  17.287  14.413 -0.2415  0.3836 -0.4917
14119W        W34399   8.304   1.996  12.473  0.1065  0.0951  0.2234
14120W        W34400  16.959  17.480  13.836  0.0952 -0.1944  0.0734
14121W        W34401  16.362  10.270   2.048  0.0052  0.1675  0.0718
14122W        W34402  18.839   6.618   0.082  0.2250  0.0882  0.1882
14123W        W34403  10.816  16.426  13.718  0.2222 -0.1995 -0.0987
14124W        W34404   5.629   7.419   0.044 -0.0997 -0.0620  0.1460
14125W        W34405   4.582  18.869   3.369  0.1253 -0.0107 -0.0415
14126W        W34406   5.287  17.664  12.070  0.1447  0.1424  0.1480
14127W        W34407   3.068   1.743   1.400  0.1594 -0.2302 -0.1548
14128W        W34408  17.176  15.777  13.947  0.1960 -0.2914  0.1950
14129W        W34409  15.574  16.086   2.335 -0.0398  0.2209  0.2646
14130W        W34410  15.164  19.151  14.442  0.0072  0.0203 -0.2294
14131W        W34411  10.515  12.995  12.102  0.0299  0.1184  0.2278
14132W        W34412  15.751   6.576   3.254  0.2749  0.1558 -0.1252
14133W        W34413  19.376   6.200   3.913  0.3694 -0.1990  0.2716
14134W        W34414   6.371   2.559  10.737 -0.0745  0.1205  0.4138
14135W        W34415   0.612   6.113  11.350 -0.0321  0.1436 -0.1563
14136W        W34416   2.857  16.750  14.079  0.1297 -0.1302 -0.2227
14137W        W34417   2.247   9.104   2.294  0.0448 -0.1498  0.1626
14138W        W34418  16.581   9.646   3.241  0.1774 -0.0096  0.3204
14139W        W34419   0.604  14.481   0.040  0.0444  0.1193 -0.1367
14140W        W34420  15.067  15.918  12.191  0.3547  0.2535  0.2048
14141W        W34421  13.909   9.799  10.959 -0.2373 -0.0178 -0.0442
14142W        W34422  17.356   5.774  10.463  0.0713 -0.0749  0.1292
14143W        W34423   9.640   5.116  10.972  0.0050 -0.0194 -0.0167
14144W        W34424  16.996   3.005  12.379  0.0978 -0.3033  0.1723
14145W        W34425   3.574  14.685  13.163  0.0582  0.2914 -0.1634
14146W        W34426  12.626   8.655   2.573  0.0588  0.4527 -0.0770
14147W        W34427  14.134  15.153  13.281  0.0031 -0.2314  0.3040
14148W        W34428   6.713  15.274   3.340 -0.0880 -0.0221 -0.1223
14149W        W34429  18.267  10.576   1.172  0.1129 -0.2039 -0.2994
14150W        W34430  17.209   7.132   1.307  0.5639 -0.0655 -0.1498
14151W        W34431   4.714   0.229  12.585  0.1667 -0.0207 -0.1151
14152W        W34432  13.411   9.503  14.087 -0.4602  0.1392  0.0071
14153W        W34433   9.251  10.331   0.886  0.1550 -0.0322  0.0197
14154W        W34434  15.697  14.285   3.049  0.0520 -0.2635 -0.2125
14155W        W34435  10.947   8.436   4.783 -0.1835  0.0515  0.3758
14156W        W34436  17.542   6.287  13.395 -0.0462  0.0881  0.2476
14157W        W34437   9.665   6.746  12.332 -0.1617 -0.0988 -0.2839
14158W        W34438   9.646  14.007  12.922 -0.0928  0.0736  0.2754
14159W        W34439   0.364   7.558   1.833  0.0025  0.0199 -0.1411
14160W        W34440   9.018   4.984   3.635  0.1554  0.3224 -0.0891
14161W        W34441   5.729   5.723   0.382 -0.0412 -0.2207  0.1045
14162W        W34442   1.481   4.537   4.177  0.0365  0.0104 -0.0065
14163W        W34443   5.305   4.980  10.729  0.0857 -0.0134  0.2738
14164W        W34444   4.431   7.975   0.859  0.0557  0.0483 -0.1758
14165W        W34445   8.783  17.593  11.711 -0.3284  0.4136  0.1135
14166W        W34446  15.962  17.432  13.500  0.0362 -0.0901  0.0409
14167W        W34447   5.377   7.784  10.817 -0.1875  0.2696 -0.0211
14168W        W34448   2.273   8.604   1.455 -0.1452 -0.1473  0.2077
14169W        W34449  14.386   1.699  11.377 -0.1965  0.0047  0.1346
14170W        W34450  10.183   0.778   0.047  0.0444 -0.0097 -0.1466
14171W        W34451  12.019  16.225   3.257  0.0748 -0.0872  0.1301
14172W        W34452  18.518   9.161  10.707 -0.3765  0.0795 -0.4580
14173W        W34453   7.867   3.747   0.202  0.0214 -0.3438 -0.0024
14174W        W34454   3.805  18.899  13.581  0.3741 -0.2594 -0.0036
14175W        W34455   1.197   7.315   0.454  0.0799 -0.0074 -0.2039
14176W        W34456   5.586   6.314  12.639  0.0641 -0.1826  0.0490
14177W        W34457  14.929  11.820  14.180  0.0796 -0.0736  0.0580
14178W        W34458  19.184  14.943  13.245 -0.2280  0.2435 -0.2862
14179W        W34459   0.507  16.993   0.374 -0.2041 -0.0064  0.1655
14180W        W34460  15.785   8.200   1.768  0.1237  0.2033  0.0379
14181W        W34461  12.908  11.501   0.666 -0.0385 -0.1567 -0.1378
14182W        W34462   7.558  12.990   2.518 -0.1048 -0.0857 -0.0941
14183W        W34463  10.154  14.812  13.443 -0.1352 -0.0621  0.0474
14184W        W34464   7.088   0.551   0.150 -0.0729  0.1867 -0.1509
14185W        W34465  10.687   5.559   2.779 -0.0006  0.0292 -0.1452
14186W        W34466  18.832   5.448  12.968 -0.0428 -0.3701  0.0273
14187W        W34467  14.058  10.755  10.196  0.1133 -0.1329  0.1091
14188W        W34468   9.732  10.517  12.294 -0.2946 -0.1543  0.5869
14189W        W34469  14.323   0.102   3.225  0.0105  0.2225 -0.0611
14190W        W34470   3.229  10.629   2.672 -0.0391 -0.1253  0.1783
14191W        W34471  14.253   3.754  13.500  0.1141 -0.0831  0.1114
14192W        W34472  12.109  12.697   4.660 -0.1296 -0.0069 -0.0510
14193W        W34473  14.694   6.133   1.155  0.1395 -0.1670 -0.2451
14194W        W34474  13.535  19.116  13.811  0.1312 -0.1909  0.2990
14195W        W34475   8.628   8.275   1.632 -0.1274 -0.0330  0.2185
14196W        W34476  14.432  17.289  14.092 -0.2087 -0.1204 -0.1217
14197W        W34477   2.242   1.328  13.853  0.1713 -0.0803 -0.2681
14198W        W34478  18.200  18.012  11.877  0.0232 -0.0606  0.0375
14199W        W34479   6.758   5.978  11.182  0.0201  0.1148  0.1297
14200W        W34480  14.469  17.347  11.052 -0.0507 -0.0109 -0.1384
14201W        W34481  14.390  15.209  12.032  0.1947 -0.1564  0.0389
14202W        W34482  12.943   4.976  13.546  0.0966 -0.1305 -0.0692
14203W        W34483  19.264   7.690  10.710 -0.0746 -0.2199  0.1935
14204W        W34484  18.774  11.335   0.349  0.0357 -0.0959 -0.0478
14205W        W34485   5.661   0.208   1.014 -0.0843  0.0831 -0.4283
14206W        W34486  15.067  15.449  11.526  0.3111  0.1270  0.1753
14207W        W34487   3.230   9.048   0.806 -0.1041 -0.3547 -0.0013
14208W        W34488  11.398  12.902   3.236 -0.1321  0.2396 -0.2734
14209W        W34489  14.504   1.201  11.673  0.0174  0.0273 -0.0215
14210W        W34490   6.744   6.318  13.838 -0.1525 -0.2184  0.2987
14211W        W34491  15.741   3.675   0.862  0.1234  0.3493 -0.2882
14212W        W34492   3.533  10.803   3.086  0.4123 -0.1343  0.0537
14213W        W34493  13.790  14.756  13.288 -0.4690 -0.2869  0.1504
14214W        W34494  12.539  11.061   3.752 -0.0313 -0.0992 -0.0167
14215W        W34495   6.128   3.675  12.785 -0.0384  0.2521 -0.0739
14216W        W34496   2.589   9.976   1.123  0.0570 -0.0801 -0.1861
14217W        W34497   4.917  15.603  12.536 -0.2185 -0.0718 -0.1801
14218W        W34498   2.801   6.042  14.097 -0.1838  0.2086  0.1062
14219W        W34499   7.891   9.562  14.404  0.2853 -0.0500  0.1417
14220W        W34500   1.149   7.787   3.434 -0.1980 -0.1446  0.3100
14221W        W34501   2.915   7.715   1.574  0.0783  0.1076  0.0205
14222W        W34502   2.702  16.171   3.105  0.0960 -0.1236  0.0244
14223W        W34503  18.048   1.143   0.861  0.1571 -0.2687 -0.0453
14224W        W34504   7.632   5.680   0.653 -0.2045  0.5461 -0.2968
14225W        W34505  13.124  19.284   1.392 -0.1523  0.1339 -0.0011
14226W        W34506   1.393   8.066  12.981  0.0058 -0.0668  0.1129
14227W        W34507  19.113  11.125  12.777  0.0290  0.0774 -0.0876
14228W        W34508   6.703  17.846   3.464  0.0236  0.1626  0.1054
14229W        W34509  11.688   0.294  13.190  0.0001 -0.1488 -0.0978
14230W        W34510   7.403  10.070  10.765  0.7123  0.0142 -0.1837
14231W        W34511   0.203   4.661   3.841  0.4212 -0.2670  0.0519
14232W        W34512   7.058  11.458  14.354  0.2659 -0.2253  0.1346
14233W        W34513   4.101  10.571  13.128 -0.1358  0.1026  0.1175
14234W        W34514  18.861  17.013   1.664  0.0507  0.0054  0.1382
14235W        W34515   0.877  16.046  11.867  0.2738 -0.0094  0.0611
14236W        W34516   9.273   6.105   1.189  0.1542 -0.1862 -0.1956
14237W        W34517   1.434   7.334   0.958 -0.2582  0.3255  0.2584
14238W        W34518  14.689   7.538   2.209 -0.0465  0.1502  0.0304
14239W        W34519   7.958  17.696  11.863  0.0117 -0.0215 -0.2730
14240W        W34520  10.564  12.608  10.870 -0.0009  0.0478 -0.2541
14241W        W34521  14.474   5.719  10.703  0.1975 -0.0633 -0.2908
14242W        W34522   5.462   1.729  11.975  0.0532 -0.1110  0.0697
14243W        W34523  10.972   2.925   2.821  0.0604 -0.0112 -0.1638
14244W        W34524   1.109   6.281  12.618 -0.1713  0.0700  0.1215
14245W        W34525   5.327   4.521  12.741 -0.2225 -0.2811 -0.0459
14246W        W34526  18.651  15.860   1.323  0.1429  0.1865  0.0650
14247W        W34527   3.230  12.786   3.506  0.2974 -0.2966  0.3208
14248W        W34528   4.158   2.112   0.451 -0.0385  0.1042 -0.3768
14249W        W34529  18.023  15.338   3.507 -0.0984 -0.3071 -0.0800
14250W        W34530   3.545  18.095  12.146 -0.0051  0.2794 -0.0060
14251W        W34531  15.572   6.959   4.735  0.0007  0.0244 -0.1485
14252W        W34532   5.626   1.272  12.089  0.0365  0.2526 -0.2036
14253W        W34533  13.927  13.795   1.144  0.1866  0.0262 -0.1005
14254W        W34534   3.487   7.159   0.039 -0.0155  0.1406  0.1572
14255W        W34535  18.611  13.516  12.727 -0.1858 -0.1250  0.0623
14256W        W34536  16.673   8.148  11.461 -0.0463 -0.0238 -0.1120
14257W        W34537   9.118  14.496  13.372  0.2312 -0.1858  0.0242
14258W        W34538   1.143   6.215   1.603  0.0728  0.0125 -0.0780
14259W        W34539  15.467  14.736   1.439  0.1227  0.1117  0.1258
14260W        W34540  18.653  15.375   3.143  0.1738 -0.1999  0.0945
14261W        W34541  10.406  14.615  10.740 -0.0712  0.0314  0.2489
14262W        W34542  17.676   8.186  12.544 -0.1058 -0.0348 -0.0224
14263W        W34543  16.691   5.599  12.589 -0.1362 -0.1345 -0.0127
14264W        W34544  11.842   2.477  14.241  0.0033  0.0349  0.3112
14265W        W34545  18.238  13.822   1.275  0.4411 -0.3137 -0.4701
14266W        W34546  16.834  11.781  14.402 -0.1251 -0.0165 -0.3840
14267W        W34547   2.518   3.293  11.949 -0.0349  0.0502 -0.0372
14268W        W34548  19.257  16.411   2.456 -0.1350 -0.1063 -0.2998
14269W        W34549  10.217   7.135  13.313  0.0942  0.0402  0.0388
14270W        W34550   1.997  12.187   1.821 -0.0150 -0.1096  0.2574
14271W        W34551  19.282   2.770   5.295  0.1584 -0.0992 -0.1494
14272W        W34552  13.830  18.816   4.192  0.3503 -0.1217  0.0803
14273W        W34553  17.978   2.256  10.962  0.0094  0.0275 -0.1005
14274W        W34554   3.516   0.139   1.620  0.1670 -0.2736  0.0189
14275W        W34555  14.827   5.688   1.439  0.2185  0.2169  0.1276
14276W        W34556  15.106   3.665  11.305 -0.1937  0.2687  0.1994
14277W        W34557  19.363  15.542   9.635 -0.2597  0.0457 -0.1056
14278W        W34558   2.666   1.823   0.662  0.1071 -0.0183 -0.0283
14279W        W34559  11.708   5.597   0.786 -0.0880 -0.2488 -0.0351
14280W        W34560  11.686   0.729  11.005  0.1296  0.0562 -0.0546
14281W        W34561  15.800  10.247   3.532 -0.2304 -0.0712  0.1875
14282W        W34562  15.904  17.388  11.661  0.0995 -0.1142 -0.0172
14283W        W34563   6.784  16.534  11.593 -0.0812 -0.1031  0.1931
14284W        W34564  11.145   0.767   1.013 -0.0571  0.2471  0.1246
14285W        W34565  18.757   5.390  11.564 -0.1212 -0.1248  0.0566
14286W        W34566  18.169  14.753  13.313  0.2212  0.2463  0.3378
14287W        W34567  17.620   8.962  11.955  0.0325  0.2799  0.1193
14288W        W34568   2.507   0.088   0.323 -0.0135 -0.0548  0.2637
14289W        W34569   1.890   4.171   2.067  0.3503 -0.2426  0.0899
14290W        W34570   0.326  14.588   1.947  0.1696 -0.1835  0.1461
14291W        W34571  16.970   9.015  12.032  0.1304  0.3189  0.1183
14292W        W34572   6.904   6.927  12.199  0.1953 -0.2764 -0.0481
14293W        W34573  18.290   3.303  12.295  0.0147  0.4344 -0.2357
14294W        W34574   0.440   9.129  13.092 -0.0288  0.0720  0.1398
14295W        W34575  11.628  13.099  12.240  0.0695 -0.1057 -0.0399
14296W        W34576   4.381  12.171   2.540 -0.0363 -0.0266 -0.1742
14297W        W34577  17.363   1.521   3.356 -0.2009 -0.1694  0.1566
14298W        W34578  14.202   4.963  14.221 -0.0854 -0.1092 -0.1332
14299W        W34579   6.297  10.679   4.897  0.2094  0.0771 -0.1580
14300W        W34580   9.393   2.223  10.959  0.0409  0.1319 -0.0213
14301W        W34581   8.533  11.893   3.283 -0.2376  0.0412 -0.1982
14302W        W34582  15.513   8.608  11.757  0.0007  0.3857  0.0107
14303W        W34583   6.319   4.218   2.673 -0.0970 -0.2027  0.2299
14304W        W34584   3.164   0.857   1.239  0.0480 -0.2036 -0.2285
14305W        W34585  11.814  10.331  12.958  0.1277 -0.1286  0.0115
14306W        W34586  17.090   5.694   3.634  0.1679  0.2558 -0.1580
14307W        W34587  19.294  15.807  12.232 -0.0624  0.3672  0.0987
14308W        W34588   2.623  13.061   0.891 -0.1207 -0.0444 -0.1835
14309W        W34589  12.799  16.941  12.773 -0.2219 -0.4720  0.0975
14310W        W34590  13.158   7.459   2.572 -0.1871  0.0801 -0.1645
14311W        W34591  16.344  14.897   3.572  0.0625 -0.1604  0.3215
14312W        W34592  10.941  16.580  10.481  0.4192  0.2542  0.1439
14313W        W34593   2.448   0.295   1.575 -0.1142  0.1467  0.2776
14314W        W34594  15.225  15.201  12.066  0.0487 -0.1863 -0.1217
14315W        W34595   5.547   3.238   0.726 -0.2146  0.2432  0.0467
14316W        W34596   6.179   6.280   4.018  0.6329  0.2498 -0.0758
14317W        W34597  16.509  15.669   4.078 -0.1676  0.1121 -0.0028
14318W        W34598   9.005  11.119   2.059 -0.0942  0.1017 -0.3445
14319W        W34599   1.258   5.194   2.932  0.0317 -0.2047  0.1878
14320W        W34600  18.376   2.836   2.830 -0.0039  0.5700  0.1848
14321W        W34601  15.461   4.822   3.874  0.3127 -0.1064 -0.0117
14322W        W34602   7.437   5.326  13.021 -0.1601 -0.2136 -0.1196
14323W        W34603  13.840   1.923  13.929 -0.0746  0.3310 -0.1545
14324W        W34604  18.752  11.341  13.739  0.0655 -0.0988 -0.2563
14325W        W34605  14.549   6.309  13.533  0.2440  0.0881  0.1884
14326W        W34606  16.929  15.888   4.102 -0.1834 -0.0632 -0.0735
14327W        W34607  10.167   1.000   4.359 -0.0090 -0.0719  0.0480
14328W        W34608   5.657   5.436   1.317  0.1011  0.0948 -0.2360
14329W        W34609  15.195  14.687  12.003  0.0035  0.1785  0.2657
14330W        W34610  18.086   8.278  11.829  0.2934  0.0045  0.1836
14331W        W34611   8.286  13.634   1.298 -0.2598  0.1185  0.0828
14332W        W34612   3.043   7.871  12.565 -0.0649  0.4216  0.1964
14333W        W34613  12.868  13.423   3.976 -0.2600  0.2685  0.0356
14334W        W34614   3.841  12.946  14.083 -0.0987  0.3438  0.0835
14335W        W34615  16.971   9.293  13.170 -0.0772  0.2373  0.3469
14336W        W34616   8.645  15.813   2.056  0.2684 -0.2496 -0.0121
14337W        W34617   9.619   8.819  11.757 -0.2232 -0.4353 -0.0865
14338W        W34618   9.620  18.348   2.027  0.1674 -0.0189  0.1676
14339W        W34619  17.566  19.335  12.788 -0.0732 -0.1151 -0.1209
14340W        W34620  15.213  17.880  13.903 -0.2268 -0.1695 -0.0046
14341W        W34621   9.603   6.022   5.118 -0.4145 -0.2527  0.0945
14342W        W34622  14.005  17.744  14.070  0.0154  0.0786  0.0083
14343W        W34623   2.904  19.130   2.236 -0.0935  0.0586 -0.1079
14344W        W34624   5.562  10.996   0.684  0.0434  0.0229  0.1278
14345W        W34625  15.007   6.822   4.720 -0.0549 -0.0883 -0.1958
14346W        W34626  18.678  12.683   1.968  0.1115 -0.0573  0.2000
14347W        W34627  12.084  19.004   2.215  0.2699 -0.0781  0.1351
14348W        W34628   7.169  13.129  11.534 -0.2618 -0.1861 -0.0262
14349W        W34629  16.268  13.216   3.623 -0.3073  0.0548 -0.0976
14350W        W34630   2.910  14.902   5.027  0.0156  0.2576 -0.2350
14351W        W34631   2.964   1.404   0.395 -0.1854 -0.0049 -0.2686
14352W        W34632   4.911   1.011  14.308 -0.0297  0.1843  0.0799
14353W        W34633   7.634   6.528  11.032  0.0725 -0.1409 -0.0524
14354W        W34634   6.379  19.222  12.705 -0.1734  0.1886 -0.4449
14355W        W34635  19.270   0.222   4.362 -0.1086  0.0686 -0.3506
14356W        W34636  17.281  15.411  12.112 -0.1417  0.0358 -0.1097
14357W        W34637  18.790   2.571   3.809 -0.1518  0.2727 -0.0949
14358W        W34638   7.605  14.629   0.168 -0.2740 -0.1069 -0.3472
14359W        W34639  11.491  12.689   2.775 -0.2700 -0.0390  0.1185
14360W        W34640   3.904  15.877  12.012 -0.2183  0.1030 -0.0538
14361W        W34641   9.122   1.593   2.117 -0.1269  0.1681 -0.2736
14362W        W34642  13.177  13.865  10.812  0.1323 -0.2557  0.1285
14363W        W34643  14.015  15.722   1.047 -0.1283 -0.1094  0.1085
14364W        W34644   1.399   5.012  14.029  0.0771  0.1368  0.3128
14365W        W34645  13.413  17.752   0.361 -0.1164  0.1806  0.4205
14366W        W34646  12.436  11.776  11.649 -0.0149  0.2863 -0.2188
14367W        W34647   5.058  12.269   3.870  0.2341  0.0812  0.1617
14368W        W34648   2.747  14.378   3.538 -0.0538  0.0605  0.1428
14369W        W34649   1.094   5.365   0.851 -0.0596  0.3486 -0.1869
14370W        W34650   2.099   0.867  10.185 -0.1941 -0.1883 -0.1003
14371W        W34651  16.261  15.769   1.779 -0.1034 -0.0626 -0.0426
14372W        W34652  15.289   0.818   0.224 -0.1745 -0.4949 -0.3954
14373W        W34653  17.969   2.170  12.304  0.1696 -0.1314  0.0243
14374W        W34654  13.925   2.146   1.227  0.0135 -0.1843 -0.0885
14375W        W34655   7.114  17.837   1.699 -0.2330 -0.0055 -0.1770
14376W        W34656  13.510   9.062   1.462  0.1466 -0.4276  0.0053
14377W        W34657  14.941   4.052  11.604 -0.3845 -0.1478 -0.2279
14378W        W34658   4.301   6.539  13.828 -0.2108 -0.0143 -0.1495
14379W        W34659   4.844   3.576  13.892 -0.4491 -0.0239 -0.0334
14380W        W34660  18.760   8.538   1.971 -0.1139 -0.2774  0.0917
14381W        W34661  16.469   7.266  10.951 -0.2228 -0.1106  0.2000
14382W        W34662  13.330  15.834   3.031 -0.0777 -0.3736  0.2474
14383W        W34663   0.202  13.142  13.066 -0.2117  0.1624  0.2056
14384W        W34664  15.227  16.153  11.738 -0.0844 -0.1591 -0.4667
14385W        W34665  12.439  12.264   0.682  0.4070  0.3250  0.1988
14386W        W34666   8.492  12.407  10.988  0.0356  0.1929 -0.2229
14387W        W34667  18.066  16.500  10.773  0.2279 -0.1424  0.0520
14388W        W34668  15.363   1.477  11.941  0.1833 -0.2481  0.0199
14389W        W34669  12.969  17.527   1.811  0.1511  0.0521 -0.1154
14390W        W34670  12.144  11.532   3.694 -0.0479  0.0928 -0.3660
14391W        W34671   1.730  16.974  12.330  0.0124  0.0115  0.1113
14392W        W34672  18.561   7.961  10.255 -0.1871  0.1159 -0.1509
14393W        W34673   3.067  11.081  10.800  0.0509 -0.0869  0.0977
14394W        W34674  13.090  13.700   0.001  0.0580  0.0303  0.0209
14395W        W34675   3.090   6.878  10.997  0.1315  0.3269  0.3193
14396W        W34676   5.806   5.942   4.161 -0.1368  0.0873 -0.2851
14397W        W34677   0.483   7.256  10.037 -0.1400 -0.2182 -0.0952
14398W        W34678   9.727  14.655   0.361 -0.0914 -0.0964  0.1678
14399W        W34679   8.504   4.651   1.035  0.1458  0.1840 -0.4231
14400W        W34680  15.605   3.585   3.080  0.1135 -0.1808  0.2183
14401W        W34681   2.800   6.770  12.700 -0.0586  0.0727  0.2768
14402W        W34682   6.764  11.969   0.360  0.2731 -0.2278  0.0738
14403W        W34683   0.846  16.987  10.242  0.0584  0.0518  0.1889
14404W        W34684   1.194  17.346  11.685 -0.3139  0.3775 -0.1136
14405W        W34685   1.331   8.742  13.738 -0.0249  0.1973 -0.0459
14406W        W34686   1.913   7.067  13.617  0.4973  0.0079 -0.0372
14407W        W34687   9.945  11.442   1.900  0.2790  0.3240  0.0957
14408W        W34688   7.027   2.065  13.946  0.2468 -0.1338 -0.1414
14409W        W34689  10.684  16.015   0.249 -0.1598 -0.2426  0.1157
14410W        W34690   1.151   4.270   1.098  0.0078  0.1095  0.1603
14411W        W34691   7.769  11.239  13.953 -0.0853 -0.3011 -0.0355
14412W        W34692   2.747   0.112   3.013  0.0075  0.1508 -0.0278
14413W        W34693   7.804  11.292   0.301 -0.1776 -0.0735 -0.1163
14414W        W34694   4.488   0.049   2.109 -0.2856 -0.1981 -0.0123
14415W        W34695   2.364   9.863   3.513 -0.1693  0.0250 -0.0658
14416W        W34696  13.785  19.211  10.705 -0.0899  0.0578 -0.0917
14417W        W34697   9.640  10.299   3.022  0.0085  0.2129  0.0084
14418W        W34698   8.483  19.171  14.394  0.0669  0.5472  0.0486
14419W        W34699  14.387   0.797  14.157 -0.1127  0.2031 -0.1696
14420W        W34700   9.058  18.496   3.663 -0.1675  0.2771 -0.2692
14421W        W34701  17.478   6.982   0.080  0.0595 -0.0658  0.3017
14422W        W34702  17.566  17.448   3.829  0.0945 -0.2685 -0.0118
14423W        W34703   8.975   8.469  10.610  0.0698  0.0184 -0.3296
14424W        W34704   2.049  13.455   2.205 -0.0964  0.0214  0.1246
14425W        W34705  14.661  16.225  12.996 -0.3539  0.1814 -0.0933
14426W        W34706   6.225  17.178  10.497 -0.2300  0.1720 -0.0628
14427W        W34707   3.386   3.039   0.962  0.4930 -0.1624  0.2087
14428W        W34708   2.296   1.206   4.108 -0.3117  0.2097  0.0849
14429W        W34709  14.912   5.034   4.206 -0.1640 -0.2121  0.0162
14430W        W34710   1.971   1.172   1.682 -0.0475  0.2765  0.2405
14431W        W34711   9.271   5.276   1.850 -0.3099 -0.0464 -0.2061
14432W        W34712   9.576   8.585   1.987  0.1417 -0.1537 -0.0256
14433W        W34713   0.483  19.212   3.546  0.3497  0.0663  0.0784
14434W        W34714  16.119   4.463   1.280  0.1340  0.0249 -0.0113
14435W        W34715   3.102  14.593   9.049 -0.2120 -0.0979 -0.2480
14436W        W34716  18.729   8.716  10.547 -0.1111 -0.1377  0.4582
14437W        W34717   6.086  13.756   0.975 -0.3263 -0.1297 -0.0347
14438W        W34718   4.036   7.524   2.036  0.0270  0.0257 -0.0712
14439W        W34719   8.983   7.485  10.999  0.0920 -0.1364 -0.0223
14440W        W34720   3.196   4.143  13.588 -0.2283  0.0798 -0.0171
14441W        W34721   5.057  12.608   0.966  0.2978  0.1064 -0.1093
14442W        W34722   8.297   8.363  11.122 -0.0383 -0.1599 -0.1276
14443W        W34723   6.882   2.731   3.196 -0.1070 -0.1702 -0.0805
14444W        W34724  15.538  15.917  12.683 -0.6719 -0.2016 -0.0759
14445W        W34725   8.039   1.235   1.123 -0.2163  0.3876  0.0119
14446W        W34726   7.281  13.696  11.042 -0.1826 -0.0746 -0.0200
14447W        W34727  10.137  17.062   3.947  0.0489 -0.3892  0.0040
14448W        W34728  11.731  12.702  11.989  0.0274 -0.0050  0.1158
14449W        W34729  14.858   9.073   1.736  0.0710  0.2871  0.2908
14450W        W34730  18.329  14.981   1.642  0.0182 -0.1864  0.1465
14451W        W34731   2.464   6.796   1.808  0.2170 -0.2495 -0.2452
14452W        W34732  17.216   2.668  12.637  0.0929  0.1120  0.1947
14453W        W34733   4.395   9.858   2.690 -0.1006  0.0912 -0.0365
14454W        W34734  15.009  15.553   0.909  0.2285 -0.1048 -0.1108
14455W        W34735  16.163  17.421   4.170 -0.0805  0.0595 -0.1408
14456W        W34736   9.719  11.595   0.344 -0.0271 -0.2981 -0.0363
14457W        W34737   2.377   5.410  14.275  0.2338 -0.1486 -0.1634
14458W        W34738  10.118  15.970   0.315 -0.0702 -0.0117  0.4395
14459W        W34739   8.618   5.694  11.674 -0.3581 -0.2164  0.4759
14460W        W34740   8.762  17.051  10.354 -0.1433  0.0609 -0.2215
14461W        W34741  14.128   1.234   1.620 -0.1532  0.1261  0.1652
14462W        W34742  11.238  16.066   0.183  0.0177 -0.3509  0.0846
14463W        W34743   0.273   6.392   3.511  0.0892 -0.2864  0.1329
14464W        W34744   6.571   3.740   2.837  0.1847 -0.1125 -0.2864
14465W        W34745  17.856  16.130   2.544 -0.1314 -0.1761  0.0471
14466W        W34746  10.684   0.954   4.015 -0.0830 -0.3522 -0.1955
14467W        W34747   3.732   1.713   4.747  0.1681 -0.0723 -0.2284
14468W        W34748   5.223   1.151   2.994  0.0256 -0.1511 -0.0339
14469W        W34749   4.268   2.418  12.347 -0.0231  0.0150  0.2681
14470W        W34750   8.170  16.092  13.052  0.2461 -0.0499 -0.0594
14471W        W34751   7.694  17.406   3.127  0.0865  0.1017 -0.1807
14472W        W34752   9.669  17.867  14.243 -0.0612 -0.0764 -0.1581
14473W        W34753  17.978   2.700  10.128 -0.0026  0.0195  0.2341
14474W        W34754  12.864   1.263   1.572  0.2002 -0.1212  0.2524
14475W        W34755  10.098   6.781  12.654  0.2294  0.0185 -0.0503
14476W        W34756   0.250   1.040  12.700  0.1891 -0.0316 -0.0606
14477W        W34757   1.852   4.776  10.978  0.0898 -0.3900  0.0761
14478W        W34758   3.264  10.540  12.238 -0.0103 -0.1045 -0.0360
14479W        W34759  17.967  13.210  12.114  0.0776  0.1850  0.0194
14480W        W34760  13.718   7.997  11.556  0.0938  0.0517 -0.0264
14481W        W34761  19.294   9.730  10.978 -0.1365 -0.1582 -0.0710
14482W        W34762   5.505   0.785  14.305  0.1164  0.0392 -0.4191
14483W        W34763  10.552  15.572  12.963  0.1452 -0.2207 -0.2839
14484W        W34764  10.615   2.437   1.146  0.1037 -0.3082  0.0203
14485W        W34765   6.497   3.714   3.324  0.1516  0.1714  0.0550
14486W        W34766  18.934   3.098   0.583 -0.3197 -0.5417 -0.1450
14487W        W34767   8.569   8.427  13.374 -0.1242  0.0710  0.0797
14488W        W34768   4.314   0.968  11.625 -0.0801 -0.0826  0.0639
14489W        W34769   7.100   9.068  12.974 -0.0259  0.0316  0.0982
14490W        W34770  17.109  17.424  11.151  0.0247 -0.1487  0.0971
14491W        W34771   5.490   0.337  11.592 -0.2745  0.0547 -0.1412
14492W        W34772  11.978  10.116   0.615 -0.0268 -0.1263 -0.2671
14493W        W34773  18.213   2.201  11.807 -0.1784 -0.1112  0.1695
14494W        W34774  15.890  13.594   0.875 -0.1939 -0.0485 -0.1603
14495W        W34775  11.275   9.648  13.396 -0.0612 -0.2470 -0.0618
14496W        W34776   2.494  16.910  13.811  0.2216  0.1144  0.1224
14497W        W34777   4.998  14.962   2.726  0.4099  0.0435  0.2574
14498W        W34778  15.291   5.260   0.232  0.0666 -0.0898 -0.1733
14499W        W34779   3.480   8.930   1.224 -0.2175 -0.1020 -0.4079
14500W        W34780  19.090  12.164  14.345 -0.0161 -0.0557 -0.3335
14501W        W34781  12.466   2.709   2.806  0.2862 -0.2766  0.2906
14502W        W34782   1.597  16.698   9.662 -0.1389 -0.0408  0.0754
14503W        W34783   6.714   3.057  14.478 -0.1010  0.1378 -0.1310
14504W        W34784   8.721  14.809  13.323 -0.0059 -0.0259  0.2562
14505W        W34785   9.654   2.814   0.007  0.1391  0.3199 -0.0759
14506W        W34786   7.784   4.607  14.316 -0.2242  0.4172  0.0991
14507W        W34787  16.781  18.066   1.986 -0.0288  0.2105  0.4022
14508W        W34788   0.628  11.744  11.200 -0.3372  0.0550  0.3462
14509W        W34789  14.212  15.726   3.962  0.5083  0.1837  0.3685
14510W        W34790  14.333   1.843  13.255  0.0593 -0.0071 -0.1973
14511W        W34791   1.986   8.350   4.515 -0.1988 -0.1535  0.2998
14512W        W34792   0.111  16.099   4.212 -0.0480 -0.0701  0.1670
14513W        W34793  12.753   6.631  13.711 -0.2671 -0.1332 -0.1084
14514W        W34794  19.146   1.967   0.667 -0.3059  0.0990  0.2455
14515W        W34795  16.888  13.610  12.577  0.1307  0.5578  0.2004
14516W        W34796  16.702   5.916  13.150 -0.2501 -0.1772 -0.0630
14517W        W34797  17.498  11.418   0.496  0.0911 -0.0540 -0.1246
14518W        W34798  12.226  15.206  13.273  0.4050 -0.0432  0.1657
14519W        W34799   2.231  11.030   3.305  0.0123  0.0046 -0.0978
14520W        W34800   3.280  14.696   0.161 -0.1268  0.2641 -0.0849
14521W        W34801  16.983  18.976  12.407 -0.1962  0.1501  0.3162
14522W        W34802   3.500  16.200   1.518 -0.2048 -0.1389  0.0560
14523W        W34803  10.722  18.055   0.176  0.1793  0.0790 -0.0676
14524W        W34804  13.254   0.952   2.831 -0.2078 -0.1156  0.0756
14525W        W34805  12.297  11.029  13.866  0.1535  0.0577  0.2856
14526W        W34806   0.299   1.237  14.175 -0.0203  0.1153 -0.0086
14527W        W34807  10.387  13.381   2.527  0.1124 -0.2352 -0.0961
14528W        W34808  16.480   3.115  13.188  0.2905 -0.1124  0.2921
14529W        W34809  16.237  13.438  13.210  0.1851 -0.1911  0.1422
14530W        W34810   9.328  17.525  12.374  0.2959  0.3828 -0.1202
14531W        W34811   5.180  16.000   0.264 -0.1394  0.3536 -0.1392
14532W        W34812   1.180   9.141  11.469 -0.0241  0.3961  0.2691
14533W        W34813   8.780   1.358   0.120 -0.1740 -0.3089  0.0158
14534W        W34814   8.989   9.494   2.515 -0.1113  0.0884  0.1460
14535W        W34815  12.791  12.085  10.811 -0.0468  0.3866  0.0841
14536W        W34816   2.877   6.697   0.819  0.1545  0.1829  0.4937
14537W        W34817   9.026  11.991  10.998  0.0138 -0.0071  0.0310
14538W        W34818   1.790   7.965  12.335  0.2582 -0.3108 -0.2805
14539W        W34819   1.128   2.831   3.119  0.0983  0.0419 -0.4127
14540W        W34820  13.426   2.231   1.239 -0.0695 -0.0425 -0.0819
14541W        W34821   8.676  13.763  11.327 -0.0398 -0.0636  0.3259
14542W        W34822  14.752   9.083  14.134 -0.2595 -0.0765 -0.1837
14543W        W34823   1.212  12.977  10.548 -0.1090 -0.0495 -0.0583
14544W        W34824   9.170   8.858   2.295 -0.2313  0.1392 -0.0650
14545W        W34825  11.077   6.835   5.057  0.2692 -0.0842  0.2382
14546W        W34826   9.329   7.937  14.023  0.0655 -0.1430 -0.4132
14547W        W34827  18.255  11.599  10.271 -0.1871 -0.0951 -0.3005
14548W        W34828  18.661  10.096  12.975  0.1397 -0.1271  0.1365
14549W        W34829   5.503   5.848  12.404 -0.1685 -0.2120  0.0288
14550W        W34830  13.064   8.529  11.418  0.4233  0.0060 -0.1074
14551W        W34831  15.765   8.984   1.304  0.0251 -0.0106 -0.0274
14552W        W34832  14.734  11.569   2.437 -0.0360  0.3209 -0.2209
14553W        W34833  17.437  13.642   2.389  0.2610 -0.2908 -0.1448
14554W        W34834   2.834  15.897   3.823  0.3050  0.1040  0.2557
14555W        W34835   1.932   3.127  10.652 -0.1656  0.0225  0.1524
14556W        W34836  16.705   5.522   0.483 -0.0360  0.0637  0.0349
14557W        W34837  12.007  12.942   2.644 -0.0283 -0.0910  0.0421
14558W        W34838   6.201  14.975  14.488  0.0267  0.1027 -0.0308
14559W        W34839   9.336   7.222   3.790  0.4432 -0.1063 -0.0624
14560W        W34840   4.245   8.183   0.405  0.2729 -0.6059  0.1086
14561W        W34841  14.882   5.279   1.038  0.0434  0.1424  0.2559
14562W        W34842   7.182  14.459  10.350 -0.0942 -0.2151  0.4545
14563W        W34843   7.548   7.187   0.662  0.2858 -0.2877 -0.1502
14564W        W34844   0.275  15.079  10.497  0.0664 -0.1405  0.1015
14565W        W34845   6.727  16.090  13.892 -0.1927  0.1873  0.0814
14566W        W34846  13.458   7.486   0.368  0.0529 -0.3821 -0.1848
14567W        W34847  11.671   1.160   3.875  0.0133 -0.1529 -0.7610
14568W        W34848   3.240   5.002   0.027  0.0471 -0.0773 -0.0204
14569W        W34849  15.658   0.641  11.537  0.0772 -0.0540  0.1129
14570W        W34850  15.724  13.497  13.663  0.0915  0.1699 -0.0731
14571W        W34851  13.060  12.938   3.512  0.1714 -0.3936 -0.2250
14572W        W34852  15.552  15.210  14.428 -0.0893  0.1545 -0.2710
14573W        W34853  18.687  15.360   1.522  0.2115  0.0557  0.0441
14574W        W34854   2.056   2.644   3.999  0.0601 -0.0143 -0.2474
14575W        W34855  16.453  18.031   0.131 -0.2114 -0.0865  0.2061
14576W        W34856   6.090   8.844  11.471  0.3347 -0.1269  0.0083
14577W        W34857  18.327  16.199   2.533 -0.3692 -0.0051 -0.0560
14578W        W34858  16.783   4.379  12.101 -0.0597 -0.0289  0.1956
14579W        W34859   7.551  17.293   0.498  0.1455 -0.0566  0.1343
14580W        W34860  12.397   7.445  11.618  0.2577  0.1330  0.3630
14581W        W34861   0.663   7.111   3.464 -0.0705  0.2285  0.1480
14582W        W34862  14.751  17.759   0.564  0.0291  0.0906  0.0359
14583W        W34863   0.123  17.976  12.123  0.4144 -0.0500 -0.0847
14584W        W34864  12.082   8.244  12.804  0.2114 -0.2170 -0.0409
14585W        W34865   9.847   9.609   2.006  0.0826  0.0550 -0.1457
14586W        W34866  14.567  19.354  12.851  0.1060 -0.0281  0.2170
14587W        W34867  16.986   2.610   1.975  0.1633 -0.1669  0.0314
14588W        W34868   5.786  16.314  11.929  0.0267  0.1450 -0.0041
14589W        W34869  17.256   2.405  11.090 -0.1684 -0.0378 -0.2514
14590W        W34870  16.832   6.857  12.084  0.1585  0.0827 -0.1904
14591W        W34871   1.959   0.183  11.759 -0.4470  0.1370  0.3054
14592W        W34872  17.995  14.585   1.673  0.1070  0.3266  0.2265
14593W        W34873  12.673   9.504   9.583 -0.0789  0.2135 -0.0410
14594W        W34874   1.864   7.042   4.220 -0.1084 -0.1030 -0.2488
14595W        W34875  18.666   9.193  11.973  0.2823 -0.0301 -0.2110
14596W        W34876   8.694  18.762  12.304  0.1092 -0.0903  0.2756
14597W        W34877  11.855   9.958  10.792 -0.2412  0.0589 -0.1942
14598W        W34878  13.279   4.382  11.378  0.0363 -0.2025  0.0220
14599W        W34879   2.303   7.879   2.158 -0.0979  0.1169 -0.0000
14600W        W34880  12.353   6.713   2.529 -0.0621  0.1169 -0.1407
14601W        W34881  16.085   1.719   3.846 -0.1603  0.2044 -0.3800
14602W        W34882   5.416  15.523  12.477 -0.0688  0.2372 -0.1640
14603W        W34883  13.112   8.923  13.332 -0.1273 -0.3887 -0.1255
14604W        W34884   3.746  13.842  12.629  0.3259 -0.0583 -0.0833
14605W        W34885   9.024   8.319  13.622 -0.1620  0.3138  0.2153
14606W        W34886   0.252  17.353   3.649  0.3665 -0.1469 -0.0106
14607W        W34887  14.791   9.262  12.250  0.0719 -0.2845 -0.1890
14608W        W34888   2.809   4.065  11.209  0.2743  0.0098 -0.0063
14609W        W34889  14.538  11.743   0.527  0.1153 -0.1098  0.0480
14610W        W34890   4.857  10.037  12.126 -0.3331 -0.2536  0.0522
14611W        W34891   9.276   7.472  12.295  0.1523  0.1488  0.2850
14612W        W34892   8.034  10.414   3.945 -0.0584  0.1510 -0.1843
14613W        W34893   7.091  16.538   0.884 -0.1802  0.0306  0.1644
14614W        W34894  11.359   6.641  11.500 -0.0611  0.4540  0.1163
14615W        W34895  10.308  13.936   2.439 -0.1920 -0.0460 -0.0127
14616W        W34896   8.881   7.274  13.034  0.0386  0.0038  0.0033
14617W        W34897   2.360   3.939  14.032 -0.2292 -0.1872  0.1250
14618W        W34898   3.853   3.851  14.385 -0.1782  0.0444 -0.0600
14619W        W34899   7.172  12.543   0.124  0.0336 -0.0079  0.0051
14620W        W34900  15.154   0.406   1.296 -0.1765  0.0453  0.0765
14621W        W34901  12.579   3.852  11.024 -0.1892 -0.2027 -0.0967
14622W        W34902  10.564   7.094   3.039 -0.0627  0.2841 -0.2072
14623W        W34903  10.878   4.428   1.816 -0.0241 -0.1535 -0.1021
14624W        W34904  17.768   4.638   1.619 -0.1538 -0.0534  0.0798
14625W        W34905   9.196  15.519   1.480  0.1261 -0.1013 -0.0495
14626W        W34906   6.980   1.496  12.134 -0.4325 -0.2423  0.1349
14627W        W34907  16.053   8.812   3.466 -0.2921 -0.0719 -0.2209
14628W        W34908   2.377   6.311  12.555  0.1317 -0.2169  0.0866
14629W        W34909  18.277   5.027   3.631 -0.1216 -0.2892  0.1703
14630W        W34910   8.516  11.944  11.110 -0.0012 -0.1177 -0.0294
14631W        W34911   2.246   3.579  14.440 -0.0993 -0.1433  0.2334
14632W        W34912  11.554  17.922  10.514  0.1550  0.0556 -0.1080
14633W        W34913   6.300   7.281   0.643  0.2025 -0.3198  0.3588
14634W        W34914   4.533   0.795   4.424 -0.0244 -0.2055  0.0566
14635W        W34915   6.967  18.632  14.035  0.0682  0.2953  0.1143
14636W        W34916   7.512  13.777  10.558  0.2663  0.1339 -0.2008
14637W        W34917  10.168   6.538   3.212  0.4681  0.0436 -0.0689
14638W        W34918   8.214   1.594   3.197 -0.1887 -0.2088  0.1886
14639W        W34919  11.652  16.784  14.410  0.0721 -0.0841  0.0833
14640W        W34920   0.518  17.948   2.801 -0.1846 -0.1385  0.3633
14641W        W34921  10.996   7.485   1.880 -0.1708 -0.0536 -0.0078
14642W        W34922  14.283   3.985   2.107  0.0160  0.0405 -0.1836
14643W        W34923  18.153  16.495   1.175 -0.0116  0.1657  0.2986
14644W        W34924   9.738  10.698   1.873 -0.1894 -0.3063  0.1636
14645W        W34925  14.138  10.125  10.189  0.3222 -0.1937  0.5003
14646W        W34926   3.777  15.400  12.076  0.1018 -0.2431 -0.0316
14647W        W34927  14.791  15.917   2.570  0.0908 -0.0491 -0.1904
14648W        W34928  17.185   0.440  11.693  0.0396  0.1850 -0.1947
14649W        W34929  15.253   9.646  13.522  0.1170  0.0251  0.3087
14650W        W34930   5.193   3.408  12.586  0.1671  0.1299 -0.1221
14651W        W34931  17.808   3.900  14.075 -0.1921 -0.0249  0.2089
14652W        W34932  12.608   1.111  14.335 -0.2006 -0.1622  0.3379
14653W        W34933   9.608  14.324   0.699  0.0584  0.0687  0.2479
14654W        W34934  12.871   3.248  12.336 -0.1370 -0.1097 -0.0399
14655W        W34935  11.231   1.037   5.095  0.0528  0.0315  0.2426
14656W        W34936  18.482  17.796  12.753 -0.1791  0.0599 -0.1228
14657W        W34937  10.699  13.585   0.177 -0.0868  0.0836  0.0787
14658W        W34938   8.413  15.837   4.270 -0.1466  0.0080 -0.1860
14659W        W34939  11.456   8.179  12.245  0.2692  0.3318 -0.0821
14660W        W34940  14.846   0.560  10.913  0.1001 -0.2653  0.0064
14661W        W34941   6.307   0.146   2.240 -0.1939 -0.0063  0.0206
14662W        W34942  14.096   5.620   2.550 -0.0715 -0.5907 -0.0798
14663W        W34943   0.690   2.641  13.746 -0.0448  0.3178 -0.2240
14664W        W34944   6.583  11.922  10.485  0.0191 -0.3156  0.0884
14665W        W34945  15.816  15.749   0.334  0.2629 -0.2435  0.3754
14666W        W34946  16.203  11.955  11.516 -0.0869  0.3477  0.0086
14667W        W34947   0.458  18.251   1.811  0.1846 -0.0141  0.3061
14668W        W34948  12.128  18.625   1.871  0.2810  0.0244  0.1311
14669W        W34949  12.947  13.682  10.266 -0.1601  0.4784 -0.2737
14670W        W34950   8.321  17.242  11.119  0.1497  0.0971  0.0993
14671W        W34951  11.304   9.065  14.286 -0.0259  0.0946  0.0980
14672W        W34952   3.200   7.045   3.553  0.1191 -0.0160 -0.0981
14673W        W34953   7.878   2.400   3.050 -0.0042  0.1392  0.2358
14674W        W34954   5.789  14.370  12.304 -0.1714 -0.1020  0.0690
14675W        W34955  14.671  18.649   2.030 -0.0042  0.0352  0.0999
14676W        W34956  16.793   7.902   0.916  0.3055 -0.3560  0.0673
14677W        W34957   9.461  14.947  11.271  0.0121  0.2108 -0.0817
14678W        W34958   1.429   2.702   1.010 -0.1393 -0.0683 -0.1155
14679W        W34959  18.703  11.403  10.260  0.0330  0.2111  0.1945
14680W        W34960  14.644   6.163  10.475  0.2671  0.3313 -0.1122
14681W        W34961  11.341  11.959   2.811 -0.0786 -0.0364 -0.1605
14682W        W34962   3.057  14.318  11.917 -0.0829  0.0530  0.1049
14683W        W34963   6.323  17.228   1.710 -0.0414 -0.0832 -0.1898
14684W        W34964  19.107  12.399   9.397  0.1777 -0.0981  0.1688
14685W        W34965   5.229   7.550   0.312  0.0887  0.1701  0.3008
14686W        W34966  17.541  19.268   3.932  0.1670 -0.0928  0.3729
14687W        W34967   1.858  13.624  10.392 -0.0989  0.4407  0.0228
14688W        W34968  16.533  18.581   3.847  0.0598  0.2201 -0.3823
14689W        W34969  19.125   1.091  11.566  0.3034 -0.0461 -0.1415
14690W        W34970   1.656   8.079  10.750 -0.1710 -0.0301 -0.2733
14691W        W34971  10.198   9.070  14.102 -0.0438 -0.0451  0.3322
14692W        W34972  15.034   8.799  10.119 -0.0154 -0.2963  0.0185
14693W        W34973  18.668  12.196  12.089 -0.0196 -0.2875 -0.0897
14694W        W34974  17.015  16.055   3.213 -0.0008 -0.0276  0.3711
14695W        W34975   5.101  18.450   2.595  0.1592 -0.0328  0.2910
14696W        W34976   4.693  16.812  14.312 -0.2089 -0.0512  0.1007
14697W        W34977   4.211  16.517  11.354 -0.0011 -0.1872 -0.1127
14698W        W34978   2.967  10.967  13.566  0.3386 -0.1611 -0.2004
14699W        W34979   9.158  16.280   2.799  0.0407 -0.0484 -0.0329
14700W        W34980   8.531  11.046  14.203  0.0458 -0.0941 -0.1204
14701W        W34981   0.630  16.950   3.672 -0.2226 -0.0932  0.2615
14702W        W34982  13.356   8.186  10.541  0.1577  0.2841  0.0059
14703W        W34983   7.004  17.176   2.862  0.0102 -0.2759  0.0540
14704W        W34984  10.225   9.656  13.400 -0.1649 -0.1605  0.1351
14705W        W34985  15.183  15.719   3.032  0.1399  0.3545  0.0795
14706W        W34986  11.719  17.784  12.253 -0.1791 -0.2129 -0.0699
14707W        W34987   9.457   4.312  10.226 -0.0576  0.2123 -0.1507
14708W        W34988  15.746   5.240  14.442 -0.0700  0.2145  0.2558
14709W        W34989  18.237  15.980   3.027  0.0580 -0.1298  0.0907
14710W        W34990   5.784  17.490   3.325 -0.0131  0.1228 -0.0746
14711W        W34991  14.995  13.148   2.951 -0.0352 -0.1292 -0.0040
14712W        W34992  11.864  18.150  14.144 -0.0925  0.0465  0.1065
14713W        W34993  17.822   6.678  12.703  0.0918 -0.0350 -0.0922
14714W        W34994   0.759   7.117   1.726 -0.1504  0.0782 -0.2181
14715W        W34995   1.614   2.595  13.913  0.2969  0.2120 -0.2641
14716W        W34996   6.026   5.300   2.624  0.1513  0.0104 -0.1663
14717W        W34997  10.252  10.692  12.313 -0.0636 -0.4576 -0.0154
14718W        W34998   2.224   8.703   2.037  0.1271 -0.0370  0.0192
14719W        W34999  11.250   2.472   5.481  0.2294 -0.1031 -0.0408
14720W        W35000   5.728   1.496  11.658  0.0023  0.0402  0.0298
14721W        W35001  12.548   6.194  11.039 -0.0295  0.1042  0.1388
14722W        W35002  17.758  10.356   1.966 -0.0657  0.2590  0.3366
14723W        W35003  11.357   8.477   9.995  0.3006  0.0753  0.0273
14724W        W35004  17.020   4.862  11.787  0.0152  0.4158  0.0120
14725W        W35005   9.870   9.789  11.873 -0.1583 -0.0051 -0.1005
14726W        W35006   1.777   2.520  14.355 -0.4808 -0.1534  0.0424
14727W        W35007  17.952   4.714   0.702 -0.0197 -0.0476 -0.1246
14728W        W35008   1.255  14.683  12.413 -0.2463  0.0237  0.0812
14729W        W35009  14.239  12.455   0.954  0.1058 -0.1514  0.0628
14730W        W35010  15.179  14.047   3.646  0.0728 -0.1854  0.1710
14731W        W35011  19.176  18.848  13.190  0.1558 -0.3543  0.0571
14732W        W35012   4.071  15.249  14.231  0.0058 -0.2150  0.1107
14733W        W35013  12.877   7.803  11.288  0.2095 -0.1676 -0.1167
14734W        W35014   9.063   7.994   4.404 -0.2150 -0.1055 -0.0913
14735W        W35015   2.801   0.172   0.731  0.2502 -0.2371  0.1218
14736W        W35016  17.678   1.908   3.219  0.0976 -0.0635  0.2795
14737W        W35017  11.790   5.490  11.139  0.2690 -0.2911 -0.2083
14738W        W35018   8.752  10.458  10.834 -0.2513  0.0224  0.0290
14739W        W35019   9.549   5.727   3.993  0.4897 -0.1795 -0.0122
14740W        W35020  13.369   1.834  13.579  0.1038 -0.0906  0.0566
14741W        W35021   1.148  17.677   1.616  0.0691  0.0920  0.1268
14742W        W35022   0.036  10.545  11.198  0.0933  0.1092 -0.1601
14743W        W35023  13.184  17.139  11.232 -0.0263  0.5049 -0.0533
14744W        W35024  11.052  15.173  11.002 -0.1167 -0.1397  0.1243
14745W        W35025   5.304   3.772  11.402 -0.0695  0.1230 -0.0911
14746W        W35026  13.521   0.422   4.404 -0.2359 -0.4167  0.0252
14747W        W35027  18.059  11.685   0.990  0.1082 -0.2078 -0.2649
14748W        W35028   1.394   8.838   1.430 -0.0558 -0.4100 -0.1424
14749W        W35029  12.904  12.757   2.478 -0.1051  0.0074 -0.1554
14750W        W35030   2.530  16.553  10.820  0.0147 -0.1825 -0.0422
14751W        W35031   2.297   4.492  10.782 -0.1781  0.3471  0.0359
14752W        W35032  13.463  10.139  10.648  0.0290 -0.1611  0.1076
14753W        W35033   1.592   1.694  14.395 -0.1108  0.1052  0.1984
14754W        W35034  14.055   2.501  13.979 -0.4060  0.1681  0.0380
14755W        W35035  18.966   6.899  14.074  0.0660 -0.1029  0.2691
14756W        W35036   2.082  18.961   0.121  0.2058  0.0470  0.0574
14757W        W35037  10.649  10.306   2.076 -0.0746  0.1864  0.2678
14758W        W35038   3.014   9.511  11.246  0.0247 -0.3516 -0.0926
14759W        W35039   6.874   3.657   0.169 -0.0717 -0.2241  0.0741
14760W        W35040   9.726   7.981  12.129  0.1360  0.0624 -0.0294
14761W        W35041   2.586  11.210   1.156  0.2652  0.1342 -0.0387
14762W        W35042  12.452   0.599  12.139 -0.2232 -0.4809  0.1124
14763W        W35043  10.721   9.131  14.116  0.0657 -0.1361 -0.0841
14764W        W35044   4.529   1.788   3.470 -0.0626 -0.1956 -0.4870
14765W        W35045   0.775  18.474  13.751 -0.0322 -0.0558  0.1786
14766W        W35046  12.265   7.279   0.542  0.1049 -0.2280 -0.3075
14767W        W35047  13.415   2.762  11.683  0.0099  0.1089  0.0728
14768W        W35048   6.585  17.019  13.326  0.2431 -0.0397  0.0196
14769W        W35049   3.495   4.192   0.077 -0.0515 -0.1576 -0.0597
14770W        W35050  11.936   6.982   9.986 -0.2988  0.1956  0.0330
14771W        W35051  14.208   8.346   2.600  0.0284 -0.4115  0.1838
14772W        W35052  13.901  12.674   2.294  0.0012 -0.1544  0.2689
14773W        W35053   5.534  17.885  11.701 -0.1401 -0.0843  0.2440
14774W        W35054  13.604  19.315   4.357 -0.1574 -0.1756  0.0355
14775W        W35055  17.072  13.642   5.036 -0.1318 -0.0864  0.0095
14776W        W35056  12.414   3.950   4.296  0.0492 -0.1234  0.3940
14777W        W35057   6.272   9.593   2.467 -0.2414  0.1280  0.1047
14778W        W35058   2.873   8.760  12.111 -0.1603 -0.0511 -0.0790
14779W        W35059   7.513   2.906   2.557 -0.0148  0.2429  0.0258
14780W        W35060   8.192  10.946   9.786  0.0537 -0.0766 -0.0907
14781W        W35061   1.874   7.110  11.270  0.0730  0.3325  0.0528
14782W        W35062  10.741  15.490   0.144  0.0908  0.2420  0.2607
14783W        W35063   0.208  16.895  12.521 -0.3863  0.1392 -0.1100
14784W        W35064   0.030  19.159   3.419 -0.2900  0.1121  0.0211
14785W        W35065  17.577   5.588   0.768 -0.0758  0.0161 -0.1032
14786W        W35066  10.232  17.999   2.441  0.1254  0.3237  0.2487
14787W        W35067  11.841  17.270   0.133 -0.0293  0.1851 -0.1621
14788W        W35068  13.737   1.546   3.444  0.0148 -0.1131 -0.2304
14789W        W35069   8.552   0.328  11.911 -0.1806  0.1387  0.2786
14790W        W35070   4.828   8.888   0.134  0.0739 -0.2143  0.0518
14791W        W35071  17.295  19.210  13.969 -0.1466  0.1264 -0.0123
14792W        W35072  14.308   5.991  14.142  0.1623 -0.1757  0.1598
14793W        W35073   4.148   9.806  11.754 -0.0154 -0.0040 -0.0004
14794W        W35074  18.327   6.786   0.181 -0.1681  0.3456  0.0944
14795W        W35075   8.677   0.494   0.518 -0.2217 -0.0697  0.3224
14796W        W35076  13.767   0.902   4.044 -0.1734  0.2452 -0.2928
14797W        W35077   3.982   2.775   1.631  0.1185 -0.2147  0.2509
14798W        W35078   9.332  16.190   2.342  0.1781 -0.1269  0.2944
14799W        W35079  10.706  18.726  13.955 -0.1429 -0.3018  0.3199
14800W        W35080   1.674   6.923  12.164 -0.3577 -0.1939 -0.2096
14801W        W35081  16.478   7.640   9.459 -0.4242  0.1043 -0.0060
14802W        W35082  17.580  10.887   0.526 -0.3017  0.1563  0.0879
14803W        W35083  12.506  14.004   2.389 -0.1352 -0.1612 -0.1090
14804W        W35084  12.303   0.752  12.615  0.5131  0.0187 -0.1389
14805W        W35085  14.460  17.079  13.491  0.1678 -0.0603  0.0954
14806W        W35086  11.724   5.615   0.013 -0.0456  0.2272  0.0950
14807W        W35087   0.549  19.342   2.979  0.0301 -0.0138 -0.0533
14808W        W35088  12.030   1.102  12.346  0.0790 -0.0537  0.1416
14809W        W35089  17.045  13.216  12.337 -0.0592 -0.5264  0.1686
14810W        W35090   1.428  13.310   0.421  0.0745 -0.0277 -0.0034
14811W        W35091  12.748  12.306  13.262  0.2221 -0.1081 -0.1829
14812W        W35092   7.323   5.651   2.112  0.1183  0.0826  0.0714
14813W        W35093  17.100  17.065   5.122 -0.0407  0.0909  0.1160
14814W        W35094  17.212  17.183   2.913  0.3072 -0.2844  0.0003
14815W        W35095  11.138   0.990   3.277 -0.1821 -0.0818 -0.0208
14816W        W35096   2.137  16.424   0.852  0.6317 -0.1160 -0.3540
14817W        W35097   5.470  18.111   3.083  0.1917 -0.1624  0.1295
14818W        W35098   4.580  11.442  11.177 -0.2539 -0.1691 -0.1483
14819W        W35099  15.362   4.007   2.935  0.1386 -0.1904  0.1885
14820W        W35100  19.031  12.576   1.192 -0.1540  0.1271 -0.1183
14821W        W35101  19.337   0.556   0.814 -0.0575  0.0148 -0.1363
14822W        W35102  18.497  16.832  11.027  0.3697 -0.1704 -0.0920
14823W        W35103  14.433  12.874  14.068  0.1047 -0.1754  0.3779
14824W        W35104  11.492   3.037  10.478  0.0197 -0.0113 -0.1562
14825W        W35105  14.625   3.858  11.100  0.1295  0.2895  0.3121
14826W        W35106   4.903   9.332   3.801  0.2835 -0.5194 -0.2195
14827W        W35107   8.192  10.740  11.544 -0.1757  0.1425  0.5855
14828W        W35108  11.054  13.903   2.780 -0.2682  0.0112 -0.3309
14829W        W35109   6.680  19.344  14.000  0.0207  0.2640  0.1003
14830W        W35110  12.372  19.052  12.222 -0.0382  0.0259 -0.0851
14831W        W35111  18.491   7.558   2.415 -0.0016 -0.2289  0.2442
14832W        W35112  11.405   2.403   0.482  0.1056  0.0765  0.1079
14833W        W35113  18.865   0.236   1.679 -0.0587  0.1953 -0.1602
14834W        W35114   0.032  15.000   2.056 -0.2026  0.2138 -0.4425
14835W        W35115   9.816   5.172   4.774 -0.1704 -0.1183  0.1094
14836W        W35116  12.612  12.700   3.716 -0.1122  0.0310  0.2191
14837W        W35117   3.416   5.760   2.332  0.0720 -0.0820 -0.1718
14838W        W35118   6.925  18.452  13.173  0.1117 -0.0687 -0.0632
14839W        W35119   9.997  11.874   3.702  0.3167  0.3080 -0.1696
14840W        W35120   5.840  12.473   3.546  0.1914 -0.0109  0.1316
14841W        W35121   9.068  10.466   3.870 -0.1705 -0.1440 -0.2025
14842W        W35122   9.165  11.467  13.753  0.1682 -0.3398 -0.0980
14843W        W35123   0.167  13.280   0.994  0.2048 -0.1140  0.0660
14844W        W35124   0.983  11.065  10.753 -0.0239  0.0971  0.0632
14845W        W35125   6.739   0.981   3.062 -0.0948 -0.0499  0.2028
14846W        W35126   0.117  18.644   2.651  0.0824  0.2218 -0.1623
14847W        W35127   4.223   4.741  13.695 -0.0351 -0.3033 -0.3877
14848W        W35128   8.092  13.282  14.307 -0.1903 -0.0321 -0.0885
14849W        W35129  10.555   5.353   0.027 -0.1752 -0.1653  0.0718
14850W        W35130   8.385  19.149   3.345  0.0988  0.0044 -0.1279
14851W        W35131  12.661   0.582   9.740  0.2839  0.0717  0.0284
14852W        W35132   8.920  17.659  13.349  0.1712 -0.0687 -0.2154
14853W        W35133   9.439  12.418   3.763  0.0980 -0.1494 -0.2395
14854W        W35134  18.292   8.501   0.381 -0.4611 -0.1661  0.0920
14855W        W35135  15.799   9.833  14.491 -0.2652 -0.3213 -0.2733
14856W        W35136  18.593  14.869  10.416  0.1916  0.0428 -0.1295
14857W        W35137   9.967  10.596   0.817  0.2303 -0.0039  0.0090
14858W        W35138   5.479   7.487   3.677  0.0758  0.3018 -0.2586
14859W        W35139  19.098  11.672  13.445 -0.1922  0.0920 -0.1038
14860W        W35140   4.107  19.266  13.774 -0.1772  0.0911  0.0359
14861W        W35141  15.930   3.466  12.606  0.1481 -0.1645 -0.0362
14862W        W35142   4.853   5.975   0.850  0.2419 -0.1447  0.0011
14863W        W35143  14.455  18.312   4.282  0.1203  0.0003  0.0216
14864W        W35144   8.154   8.266   2.310 -0.0843  0.3009 -0.1691
14865W        W35145  14.595   7.098   2.448 -0.0256 -0.3183  0.5590
14866W        W35146   4.570   3.220  13.674 -0.0231 -0.2333 -0.1027
14867W        W35147  13.722  10.000  14.018 -0.4077 -0.0079  0.0851
14868W        W35148  11.523  18.324   1.123 -0.0138 -0.0551  0.0503
14869W        W35149  11.634  12.610  13.927 -0.0406 -0.2858 -0.0511
14870W        W35150   9.708   8.611   1.136 -0.0820  0.1942 -0.0414
14871W        W35151   6.454   0.564  11.438  0.3775  0.1074  0.1524
14872W        W35152   2.456  19.202   2.504  0.2182 -0.1620  0.1139
14873W        W35153   2.430   0.582   2.904  0.3034 -0.2727  0.0957
14874W        W35154   6.419  17.752   0.994  0.1676 -0.0522  0.1763
14875W        W35155   1.358   2.093  11.393 -0.1593 -0.1778  0.1682
14876W        W35156   0.141   3.465  13.948  0.1919  0.1001  0.4215
14877W        W35157  12.852   5.703  14.157  0.2147 -0.0970 -0.1704
14878W        W35158   4.356  12.405   0.110 -0.1996  0.0479  0.2451
14879W        W35159   0.223  12.269  12.532  0.1161 -0.2830  0.0398
14880W        W35160   5.790   0.251   1.525  0.1323  0.2697 -0.0259
14881W        W35161   7.427  11.591   2.952 -0.0999 -0.0835  0.1302
14882W        W35162   3.646  13.520  10.509 -0.0524 -0.4269  0.0900
14883W        W35163   9.738   9.906   1.501 -0.1564  0.1578 -0.1460
14884W        W35164   5.416   8.191  11.131 -0.5291  0.1359 -0.0547
14885W        W35165  16.630  11.310  12.147  0.2043  0.1232 -0.1135
14886W        W35166  16.684  17.350   2.817  0.0439 -0.0525  0.1611
14887W        W35167  15.172   3.290   0.663 -0.2036  0.0543  0.0430
14888W        W35168  15.948  11.588  13.450 -0.0788  0.2140  0.2372
14889W        W35169   3.355   6.673  10.588  0.0113 -0.1355 -0.0104
14890W        W35170   7.750  18.488  10.726  0.1827 -0.4516 -0.0862
14891W        W35171  17.969   6.458  10.654 -0.0898  0.3209 -0.0490
14892W        W35172   0.176  17.638   4.105 -0.1291 -0.2405 -0.0499
14893W        W35173   5.623  14.740   1.908 -0.0292 -0.2406  0.3556
14894W        W35174  14.497  15.481  12.445 -0.0299 -0.0550 -0.1522
14895W        W35175  16.307   5.332  11.164 -0.1165 -0.0169 -0.0975
14896W        W35176   1.915   3.886  13.181 -0.0467 -0.0925 -0.1973
14897W        W35177   5.138  18.746   1.751 -0.2359  0.0282 -0.0040
14898W        W35178  17.870  13.398   2.296  0.0068 -0.0555  0.4767
14899W        W35179  18.542   1.744  13.459 -0.0295 -0.0915  0.1044
14900W        W35180  12.262   7.771  14.105  0.1777  0.1699 -0.4317
14901W        W35181   5.260  11.483   2.999 -0.1283  0.2030 -0.1404
14902W        W35182  12.256   3.632  11.617  0.1287  0.2421  0.2318
14903W        W35183   0.905   5.450  14.141 -0.3786 -0.0396 -0.1247
14904W        W35184  18.909  10.627   1.459 -0.2484 -0.0430  0.0438
14905W        W35185   9.260   2.755  12.388  0.0499 -0.0511  0.1792
14906W        W35186  14.027  19.236   3.996  0.1262 -0.0536 -0.0876
14907W        W35187   2.737   8.472  12.824 -0.4010  0.0250 -0.0266
14908W        W35188   6.196  11.135   0.405  0.0983  0.0789 -0.1239
14909W        W35189   0.066   4.710   1.746  0.3322  0.0890 -0.1851
14910W        W35190   9.394  14.679  13.747 -0.2091  0.2607 -0.2073
14911W        W35191  15.188  14.471  11.475  0.1183  0.1858  0.0274
14912W        W35192   0.479  19.327  13.233 -0.0362  0.0826  0.0684
14913W        W35193   2.527  13.961  14.478  0.1133 -0.6171 -0.1910
14914W        W35194  11.952  17.937  11.801  0.0750 -0.0527  0.1047
14915W        W35195   1.329   9.458   2.315 -0.0461 -0.0723  0.0070
14916W        W35196   5.526   6.685   0.214 -0.0797 -0.0319 -0.0425
14917W        W35197  16.303  12.379  14.070 -0.3333  0.1295 -0.3868
14918W        W35198   5.186  12.504  10.072 -0.4120  0.0956 -0.1925
14919W        W35199  14.238   8.016   3.558 -0.0111 -0.0571  0.0566
14920W        W35200  17.385  13.783   1.543  0.0838 -0.1462 -0.1193
14921W        W35201  17.678  11.283  12.371  0.0963 -0.1503 -0.1064
14922W        W35202   8.926   0.579  14.207 -0.0046 -0.0783 -0.0957
14923W        W35203   5.891   9.301  10.036 -0.0646  0.0288  0.0769
14924W        W35204   8.137   8.243  13.549  0.1460  0.1135 -0.1097
14925W        W35205  18.354  13.870  10.723 -0.1847 -0.0070 -0.0232
14926W        W35206  14.672   5.553   1.852  0.0623  0.1395 -0.0102
14927W        W35207   6.178   7.577  12.502  0.0084  0.1744 -0.0609
14928W        W35208   3.658  16.961  13.783 -0.0660  0.0906 -0.1747
14929W        W35209  12.839   8.845   2.983 -0.4999  0.0726  0.0231
14930W        W35210  14.902   9.529  14.064  0.0361 -0.2363  0.1385
14931W        W35211  11.333   9.189   3.526  0.3669  0.1246 -0.2607
14932W        W35212  10.238   8.155  12.072  0.0655 -0.2521 -0.1051
14933W        W35213  18.401  17.074   4.118  0.3427  0.0468 -0.0216
14934W        W35214  18.368  16.928   1.407 -0.0683 -0.0340  0.1208
14935W        W35215  11.066  14.668  11.154  0.0290 -0.0648 -0.5143
14936W        W35216   6.810   0.990   3.550 -0.1519  0.1608 -0.0931
14937W        W35217   0.648   1.145  12.410 -0.0429 -0.3160  0.2827
14938W        W35218  17.286   7.724   3.077 -0.1216 -0.0232 -0.1356
14939W        W35219   2.835   2.525   4.401  0.0356  0.0651  0.0270
14940W        W35220   4.724   5.701   2.228  0.0558  0.2145 -0.1267
14941W        W35221   7.023   9.728  13.429  0.2865 -0.2363  0.1099
14942W        W35222  17.714   4.030   1.417  0.0514 -0.1440 -0.3250
14943W        W35223  13.993   4.040   4.303 -0.1816  0.3444 -0.0470
14944W        W35224  13.975   6.951   9.690 -0.1019 -0.1822  0.0297
14945W        W35225  11.117   4.894   2.029  0.2362  0.3220 -0.1934
14946W        W35226   7.272   8.017  12.766  0.0202 -0.2121 -0.0087
14947W        W35227  11.995  17.888   2.384 -0.0420  0.0666 -0.0588
14948W        W35228   0.896   3.225  11.181  0.3219 -0.0360 -0.1236
14949W        W35229   5.730  16.787  13.256 -0.2109  0.1946 -0.2215
14950W        W35230   7.012  11.681  13.450  0.0027 -0.2688 -0.2395
14951W        W35231   4.168   2.807   2.083  0.1540  0.3561 -0.0126
14952W        W35232   7.241   0.779   3.273  0.3775  0.0975 -0.2541
14953W        W35233   9.190   5.083  13.446  0.2160 -0.2744  0.0964
14954W        W35234   0.299  14.926  11.180  0.0774  0.1329  0.0539
14955W        W35235   0.897  18.749   3.699 -0.0795 -0.1885  0.2876
14956W        W35236  18.744  13.380   0.703 -0.1209 -0.2031  0.1850
14957W        W35237   2.458  15.509   0.613  0.0588  0.2464  0.0952
14958W        W35238  18.804   3.045   2.520 -0.0737 -0.2075  0.4039
14959W        W35239  18.272  12.375  11.951  0.3683 -0.3307 -0.1151
14960W        W35240   0.415   6.771   1.902  0.1589  0.0982  0.0604
14961W        W35241  13.923  18.984   0.056 -0.1581  0.2124  0.0171
14962W        W35242   0.788  12.394  11.166  0.1497 -0.0895 -0.0605
14963W        W35243   9.709   7.309  10.948 -0.3524 -0.4202  0.0536
14964W        W35244   0.055  18.130   2.808 -0.3321 -0.1083 -0.0178
14965W        W35245   7.187   9.788   0.848  0.2670  0.0478  0.0245
14966W        W35246  12.274   2.656   3.278 -0.0082  0.2650 -0.0666
14967W        W35247  13.721   3.442  12.333  0.0464 -0.0667 -0.1695
14968W        W35248  16.017   5.689   3.072 -0.2468  0.6051 -0.3441
14969W        W35249   6.813  15.422   1.393 -0.1657  0.4025 -0.2486
14970W        W35250   6.572  17.510  12.360  0.0284 -0.0869 -0.2673
14971W        W35251  17.514  13.174  13.054 -0.1836  0.2560  0.0146
14972W        W35252   8.739  12.241  10.206  0.0155  0.0089  0.0616
14973W        W35253  17.516   3.372  13.247 -0.0127 -0.1870  0.0647
14974W        W35254  10.333  17.952  13.224 -0.0067 -0.1355 -0.1453
14975W        W35255   6.508   2.083  12.230  0.2321 -0.0915  0.0143
14976W        W35256  17.658  18.235  14.068 -0.1215 -0.0001  0.2278
14977W        W35257   0.721   1.090  13.971 -0.0563  0.2495 -0.2971
14978W        W35258   5.021  13.042   2.626  0.1888 -0.0306 -0.0550
14979W        W35259  14.346  10.879   0.306  0.0361  0.0578 -0.1599
14980W        W35260  18.771  12.309   1.603 -0.3091 -0.2156  0.1790
14981W        W35261   6.374  15.107   3.059 -0.2576 -0.3023 -0.0222
14982W        W35262  13.586  10.794   2.667  0.0295  0.0259  0.3052
14983W        W35263  11.989  14.060   1.230 -0.1206  0.0402 -0.1958
14984W        W35264   6.074  15.120  11.591 -0.1103 -0.1598 -0.0799
14985W        W35265  16.177  18.789  11.546  0.3757  0.4660 -0.0077
14986W        W35266   3.741  12.122  11.638  0.0511 -0.3240  0.1601
14987W        W35267   4.832   7.927  14.166  0.3227  0.1814  0.0412
14988W        W35268  15.899   7.755   3.558 -0.1475  0.3069 -0.2599
14989W        W35269  13.562   1.236  14.487 -0.2263 -0.3635 -0.0014
14990W        W35270  15.674   4.865   2.891 -0.1835  0.1643 -0.1164
14991W        W35271   5.176   0.044   0.727  0.1163 -0.5949  0.0057
14992W        W35272   2.267   2.526  14.452 -0.2488 -0.2225 -0.1335
14993W        W35273   3.240  15.739   1.447 -0.5615 -0.0591 -0.1327
14994W        W35274  11.099   7.329   3.264  0.0623  0.0575 -0.0642
14995W        W35275   8.878   2.120  13.624 -0.0306 -0.0612  0.2029
14996W        W35276   6.084  19.340  14.069  0.3874 -0.1120  0.0624
14997W        W35277   7.672  16.351  10.811 -0.0573  0.0574 -0.0178
14998W        W35278  15.470  13.093  14.229 -0.1240  0.1077 -0.2146
14999W        W35279   2.298  12.523  13.627  0.2285 -0.1863  0.6793
15000W        W35280  12.450  10.473   1.497  0.0908  0.3002  0.0824
15001W        W35281   4.512   8.289  10.567 -0.0968 -0.1293  0.0296
15002W        W35282   5.721  10.873   1.645  0.2220  0.0758 -0.1769
15003W        W35283   0.166   6.668   2.417  0.0467  0.0526 -0.2361
15004W        W35284  15.095   7.695  14.388  0.1083  0.0888 -0.2080
15005W        W35285   4.288  12.733  13.010 -0.1502 -0.3456  0.0744
15006W        W35286   0.814   1.123  11.418  0.1035 -0.1448 -0.1816
15007W        W35287   6.994  13.989   2.643 -0.2106  0.2438  0.2002
15008W        W35288  17.978  12.245   1.213 -0.2130  0.1854  0.0437
15009W        W35289  16.246   9.535   0.125  0.1922 -0.3301 -0.2463
15010W        W35290   5.240  15.131  13.281 -0.3429 -0.0658 -0.1156
15011W        W35291   6.777   9.797  13.910  0.4921  0.3057 -0.0412
15012W        W35292  13.697   7.016  11.905 -0.0007 -0.2046 -0.0403
15013W        W35293   8.170   6.831   2.394  0.1705  0.1155 -0.1306
15014W        W35294   0.212   0.215   3.249 -0.0805  0.0869 -0.2250
15015W        W35295  12.896  13.727   0.955  0.1139  0.0333  0.0053
15016W        W35296  11.679   9.747  12.617 -0.1279 -0.1318 -0.2232
15017W        W35297   3.481   2.544   3.635 -0.2928 -0.2777 -0.1556
15018W        W35298  18.759   4.617   5.237  0.0852 -0.0267  0.1923
15019W        W35299  11.077   6.580  13.945 -0.0724  0.2460  0.1488
15020W        W35300  14.347   2.812   2.805  0.0847  0.3889  0.1710
15021W        W35301   4.330  15.322   0.177  0.0111 -0.3458  0.1775
15022W        W35302  11.017   9.339  13.804  0.3994  0.1922  0.1439
15023W        W35303  10.901   9.328  13.279 -0.1854  0.2044 -0.1766
15024W        W35304   8.291  11.937   2.734 -0.3286  0.1397 -0.0252
15025W        W35305   1.742  13.044  13.879 -0.0494  0.3272 -0.2683
15026W        W35306  11.125  14.458   2.018  0.0913 -0.3606 -0.0149
15027W        W35307  18.381  10.575  14.195 -0.1376  0.0368  0.4065
15028W        W35308  10.319  19.005  13.210  0.0067  0.2501  0.0132
15029W        W35309  16.560  18.655  13.197  0.1821  0.0361  0.1430
15030W        W35310  17.501   5.552  12.576 -0.0255  0.1106  0.0482
15031W        W35311  15.587   6.468   1.093  0.0562  0.3582 -0.1917
15032W        W35312   5.786   7.927  10.481 -0.0288  0.1467 -0.3013
15033W        W35313   8.534   2.929  12.112 -0.0383  0.0939 -0.1355
15034W        W35314  10.074   7.898  10.429  0.1351  0.0921 -0.1509
15035W        W35315   6.038   1.171   3.508  0.1843 -0.0728 -0.2778
15036W        W35316   7.265   3.164   1.114  0.1758  0.0026  0.0114
15037W        W35317  12.273   1.718   2.711  0.0618  0.0130  0.0615
15038W        W35318   8.091  17.503   3.427 -0.2149 -0.1913 -0.0425
15039W        W35319  16.071   7.671  11.728 -0.0118  0.0048  0.0296
15040W        W35320   3.774   7.787  14.138  0.1136  0.2263 -0.0107
15041W        W35321  15.628  10.851  10.261 -0.2449  0.0751  0.0503
15042W        W35322   6.807  14.518  11.054  0.0383  0.1524  0.4811
15043W        W35323   1.295   3.252  13.476  0.3099  0.0834 -0.2889
15044W        W35324   6.959   1.289  11.673  0.1185  0.1700  0.1396
15045W        W35325   0.094   4.528   2.667 -0.1301 -0.2164  0.3170
15046W        W35326  14.232   1.388   3.262  0.1892 -0.0625  0.1083
15047W        W35327   2.467  14.737  13.330 -0.1095 -0.1916 -0.0207
15048W        W35328  16.071   1.781  13.017 -0.0564 -0.0137  0.3955
15049W        W35329  17.060  19.397   4.019 -0.1181  0.1783 -0.0362
15050W        W35330   7.152  13.146   2.841 -0.1125 -0.2716  0.0199
15051W        W35331  18.835   4.865  13.022 -0.1963 -0.2159 -0.1689
15052W        W35332   5.967   5.989  14.058 -0.2947  0.2579 -0.1119
15053W        W35333   6.905  12.401  14.032 -0.1482  0.0223 -0.1526
15054W        W35334  18.265   4.641   1.824  0.4817  0.0837  0.3719
15055W        W35335  10.485   8.181   3.990  0.0415 -0.3101 -0.1567
15056W        W35336   9.900   0.121  12.309  0.0864 -0.1547  0.0776
15057W        W35337  15.661   9.667  11.625 -0.2790  0.1700  0.1779
15058W        W35338   1.246  15.421   9.845  0.0326  0.0223  0.0611
15059W        W35339   5.540   3.971   4.088 -0.0686 -0.1937 -0.2173
15060W        W35340  19.138   4.504   1.448  0.0245  0.0250  0.1072
15061W        W35341  13.979   1.550  11.706  0.4181 -0.1132  0.0088
15062W        W35342  16.330   2.933  13.746  0.2339 -0.1459  0.1642
15063W        W35343   1.618  16.273   9.365 -0.0644  0.2512  0.0252
15064W        W35344   1.517  14.456   1.448 -0.1408 -0.0724 -0.2088
15065W        W35345  16.757   7.490   1.391 -0.1857  0.2030  0.0886
15066W        W35346  14.931  15.007   2.057  0.1531 -0.0630 -0.0092
15067W        W35347   2.449   0.174  11.928  0.1204 -0.3127 -0.0270
15068W        W35348  18.465  15.045  12.527  0.1038 -0.2167  0.0030
15069W        W35349  17.657  12.162   0.334 -0.1601  0.2523 -0.1000
15070W        W35350  18.313  13.818   2.518 -0.2994 -0.1139 -0.0478
15071W        W35351  17.263   7.584   0.685  0.0223 -0.2242 -0.3010
15072W        W35352   4.407   8.089   3.424 -0.1340  0.1426  0.2058
15073W        W35353   5.480  14.403   0.054 -0.4468  0.0202  0.0045
15074W        W35354   8.430  13.505   2.175 -0.2108  0.4643 -0.0117
15075W        W35355   1.801   1.451   1.274  0.0843 -0.0979  0.1643
15076W        W35356   9.861   5.430  13.896  0.1703  0.0398  0.2131
15077W        W35357  16.062  17.760   3.801  0.0529  0.4081 -0.1242
15078W        W35358   4.503   7.258  11.653 -0.2016 -0.1826  0.2667
15079W        W35359   1.035  16.265  14.279  0.0510  0.1390  0.3482
15080W        W35360   1.178  11.396   1.588 -0.0537  0.0785  0.1809
15081W        W35361  12.065   0.857  14.042  0.0383  0.0219 -0.1386
15082W        W35362  14.367   5.121  11.911  0.0805 -0.3532  0.2935
15083W        W35363  15.096  19.040   5.322  0.1639 -0.1591 -0.0937
15084W        W35364   7.302   9.480   0.444 -0.0482  0.1052  0.2077
15085W        W35365  10.908  14.431  12.456  0.0380  0.1686  0.2076
15086W        W35366  11.416  18.470   3.070 -0.3450 -0.1831 -0.0578
15087W        W35367  16.956   9.444  14.205  0.0480  0.0350  0.0826
15088W        W35368  13.824   1.539   2.920 -0.0906  0.1364 -0.2300
15089W        W35369   0.543   9.908  14.265 -0.2746  0.1552  0.0203
15090W        W35370   1.022   8.116   0.630  0.0190  0.0881 -0.1793
15091W        W35371   5.095   2.883   1.920  0.0027  0.1482 -0.2377
15092W        W35372   6.072  17.270  11.714  0.1447 -0.1858  0.1156
15093W        W35373  13.954  13.221  12.728  0.2128  0.2332 -0.2054
15094W        W35374   0.112  14.227   3.367 -0.1567 -0.5771 -0.1238
15095W        W35375  13.307  11.381   0.375  0.2312  0.1885  0.0655
15096W        W35376   4.889   3.980  11.648  0.1179  0.0264 -0.2232
15097W        W35377   1.646  12.746  12.814  0.2034 -0.1415  0.0782
15098W        W35378  11.817  17.480  10.521  0.1531 -0.1445  0.1202
15099W        W35379  18.019   1.031   3.232  0.1321 -0.0739 -0.3489
15100W        W35380   8.108  18.116   9.878 -0.0807  0.0798  0.1291
15101W        W35381   9.091   6.242   0.193 -0.1921  0.3579  0.2201
15102W        W35382   3.886  10.871   1.100  0.1031  0.2443  0.2973
15103W        W35383  10.905   4.058  13.073 -0.2697 -0.0789 -0.1740
15104W        W35384  15.764   2.753  13.733  0.2208  0.1036  0.1386
15105W        W35385   1.515   1.043   4.719  0.2611 -0.0649 -0.0083
15106W        W35386   0.523   3.450  14.260  0.0969  0.3078 -0.1177
15107W        W35387   0.820   9.165  10.396 -0.2554  0.0620  0.0973
15108W        W35388  16.705   1.296  12.456  0.3673 -0.0094 -0.0042
15109W        W35389   1.028  17.826   2.150  0.2689  0.0051 -0.0881
15110W        W35390  13.378   4.347   2.022  0.0368 -0.1440 -0.0279
15111W        W35391  15.591  18.411   0.604 -0.2654  0.1587  0.1010
15112W        W35392   6.406  16.201   1.567 -0.0236 -0.0843 -0.0491
15113W        W35393  11.500  10.831  13.835  0.0235  0.1152  0.2310
15114W        W35394  10.407  16.436   0.473  0.1993  0.1511  0.3743
15115W        W35395   4.777  18.495  11.741  0.0166  0.0944  0.2556
15116W        W35396  10.750   8.638  10.742 -0.2523  0.1822  0.2240
15117W        W35397   8.797  11.664   0.361  0.0788 -0.0922 -0.0730
15118W        W35398  12.767  15.314   2.017  0.0050 -0.3996 -0.1032
15119W        W35399  13.151   4.979   3.351 -0.1841  0.1009 -0.2182
15120W        W35400   8.221  10.274   3.449 -0.1779  0.0815 -0.2664
15121W        W35401  15.669  17.985   2.547  0.1664 -0.4364  0.0502
15122W        W35402  17.709  10.984  12.834  0.0515 -0.4614 -0.1047
15123W        W35403  13.592   4.338  11.826  0.0416 -0.0532 -0.0043
15124W        W35404   5.983  16.112  12.316  0.2223  0.0120 -0.1196
15125W        W35405   4.374  11.562  10.760 -0.2655 -0.0542 -0.0189
15126W        W35406  10.207  11.599   3.340  0.4190  0.0016  0.2213
15127W        W35407   0.589  12.920   1.851  0.2365  0.0276 -0.1676
15128W        W35408   6.490   3.310  11.459 -0.1321 -0.1361 -0.0770
15129W        W35409  12.656  19.283   2.818 -0.0709 -0.0236 -0.0295
15130W        W35410  10.210   2.496   3.771  0.2582  0.0314  0.2052
15131W        W35411   1.755  13.499  14.116 -0.0369 -0.2646  0.1652
15132W        W35412   3.001  16.164  12.579  0.0488  0.0442  0.0817
15133W        W35413   4.885  10.568   0.599 -0.1377  0.4514  0.0912
15134W        W35414   7.564   6.133   3.715  0.2760  0.1259 -0.1245
15135W        W35415   6.383  12.220   2.256 -0.2752  0.3382  0.2390
15136W        W35416   1.484  15.908  13.768 -0.2117  0.2595  0.1520
15137W        W35417  17.938  18.955   2.283 -0.1679 -0.1921  0.0863
15138W        W35418  10.206  13.856   4.210  0.2296 -0.0278 -0.0470
15139W        W35419  17.621  17.318  11.932 -0.0903  0.4908 -0.1513
15140W        W35420   4.330   4.934  12.768 -0.2801 -0.2706  0.1738
15141W        W35421   5.577   9.852  10.742 -0.1297  0.1333  0.5086
15142W        W35422  13.370   7.508   5.355 -0.0657 -0.1296 -0.0823
15143W        W35423   2.136  10.326   3.391 -0.2961 -0.0645 -0.2092
15144W        W35424  12.871   5.806  12.942  0.0312  0.0153 -0.1002
15145W        W35425  16.465   3.889   4.105  0.0136  0.1541  0.2495
15146W        W35426  16.721   0.624  14.258  0.2761  0.1216  0.0985
15147W        W35427   9.124  18.835  11.978 -0.1911 -0.0218 -0.1277
15148W        W35428   5.571  15.282   3.723 -0.0113  0.2736  0.0751
15149W        W35429  15.382  13.329   4.094 -0.3168 -0.2360  0.2759
15150W        W35430   3.528   0.625  11.160 -0.5040  0.0410 -0.1104
15151W        W35431   7.486  15.791   4.690  0.0804  0.4192 -0.0630
15152W        W35432   8.971  13.619  14.332 -0.2305 -0.0927 -0.0212
15153W        W35433   4.939   5.329  10.394 -0.1612 -0.0312  0.0839
15154W        W35434  16.540   1.702  13.247  0.0696  0.1441 -0.0084
15155W        W35435  10.076   1.976   2.869 -0.4929 -0.0820 -0.0321
15156W        W35436  10.616  16.816   0.080  0.1618  0.0348  0.1790
15157W        W35437   8.405   2.263   9.768  0.3023 -0.3292 -0.0969
15158W        W35438   7.633  10.534   1.274  0.2358 -0.0345 -0.2018
15159W        W35439  15.041   7.186  14.368  0.3213  0.3513  0.2280
15160W        W35440  16.310  19.043   3.811  0.0029  0.0656  0.0606
15161W        W35441   1.634  18.867  11.911  0.0005  0.0704  0.0214
15162W        W35442   9.386  11.782  14.037  0.3297 -0.2695  0.2680
15163W        W35443  13.578  10.293  11.122  0.0497 -0.2425  0.1836
15164W        W35444   3.333  16.661   1.662 -0.2630 -0.3992 -0.2071
15165W        W35445   7.875  11.250  12.321  0.3546 -0.0183 -0.0560
15166W        W35446   9.497   1.510  10.359  0.0955  0.1018 -0.0286
15167W        W35447  12.348   5.040   2.469  0.0942 -0.0290 -0.1072
15168W        W35448  12.212  15.016  12.798 -0.1077  0.3095  0.2193
15169W        W35449   1.353  19.021   1.267 -0.2822 -0.0923  0.1529
15170W        W35450   6.974   8.147  14.021 -0.1048 -0.1135  0.1477
15171W        W35451  10.587   2.541   0.173  0.2406  0.1029  0.2309
15172W        W35452  14.422   9.906   0.020  0.0250  0.2713 -0.3990
15173W        W35453  10.540  17.623  11.375 -0.1164 -0.0843 -0.2491
15174W        W35454   4.773  13.904   2.913 -0.2852  0.2012  0.3202
15175W        W35455  11.465  14.236  11.658 -0.0751 -0.3549  0.0131
15176W        W35456  13.899   0.470  11.208  0.1192 -0.0920  0.4381
15177W        W35457  13.121   5.472  13.658 -0.1649 -0.2117  0.0428
15178W        W35458   1.225   5.949  13.795  0.2025  0.1697 -0.0760
15179W        W35459   3.664  16.524   4.801 -0.0668  0.1797 -0.0521
15180W        W35460  14.336   2.432   1.060 -0.0613 -0.0063 -0.0389
15181W        W35461  16.159   3.531  12.153  0.4412 -0.3656  0.1273
15182W        W35462  11.084  18.143   2.754  0.0534 -0.0182 -0.1909
15183W        W35463   5.631  11.899   2.358  0.1453 -0.0480  0.1525
15184W        W35464  10.014   1.210   5.496 -0.2147  0.2641  0.2045
15185W        W35465  18.871   6.183   1.247 -0.0688 -0.2068  0.1902
15186W        W35466  16.215   2.305   1.036 -0.3824 -0.0793  0.1005
15187W        W35467  15.592  15.253   3.125  0.0939  0.0818 -0.1397
15188W        W35468   7.727  14.932  12.579 -0.0184  0.0904  0.3291
15189W        W35469   2.306   8.694  12.084 -0.1983 -0.2861  0.0496
15190W        W35470  12.970   0.420   1.405 -0.1283 -0.2753 -0.0495
15191W        W35471   0.527   5.817   3.273 -0.1612 -0.0064 -0.0273
15192W        W35472  11.657  13.920   2.322 -0.0122 -0.1009  0.0844
15193W        W35473   1.629   0.197   4.009 -0.4944 -0.1300  0.0796
15194W        W35474  19.102   8.411  11.750  0.0493 -0.0814 -0.0852
15195W        W35475   6.240  14.600   2.256 -0.2679 -0.3043  0.1059
15196W        W35476  15.586   6.901  10.783 -0.1210 -0.0345  0.0520
15197W        W35477   2.766  12.046  14.457 -0.2375  0.0220  0.0122
15198W        W35478  13.710   5.881   3.014 -0.0633  0.0409  0.2091
15199W        W35479   6.004   9.723  13.415  0.0120  0.1136 -0.1500
15200W        W35480  11.200  13.382  10.050 -0.0137  0.1284 -0.0357
15201W        W35481   9.772  12.181   2.023 -0.1772 -0.1909 -0.0666
15202W        W35482   7.433  13.346  11.830 -0.4133  0.0815 -0.1762
15203W        W35483  11.740   9.068   4.456 -0.3721 -0.2206 -0.1216
15204W        W35484   1.889   6.937   3.177  0.0917 -0.1912 -0.1145
15205W        W35485   9.285   6.368  12.039 -0.3189 -0.1241  0.1136
15206W        W35486  13.937  14.777  14.248 -0.1133  0.2655  0.1046
15207W        W35487   2.645   3.903  12.573  0.1478  0.1902 -0.1159
15208W        W35488  17.941   5.800  14.064 -0.0577 -0.1336  0.0878
15209W        W35489   8.850   6.137  13.431  0.2332 -0.0714 -0.1114
15210W        W35490   7.451  17.312  11.329 -0.2094 -0.0694 -0.0437
15211W        W35491   8.613   3.685   1.779  0.1637  0.2487  0.3272
15212W        W35492  12.001   3.009  11.162 -0.2379  0.1252 -0.2413
15213W        W35493  14.638  15.977   3.081  0.0937 -0.1407  0.0374
15214W        W35494  16.749   2.221   4.065 -0.1048  0.0679  0.0739
15215W        W35495   1.893  16.082  11.661  0.0902 -0.1441 -0.1330
15216W        W35496  16.569   0.277   3.008  0.1816  0.1274  0.0083
15217W        W35497   3.150  12.843   2.997 -0.2003 -0.0486  0.0014
15218W        W35498   6.769  16.766   4.136 -0.0904  0.1956 -0.3171
15219W        W35499  17.506   5.342  13.549  0.0338 -0.3235 -0.1400
15220W        W35500  12.555  10.991   2.662 -0.1654  0.1708 -0.2245
15221W        W35501   7.077   5.001  13.202 -0.0843  0.0105 -0.2562
15222W        W35502  13.191  17.390  10.768 -0.0321  0.2923 -0.0229
15223W        W35503  13.506   4.731   0.620 -0.1003  0.0404  0.1991
15224W        W35504  14.898  17.095  14.276 -0.1409 -0.0029 -0.0515
15225W        W35505   4.040  13.259   3.057  0.0232  0.1017 -0.0458
15226W        W35506   9.081  10.708   2.384  0.2686 -0.2455 -0.4110
15227W        W35507   4.752   7.715   0.514  0.2386 -0.1300 -0.1286
15228W        W35508   2.796   6.427  12.251 -0.2525  0.2891  0.0099
15229W        W35509   2.824  14.356   1.414 -0.1922 -0.0470  0.0914
15230W        W35510  14.152   5.406  11.530  0.4476  0.0946 -0.1548
15231W        W35511  17.138  10.604   0.125  0.2746  0.0607 -0.0884
15232W        W35512  14.281   2.683  13.558 -0.2751 -0.2075 -0.1030
15233W        W35513   5.927  14.180   2.208  0.1299  0.0696  0.0502
15234W        W35514  15.830   4.265  13.173 -0.1932 -0.1156 -0.1516
15235W        W35515   1.497   8.213   3.314 -0.1648 -0.1288  0.0963
15236W        W35516  11.070   5.232   2.776  0.2534 -0.1820  0.0405
15237W        W35517  17.988   0.825   9.693 -0.2484 -0.0213 -0.0091
15238W        W35518   5.144  17.717  11.426  0.2272  0.1145  0.3805
15239W        W35519   2.005  10.185  11.544 -0.0442 -0.0455 -0.0736
15240W        W35520   8.462   5.683   0.173 -0.1104  0.1987 -0.0562
15241W        W35521   7.721   0.095  11.559 -0.2258 -0.1287  0.1963
15242W        W35522  13.445  16.281  13.644 -0.0022 -0.1688 -0.0620
15243W        W35523  16.669  16.532  12.703  0.0340 -0.0508 -0.4344
15244W        W35524   6.018   6.683   2.552  0.2915 -0.0235 -0.0912
15245W        W35525   3.157   1.360   2.634  0.0233 -0.0091 -0.0875
15246W        W35526   2.149  14.328  13.996  0.1571 -0.1626 -0.1852
15247W        W35527  18.643   4.723   1.491  0.2137 -0.1178  0.0025
15248W        W35528  17.148  18.240   3.185  0.0344  0.0693  0.0072
15249W        W35529   4.469  17.661   0.990 -0.0825  0.0806 -0.0429
15250W        W35530  15.834   6.413  12.009 -0.0277  0.2671  0.2795
15251W        W35531   2.059  16.309   1.340 -0.1552  0.1469  0.0704
15252W        W35532  11.291   6.508   2.208 -0.0655 -0.0224  0.1278
15253W        W35533   7.541  17.022   1.374 -0.1805 -0.1229 -0.1371
15254W        W35534   6.005  13.030  12.415  0.0354 -0.0969  0.3800
15255W        W35535  15.842   1.494   0.555 -0.0821 -0.0026 -0.1310
15256W        W35536  14.301  16.977   2.687  0.1324 -0.1505 -0.1105
15257W        W35537  14.625  17.238   2.351  0.2411  0.0030  0.1016
15258W        W35538   0.865   0.851   4.016 -0.0094 -0.4105  0.0936
15259W        W35539   0.393   5.948   2.731 -0.2566  0.1362 -0.0506
15260W        W35540   9.541   3.082   1.587 -0.1830 -0.1420  0.2003
15261W        W35541   1.924  19.023   3.596 -0.0226 -0.2375 -0.2438
15262W        W35542  12.909   1.480  13.073 -0.0741 -0.1320  0.2674
15263W        W35543  12.311   5.560   3.774  0.0064 -0.1664  0.2550
15264W        W35544   5.090  17.170   0.764  0.0715 -0.0877 -0.0529
15265W        W35545  15.712  12.658   2.432  0.1201  0.2628 -0.1804
15266W        W35546   7.290   8.977   0.386  0.0523  0.1647  0.0566
15267W        W35547  11.607  15.514   1.853 -0.1954 -0.2693 -0.0296
15268W        W35548   6.000  13.944   2.694 -0.0788  0.1753  0.0384
15269W        W35549   0.924   1.407   4.137 -0.0020  0.0226  0.1886
15270W        W35550   3.696   1.012   1.296  0.1443 -0.0411 -0.1456
15271W        W35551   4.602  14.184  10.954  0.3721  0.2115  0.3064
15272W        W35552  14.766   3.424  10.889 -0.0925  0.0012  0.0950
15273W        W35553  13.771  13.442   1.925 -0.2915 -0.2747  0.2110
15274W        W35554  11.341  16.479  10.719  0.0009 -0.0711  0.2325
15275W        W35555   8.184   1.978  13.359 -0.2664  0.1394  0.0623
15276W        W35556  10.527  18.852  12.328 -0.1064  0.1494 -0.3329
15277W        W35557  12.029   5.803   3.434  0.1025 -0.4501  0.0351
15278W        W35558   9.891   3.556  10.840  0.1270  0.0113 -0.1511
15279W        W35559   2.961  11.057   0.902 -0.0137 -0.2111 -0.3335
15280W        W35560  16.652  13.516   0.052  0.0017  0.1411 -0.1682
15281W        W35561  16.159   3.721  10.887  0.2311 -0.0452 -0.0320
15282W        W35562   6.944  16.046   1.019  0.2380  0.1062 -0.2857
15283W        W35563   3.497   3.664  13.506  0.0384  0.3705  0.2259
15284W        W35564   4.398  11.914   3.582 -0.0492 -0.4039 -0.0254
15285W        W35565   9.254  11.242   3.195  0.0155  0.0220  0.0700
15286W        W35566   9.756   5.877  12.497  0.2017 -0.2580  0.2998
15287W        W35567  12.237  11.782  12.116  0.2372 -0.3939 -0.0796
15288W        W35568  13.217   0.182   4.050  0.0277  0.0243 -0.0870
15289W        W35569  16.980  13.203  14.341  0.2174 -0.1503 -0.0610
15290W        W35570  13.950   4.478   0.809 -0.2513  0.1051  0.0980
15291W        W35571  12.232   1.449  12.016 -0.0592  0.3356  0.1409
15292W        W35572  18.187   1.673  12.981  0.4677  0.2019 -0.0997
15293W        W35573   0.694  16.441   2.021 -0.1816  0.0726 -0.0358
15294W        W35574   7.616  15.873   1.368  0.2007  0.0442 -0.1200
15295W        W35575  17.876   8.180   3.982 -0.1901  0.1503 -0.0462
15296W        W35576   8.762  17.287   1.229 -0.0106 -0.0624 -0.0636
15297W        W35577   9.812   1.014  13.624 -0.2535 -0.2285  0.1697
15298W        W35578  14.507  18.858  12.741  0.2769  0.1955 -0.0323
15299W        W35579  12.258   2.831   0.618  0.0921  0.1158  0.2509
15300W        W35580   1.886   0.421   1.376 -0.1228  0.3431  0.0890
15301W        W35581   7.273  10.828   1.466  0.0059  0.0732  0.0298
15302W        W35582  17.065   4.310   3.125 -0.0489  0.0282  0.2623
15303W        W35583  17.795   4.538   3.957 -0.1520  0.1640 -0.3374
15304W        W35584  13.762   5.113   2.031  0.0736  0.2478  0.0971
15305W        W35585   3.042   9.479   1.726 -0.2388  0.2338  0.3995
15306W        W35586   7.927   5.392   1.396  0.2729  0.1695 -0.1983
15307W        W35587   4.787  17.175  13.162 -0.2073  0.3278 -0.2311
15308W        W35588  17.215   5.123  13.928 -0.2468 -0.2143 -0.0094
15309W        W35589   5.563   8.991   9.291  0.2089 -0.0367 -0.4274
15310W        W35590   2.353  13.672   9.033 -0.1030  0.0344 -0.0431
15311W        W35591   1.979  18.435  11.787 -0.1942 -0.2376 -0.1676
15312W        W35592   0.722   6.657  12.876 -0.2909 -0.1542  0.0482
15313W        W35593   2.149  13.631  14.415 -0.0774 -0.2078  0.0436
15314W        W35594   7.949  12.341   3.656  0.1441  0.1053 -0.1901
15315W        W35595  18.502   8.025  12.151 -0.5076  0.0218  0.2301
15316W        W35596  16.285   3.437   1.529  0.0509 -0.0978  0.0087
15317W        W35597   2.394   7.688   1.191  0.1778  0.0623  0.2672
15318W        W35598  10.188   8.877  12.687  0.3246  0.1038 -0.1449
15319W        W35599   6.503   4.997  12.871 -0.0987  0.0974 -0.1427
15320W        W35600   5.840   4.010  14.356 -0.0049  0.3147  0.1876
15321W        W35601   7.098  10.576  13.998 -0.1499  0.0579  0.1558
15322W        W35602   5.368  10.583   4.020  0.1295  0.1512  0.0127
15323W        W35603  14.494  10.256  12.303 -0.1785 -0.0756 -0.3014
15324W        W35604   0.385   1.898  13.421 -0.0081  0.0796 -0.1176
15325W        W35605  11.960   1.747   0.458  0.0612 -0.2960  0.0821
15326W        W35606  12.596  16.358  11.059 -0.3392 -0.0021  0.1891
15327W        W35607   4.960  13.529   1.859 -0.0611  0.0956 -0.4088
15328W        W35608   9.026  11.134  10.033 -0.0941 -0.0348 -0.0588
15329W        W35609  12.993   9.144   3.993  0.0240 -0.2069 -0.1609
15330W        W35610   0.012   2.774   3.692 -0.1086 -0.0724  0.3306
15331W        W35611   8.228  11.252  12.667  0.0932  0.1594 -0.2386
15332W        W35612  15.617  16.152  10.405 -0.1494 -0.0112  0.2270
15333W        W35613   5.560  12.399  11.929  0.0795  0.0396  0.0128
15334W        W35614  12.390   0.539  10.964 -0.2636 -0.0539  0.1734
15335W        W35615  16.122   9.251  10.834 -0.0129 -0.0630  0.0413
15336W        W35616  16.892   2.807   1.538  0.0849  0.1231  0.0870
15337W        W35617  11.767   4.422   3.689  0.2828 -0.0600 -0.2344
15338W        W35618  11.876   7.697   0.580  0.0023 -0.2686 -0.2527
15339W        W35619   3.140  17.531   3.753  0.1761 -0.1949 -0.2942
15340W        W35620   7.515  13.822  11.496  0.2983  0.1396 -0.1609
15341W        W35621  10.897   4.542  13.061 -0.1001  0.3886  0.0859
15342W        W35622  12.808  15.809   2.929 -0.0052  0.0438  0.0460
15343W        W35623   6.593   7.052   3.329  0.2461  0.2154  0.0851
15344W        W35624  12.554  19.121   0.491  0.0322  0.2185 -0.1675
15345W        W35625  14.212   0.694   5.533 -0.0449  0.1108 -0.1259
15346W        W35626   1.243  14.145  14.295  0.3463  0.1281 -0.4230
15347W        W35627   4.176  10.321  13.690  0.1195  0.1309  0.1824
15348W        W35628  13.062   7.756   0.045 -0.0087 -0.0585 -0.1020
15349W        W35629   0.145   0.298  11.337  0.3741  0.2302 -0.0281
15350W        W35630  18.673   0.333   2.841 -0.1407 -0.0241  0.1164
15351W        W35631   0.460   8.704  12.153 -0.1848  0.4619  0.2272
15352W        W35632   4.198   5.123  11.050 -0.0746  0.4289  0.3885
15353W        W35633   6.942   3.411  13.431  0.1146 -0.0966 -0.3713
15354W        W35634   0.102  10.296   3.268  0.0061 -0.1459  0.1895
15355W        W35635   0.885   5.483  11.837  0.2093  0.0613 -0.2796
15356W        W35636   7.603  18.498  14.424 -0.2810 -0.0721  0.0743
15357W        W35637  14.079   7.869  12.024 -0.1039 -0.1263  0.0783
15358W        W35638  12.947  16.455   1.595  0.1037  0.1705  0.0530
15359W        W35639  15.829  10.799  11.948 -0.1624 -0.0053  0.2672
15360W        W35640   8.855  12.939   9.442  0.0745  0.2466 -0.2094
15361W        W35641  15.358   5.988   1.350  0.0169  0.0870 -0.1765
15362W        W35642  15.980  11.408   0.643 -0.0947  0.0970  0.1776
15363W        W35643   6.213   7.797  11.462 -0.0684  0.1785  0.0331
15364W        W35644   9.559   1.238   3.669 -0.2086  0.0719  0.1509
15365W        W35645  18.884  13.600  14.231 -0.0257 -0.2708 -0.2257
15366W        W35646   8.117   2.781   1.871 -0.0069 -0.0748  0.2603
15367W        W35647   8.860   5.320   3.142  0.3117 -0.1061  0.0088
15368W        W35648  18.233  10.092   1.640 -0.0110  0.0999 -0.2185
15369W        W35649   0.041   9.063  12.273  0.0115 -0.1025 -0.0746
15370W        W35650  13.374   6.981  11.407  0.0563  0.3684  0.2804
15371W        W35651  12.626  12.802  11.697  0.0529  0.0466 -0.4471
15372W        W35652   1.204   1.822  13.981  0.1841 -0.1089 -0.0666
15373W        W35653  18.988  17.307   0.339 -0.0030  0.1275  0.1343
15374W        W35654   4.315   6.308   0.889  0.0301  0.0547 -0.1446
15375W        W35655   7.862  16.313   2.965  0.0399  0.0761  0.0639
15376W        W35656   5.564   8.094   3.074 -0.3186  0.1306  0.1101
15377W        W35657   6.324  18.033   3.771  0.1029  0.2060  0.0108
15378W        W35658   6.750   3.047  12.452  0.0340 -0.2659  0.2049
15379W        W35659  18.865  10.186   1.741  0.0923  0.3332 -0.2685
15380W        W35660   8.846   9.501   3.668 -0.3224  0.1282  0.0447
15381W        W35661  13.464   5.369  13.981 -0.0392  0.5891  0.3324
15382W        W35662  14.340   6.478   3.139 -0.2343  0.3275 -0.0796
15383W        W35663  12.563   1.295  13.495 -0.0852 -0.2094  0.4251
15384W        W35664  12.060  18.018  12.639 -0.2661  0.3206  0.1069
15385W        W35665  10.889  17.226  12.343 -0.1917 -0.2181  0.0597
15386W        W35666   0.853  13.431  12.180 -0.2779 -0.5325 -0.2625
15387W        W35667  15.754  17.884   0.329 -0.0273 -0.0550  0.1241
15388W        W35668  17.297  15.268  14.185 -0.1445  0.1509 -0.1716
15389W        W35669  17.930   2.292  13.994 -0.1809  0.0990 -0.1961
15390W        W35670  11.140  10.988   2.394  0.0038  0.1349 -0.1129
15391W        W35671  13.364   3.666   0.554 -0.1127  0.0249 -0.1476
15392W        W35672  10.685   1.017  13.032  0.2581  0.1669 -0.1200
15393W        W35673  14.271   2.645   0.199  0.0705 -0.1671  0.1013
15394W        W35674  15.581  11.321   3.133  0.3792  0.0333  0.0914
15395W        W35675  16.860  14.479   0.413 -0.2991 -0.1602  0.2575
15396W        W35676  13.620   6.259  14.249  0.0472 -0.0593  0.2201
15397W        W35677   1.688  13.456   9.840  0.2430  0.0156 -0.3226
15398W        W35678   2.358   4.882  14.315 -0.0687 -0.0009  0.1795
15399W        W35679   0.417   9.450  13.522  0.1271  0.0803 -0.1820
15400W        W35680   5.636  14.661   0.846 -0.1055 -0.3686 -0.3460
15401W        W35681  19.173  16.696  12.453  0.1655  0.3037 -0.0157
15402W        W35682   0.731   2.987  12.095 -0.2663 -0.0298 -0.0789
15403W        W35683   7.204   1.942   9.709 -0.3095 -0.4221 -0.1832
15404W        W35684  10.052   6.068   1.483 -0.2329 -0.2189  0.1259
15405W        W35685   6.258  17.559   3.487  0.2138  0.4979  0.1135
15406W        W35686   5.420  11.038  14.165 -0.2020  0.1536 -0.1613
15407W        W35687  17.495  16.419   1.509 -0.3449 -0.0881  0.1636
15408W        W35688   9.563   5.092  13.013  0.1297  0.0671  0.0891
15409W        W35689  14.272   7.761   3.971 -0.1891  0.0409  0.1870
15410W        W35690   2.636  16.357   0.715  0.2037  0.2930 -0.0560
15411W        W35691  13.526  17.405  12.239 -0.2557  0.1877 -0.0320
15412W        W35692  17.428   7.465  12.843  0.1030 -0.2863  0.0624
15413W        W35693  19.246   1.025   2.330  0.0235  0.2164  0.1139
15414W        W35694  19.174  12.448  13.928  0.0938 -0.0857 -0.0759
15415W        W35695  18.621   4.851  11.734  0.0822 -0.1049 -0.1546
15416W        W35696   8.532   4.248  11.073 -0.0241 -0.0540  0.0473
15417W        W35697   9.953  17.784  11.181  0.0344  0.0650  0.0084
15418W        W35698   2.821  18.262  11.829 -0.2799  0.0308 -0.2340
15419W        W35699   6.515  16.323   2.052  0.0628  0.2025 -0.0541
15420W        W35700  12.707   4.335   2.781 -0.2023  0.1053  0.1489
15421W        W35701  16.302   6.115   2.343  0.2002 -0.1221 -0.0178
15422W        W35702   2.595   3.436  13.957 -0.1049 -0.1829  0.0952
15423W        W35703  14.486  14.553  12.727 -0.2098  0.2399 -0.4437
15424W        W35704   2.934  17.131   2.708  0.0735  0.0802  0.1947
15425W        W35705  14.143  11.713   1.811 -0.1583 -0.0709  0.0366
15426W        W35706   6.874   6.344   3.246 -0.0728  0.0390 -0.2086
15427W        W35707  16.928  11.499   0.511  0.2709  0.0478 -0.3525
15428W        W35708  13.540  13.944  11.227  0.1871  0.0499  0.3057
15429W        W35709  13.876  10.710   0.208  0.0185 -0.0340  0.3383
15430W        W35710   9.941  14.142  12.025 -0.0475  0.1555  0.3456
15431W        W35711  13.150  12.921   0.248 -0.2434  0.1605  0.2546
15432W        W35712  13.560   3.947   0.124  0.1540 -0.2552  0.0119
15433W        W35713   6.328   8.572   0.033  0.1430  0.5866 -0.0911
15434W        W35714  13.872   2.875   9.731  0.0627  0.0786 -0.2100
15435W        W35715  16.277   6.719  12.116 -0.0992 -0.1304  0.0661
15436W        W35716   2.257  15.957   1.935  0.2162  0.0265 -0.2608
15437W        W35717  10.754  13.339  12.397  0.0313 -0.0252  0.1219
15438W        W35718   3.612   7.018   3.355 -0.1399  0.0910 -0.3193
15439W        W35719  15.016  13.992   1.869 -0.1740  0.2357 -0.3216
15440W        W35720   9.032  13.339   9.654 -0.0800  0.0235  0.3287
15441W        W35721  19.150   3.075  10.829 -0.2995  0.0518 -0.2304
15442W        W35722  18.845  17.247  11.087  0.0194  0.2127 -0.2736
15443W        W35723   1.228  11.922   1.447 -0.0962 -0.0594 -0.0536
15444W        W35724  11.492  14.307  13.908  0.0615 -0.1468  0.1483
15445W        W35725  10.806   5.287  11.914 -0.3079  0.1170  0.2136
15446W        W35726  12.497   0.946   3.970  0.3210  0.1195 -0.0673
15447W        W35727  15.144   5.672   1.845  0.0945 -0.2190  0.2572
15448W        W35728   9.776   8.536   3.159 -0.0925 -0.0827  0.2090
15449W        W35729  10.323   4.951   2.135 -0.0078  0.2199 -0.2164
15450W        W35730  10.389  15.153  13.697 -0.2577 -0.1485  0.0043
15451W        W35731  12.616  13.093   2.268 -0.0292  0.1650 -0.1580
15452W        W35732   4.056  15.167   0.583  0.1885  0.0879  0.1053
15453W        W35733   1.955   5.079  11.397 -0.3182 -0.1402 -0.0934
15454W        W35734  13.987  11.356   0.963 -0.1643 -0.1322 -0.2380
15455W        W35735  14.251  11.341   0.537 -0.0403 -0.2724  0.2580
15456W        W35736  15.254   0.286  10.091  0.1508 -0.3055 -0.2185
15457W        W35737   5.727  12.143   1.401 -0.0470 -0.0765 -0.0163
15458W        W35738  17.129   1.187   2.153  0.0285 -0.2055 -0.1042
15459W        W35739   5.413   5.189  10.296  0.1804 -0.0876 -0.0350
15460W        W35740  10.963   1.774   2.784 -0.1177  0.1807  0.1290
15461W        W35741  17.611   8.560  11.650 -0.2643  0.1378 -0.1335
15462W        W35742   6.850  17.469  12.786  0.0178 -0.3706 -0.0624
15463W        W35743   3.611   6.261   0.846 -0.0310  0.0244 -0.1649
15464W        W35744  10.917  15.334  13.507  0.1896 -0.1341  0.0728
15465W        W35745   5.419   2.353   4.309 -0.2992  0.0895  0.0141
15466W        W35746  17.526  10.218  14.250  0.2006  0.1748  0.0107
15467W        W35747  13.194   1.054   3.331 -0.1314  0.1514 -0.2347
15468W        W35748   2.906  12.000   3.910  0.0676  0.1575  0.0630
15469W        W35749   8.862   9.263   1.424 -0.1355 -0.0734  0.1918
15470W        W35750   6.487   2.013  11.426 -0.0272  0.0443 -0.4801
15471W        W35751   4.917  11.000  12.205  0.1979  0.0543 -0.5813
15472W        W35752   2.488   5.885  10.882  0.1172 -0.2738  0.0140
15473W        W35753   6.673   7.137  14.246  0.0803 -0.1199 -0.1240
15474W        W35754  13.131   9.707  13.175 -0.2585 -0.0163  0.2473
15475W        W35755   1.191  12.095  10.330  0.2307  0.1039  0.3089
15476W        W35756   1.104  13.470   2.570 -0.0498 -0.0075 -0.0779
15477W        W35757   4.386  17.903  12.371 -0.3573  0.1975 -0.4248
15478W        W35758  11.146  17.217   3.921 -0.0602 -0.2083 -0.0905
15479W        W35759   4.691   5.697   1.749 -0.0591  0.0103  0.1176
15480W        W35760  12.076  19.262  14.095 -0.0170  0.1273  0.2175
15481W        W35761  11.568  18.293  12.507 -0.2423 -0.2089 -0.1031
15482W        W35762   4.008   0.544   3.216 -0.0388 -0.3119  0.0551
15483W        W35763  16.635   3.294   0.250 -0.2561  0.0927  0.1617
15484W        W35764  12.887   5.221   1.215 -0.2649  0.2403  0.1720
15485W        W35765   4.911   5.239   3.892  0.1325  0.2413  0.1641
15486W        W35766   8.394   2.936   3.902 -0.0190  0.2878  0.1999
15487W        W35767  16.039   2.643   3.630 -0.0132 -0.1857 -0.0741
15488W        W35768   1.656   1.965   3.600  0.2097 -0.0355  0.2684
15489W        W35769   9.323  19.099   3.601  0.4755  0.2619  0.0446
15490W        W35770  17.513  10.281  12.411  0.0427  0.0001  0.0527
15491W        W35771  16.988   6.884   0.928  0.1285  0.0470  0.2030
15492W        W35772  14.197   4.005  13.980 -0.0739  0.1891  0.0155
15493W        W35773  12.742  11.730   1.070 -0.2322 -0.1180  0.0822
15494W        W35774   2.665  10.048  13.697 -0.2103 -0.0139 -0.1823
15495W        W35775   8.047   3.417  13.087  0.0144  0.0992 -0.0553
15496W        W35776  13.415   5.817  11.717 -0.0962  0.2211  0.0514
15497W        W35777   0.586  10.879  14.027 -0.1112  0.0605 -0.2634
15498W        W35778   4.642   6.595  14.238  0.5782  0.1457 -0.1843
15499W        W35779  10.481   2.883   1.873  0.2214  0.3508  0.1865
15500W        W35780  11.662   9.035   2.521  0.2298  0.2297  0.2060
15501W        W35781   0.086  16.310   2.024 -0.2819  0.0063 -0.1154
15502W        W35782   6.440  13.632  13.578 -0.2422  0.1394  0.2633
15503W        W35783  19.146  17.360   1.380 -0.1273  0.2039 -0.2794
15504W        W35784   5.877  17.003   0.508 -0.0206 -0.2969  0.2272
15505W        W35785  14.051  16.877  12.769 -0.0341 -0.3156  0.0943
15506W        W35786  17.636   3.776   1.909  0.0573 -0.0834 -0.1135
15507W        W35787   0.028   1.484  11.701 -0.3929  0.0581  0.2072
15508W        W35788  16.732  12.304  12.286 -0.1575  0.1318 -0.2637
15509W        W35789  15.304   8.513   0.424 -0.0280  0.0913 -0.0274
15510W        W35790  10.058   6.963   2.318  0.0108  0.1018 -0.1096
15511W        W35791   2.811  13.714   2.836 -0.1680 -0.1327 -0.2212
15512W        W35792  11.338   9.399  11.424 -0.1681 -0.1169 -0.1520
15513W        W35793   1.647  13.941  10.097 -0.2019 -0.0186  0.0360
15514W        W35794   3.537  15.272  13.546 -0.2181  0.3458 -0.0864
15515W        W35795  16.934   1.295   4.314 -0.0192  0.0789 -0.3453
15516W        W35796  13.311  10.183   9.712  0.3003  0.0657 -0.3029
15517W        W35797   3.009  14.442   0.519 -0.0190 -0.0465 -0.1077
15518W        W35798   9.353  17.558   3.552 -0.1298 -0.3850  0.0803
15519W        W35799   2.285  17.891  14.200  0.4632  0.1083  0.4095
15520W        W35800  12.650   3.053  10.440 -0.0576 -0.0844  0.2253
15521W        W35801  14.999  19.214  11.964 -0.0476  0.1619 -0.0030
15522W        W35802  11.543  15.692   0.466  0.0351 -0.1624 -0.3183
15523W        W35803  11.651   6.548   3.777  0.0998 -0.1151 -0.0832
15524W        W35804  10.685  17.267   0.417  0.3902 -0.1943  0.1429
15525W        W35805  17.655  11.266  11.610 -0.0961  0.2751  0.2807
15526W        W35806   1.621  15.223   0.485  0.0427 -0.1736  0.1712
15527W        W35807   1.826   0.437   3.533  0.2660 -0.1450  0.1683
15528W        W35808   3.582  13.522   3.262  0.0175  0.0302  0.2666
15529W        W35809   7.659  18.980  13.704  0.1803  0.1832  0.0323
15530W        W35810  13.243   2.723  12.568 -0.0300 -0.0739  0.3373
15531W        W35811   0.689  16.995   1.966 -0.0240 -0.1802 -0.0538
15532W        W35812  13.037   0.429   4.534 -0.2084 -0.3664  0.0161
15533W        W35813   1.335   4.425   2.180 -0.2515  0.1687 -0.0396
15534W        W35814   4.064  10.664  11.111 -0.0699  0.0768 -0.0913
15535W        W35815  11.094   4.349  13.512  0.1600 -0.0942 -0.1972
15536W        W35816  18.813   7.497  13.765 -0.2085  0.5150 -0.1009
15537W        W35817   3.426  16.307   2.032  0.3974  0.0997 -0.1763
15538W        W35818   7.378  18.758  11.688  0.3743 -0.1983 -0.1483
15539W        W35819   1.019   0.737   3.558  0.1193  0.0810  0.0935
15540W        W35820   8.700   3.116   4.251 -0.0979  0.2348 -0.2652
15541W        W35821  10.811   5.923  14.391  0.3495 -0.2118 -0.0571
15542W        W35822   8.133   4.188   3.124 -0.0389 -0.0317 -0.0274
15543W        W35823  12.540  13.271  13.235  0.2970 -0.1970  0.2162
15544W        W35824   2.956  17.663   9.647  0.2222  0.0592  0.2494
15545W        W35825   1.778   8.157   2.125 -0.0063  0.0842 -0.0893
15546W        W35826  16.960   2.901   0.124  0.0295 -0.3853  0.2983
15547W        W35827   2.933  13.029   1.819  0.0684  0.2829 -0.4682
15548W        W35828  10.082  10.089  13.176 -0.1412  0.2059  0.1715
15549W        W35829   8.429   0.084  13.970  0.1209 -0.1414  0.2103
15550W        W35830  18.798  11.934  13.056  0.0765 -0.0743 -0.2437
15551W        W35831  15.035   0.300   0.074  0.1722 -0.0792 -0.2064
15552W        W35832  15.912  13.254   3.975  0.1987 -0.1040  0.0105
15553W        W35833  11.876   4.665   0.826 -0.2059 -0.1589 -0.2924
15554W        W35834  10.546   5.510  13.193 -0.0052 -0.1589 -0.2333
15555W        W35835  13.377  17.550  12.839 -0.0124  0.2520  0.0686
15556W        W35836  18.333  17.396  10.354  0.0845  0.4683 -0.3176
15557W        W35837  10.565  18.462  12.010 -0.0546 -0.1954  0.2714
15558W        W35838  11.252  17.319   0.473  0.2460 -0.2391  0.0388
15559W        W35839   9.459  12.781  12.140 -0.3031 -0.3800  0.1108
15560W        W35840   8.545   4.376   2.834  0.1699  0.1299 -0.2311
15561W        W35841   1.096   7.407   1.925  0.0581  0.0529  0.1060
15562W        W35842  13.419  10.220  11.658  0.1777 -0.2253  0.4384
15563W        W35843   4.360  18.145   0.729 -0.4060  0.0621 -0.1712
15564W        W35844   8.931   9.383  13.248  0.0143 -0.1678  0.2397
15565W        W35845   8.185   6.158   2.148 -0.1368 -0.1276 -0.1635
15566W        W35846  19.407   2.017  10.754 -0.0877 -0.0665  0.0088
15567W        W35847  13.768   1.726   2.468  0.2712 -0.1774 -0.2725
15568W        W35848  11.952   6.206  10.862 -0.1514  0.1338  0.0462
15569W        W35849   2.226  17.675  13.203 -0.0430  0.1484 -0.2519
15570W        W35850   1.093   8.980   0.248 -0.0674 -0.2164  0.0882
15571W        W35851   8.468   9.492   1.788 -0.0614  0.1800  0.2322
15572W        W35852   3.220   7.000  12.834  0.1176 -0.0193  0.0160
15573W        W35853  12.097   4.822  11.946 -0.0150  0.1330 -0.2821
15574W        W35854  18.791  13.671   3.285  0.0409 -0.1170 -0.3795
15575W        W35855  18.899   9.904  11.438 -0.0765  0.4942  0.2110
15576W        W35856  18.137  13.204  10.547 -0.2516  0.1197 -0.0182
15577W        W35857  10.969  17.075   3.481 -0.2810 -0.1615 -0.2983
15578W        W35858   8.741  11.707   3.982  0.0063 -0.3201 -0.1855
15579W        W35859  16.223   1.130   0.511 -0.1085  0.1396  0.1147
15580W        W35860  18.557   0.359   0.523  0.1049 -0.2779 -0.0582
15581W        W35861  14.814   2.218  12.364 -0.5062  0.0293 -0.1413
15582W        W35862  13.773   5.583   2.127  0.1011 -0.1006 -0.1122
15583W        W35863  12.060  14.727  13.254  0.2057 -0.2164 -0.1325
15584W        W35864   1.756   0.917   3.418 -0.0739 -0.0848 -0.2417
15585W        W35865   5.052   9.181   2.436  0.1430  0.2370 -0.1977
15586W        W35866   2.007  18.608   1.543 -0.1861 -0.2168  0.2846
15587W        W35867   0.694  14.399   2.296 -0.0535  0.2031  0.3078
15588W        W35868  18.531   3.079   1.968  0.0005  0.1138 -0.1026
15589W        W35869   1.876   6.479   2.909 -0.2249 -0.2138  0.2338
15590W        W35870   1.800  11.294  10.162 -0.0193 -0.1969 -0.2537
15591W        W35871   0.996   2.805   4.126  0.2234  0.0624 -0.0108
15592W        W35872   3.759  14.310  11.623  0.0874  0.0498  0.2403
15593W        W35873   9.621  17.987  12.567 -0.1754 -0.1060  0.2870
15594W        W35874  13.685  17.970   3.749  0.3082  0.0395  0.3930
15595W        W35875   1.961  12.614  13.162 -0.3202  0.1167 -0.1094
15596W        W35876   3.764  18.275   0.799 -0.0229 -0.1187 -0.2341
15597W        W35877  12.054   5.008  13.302 -0.1716 -0.2861  0.2775
15598W        W35878  13.774  12.058   0.944  0.4363  0.1189  0.2253
15599W        W35879   4.401   5.027   2.605  0.0169 -0.2062 -0.1658
15600W        W35880  15.636   2.304  11.441  0.2007  0.1620  0.1328
15601W        W35881   8.658   6.783   2.259 -0.2506  0.3325 -0.0311
15602W        W35882   6.053   4.173  11.060 -0.0516 -0.1346 -0.1861
15603W        W35883  16.889  13.733   3.393  0.0693  0.0174  0.0976
15604W        W35884   5.734  13.940   1.365 -0.0281  0.0127  0.2504
15605W        W35885   4.271  16.983  12.559  0.4179  0.1738 -0.3611
15606W        W35886   0.625   2.796  13.221 -0.0323 -0.0317  0.1332
15607W        W35887  10.686   2.415   1.660 -0.0075  0.1944  0.1690
15608W        W35888  16.043  13.797  10.548 -0.0988  0.2511 -0.1021
15609W        W35889   8.426   5.462  12.072 -0.2759  0.2411  0.3517
15610W        W35890   2.128   2.139   3.897  0.2259  0.0366 -0.0844
15611W        W35891   6.207  11.590   0.123  0.1953 -0.0088  0.2940
15612W        W35892  18.851  14.064  14.488 -0.0411  0.2212 -0.0725
15613W        W35893   2.154  15.683  11.805 -0.0540 -0.0911 -0.1692
15614W        W35894   6.827  14.765   0.767 -0.1022 -0.0491 -0.1139
15615W        W35895  16.511  17.571   3.754 -0.3250 -0.0384 -0.0746
15616W        W35896   1.484   8.477   0.680 -0.0486  0.1544 -0.1082
15617W        W35897   0.933  16.627   1.594 -0.2064 -0.0231 -0.0247
15618W        W35898  15.275   1.919   0.997 -0.1114  0.1535 -0.1344
15619W        W35899  16.058   6.310  11.431  0.0288 -0.0197  0.0422
15620W        W35900  12.183   1.695  14.152  0.2972 -0.1547 -0.0421
15621W        W35901   3.526   4.646  14.323 -0.2367  0.1125  0.0808
15622W        W35902   5.284   8.591  14.395  0.0109 -0.0853  0.0206
15623W        W35903  17.649  15.986   0.272 -0.1321  0.1020 -0.1095
15624W        W35904   0.838  18.182   0.320  0.0248 -0.0550 -0.0329
15625W        W35905  16.866   8.890   1.657 -0.1619 -0.0352 -0.1429
15626W        W35906   9.848   8.385   0.175  0.1453  0.1749  0.1179
15627W        W35907   5.848  13.547   0.118  0.0868 -0.0942  0.1892
15628W        W35908  12.312   2.709  13.257 -0.0002 -0.0804 -0.3172
15629W        W35909   3.383  19.330  13.182  0.2540  0.0803  0.0448
15630W        W35910   6.232   7.107  12.727 -0.1320 -0.0365  0.0671
15631W        W35911   1.679   3.229   0.517 -0.2589 -0.0932 -0.0915
15632W        W35912   4.314  10.633  10.192 -0.1440  0.1561 -0.1380
15633W        W35913   1.292   7.878  14.156  0.0246 -0.1759 -0.0605
15634W        W35914   2.407  13.205   0.343  0.0003  0.0126  0.0877
15635W        W35915  14.317   8.028   0.527 -0.1927 -0.0397  0.0183
15636W        W35916   7.583   0.133  12.040 -0.0932  0.0142 -0.1471
15637W        W35917  19.160  11.454  11.487  0.3044 -0.2712  0.0651
15638W        W35918  17.638  17.869  11.731  0.1652  0.2099 -0.0631
15639W        W35919  14.061  14.972   3.636 -0.0042  0.0776  0.0098
15640W        W35920   1.719  13.139  10.252 -0.3150 -0.0912  0.3562
15641W        W35921   8.987  11.696   0.822 -0.1191  0.0553  0.1100
15642W        W35922   7.041   7.424  14.456  0.2337 -0.0794 -0.1642
15643W        W35923  11.959  10.164   4.128 -0.1151  0.2139  0.1705
15644W        W35924   8.904  10.600  13.527 -0.0517 -0.0388 -0.1220
15645W        W35925   7.939   0.217   2.561 -0.1169  0.1542 -0.1541
15646W        W35926   7.895  12.628   0.885 -0.0406 -0.2784 -0.2656
15647W        W35927  12.465  12.472  13.690 -0.0348 -0.0167 -0.1662
15648W        W35928  15.438  16.273   4.054  0.1786  0.1527  0.2324
15649W        W35929   0.866  15.194   1.646  0.0148 -0.2229  0.0452
15650W        W35930   7.090   2.035   2.116 -0.0748  0.0776  0.3393
15651W        W35931  13.816  18.337  13.715  0.2447 -0.1960 -0.1862
15652W        W35932  10.256   1.207  13.795  0.2122 -0.2707 -0.1175
15653W        W35933   7.425  14.844  14.042  0.1576 -0.0125  0.1793
15654W        W35934  18.339  12.851  10.895  0.2723  0.0696 -0.5278
15655W        W35935   8.432  18.693  14.267 -0.3461 -0.0319 -0.1031
15656W        W35936  11.096  10.674  11.908 -0.1480  0.0153  0.2017
15657W        W35937  12.420  16.825  10.991 -0.3266  0.0630  0.2273
15658W        W35938   8.552   9.524   2.753 -0.1001 -0.0699  0.1066
15659W        W35939  16.494   7.325   2.846 -0.1013  0.1081 -0.0103
15660W        W35940  10.002   0.165  13.498 -0.2297  0.1719 -0.0272
15661W        W35941   2.787   9.088   3.733 -0.1449  0.1020 -0.1300
15662W        W35942   3.348   7.742   2.792  0.0456  0.1929 -0.0685
15663W        W35943  19.245   4.578   3.162 -0.0814  0.3589 -0.4198
15664W        W35944  10.795   1.322   3.641 -0.1307 -0.0891  0.1772
15665W        W35945  17.217   4.771   3.409  0.2969  0.1420 -0.0958
15666W        W35946  12.769   0.893   0.680 -0.0867 -0.0557 -0.2062
15667W        W35947  16.568  10.307   3.351 -0.5189 -0.1227  0.0565
15668W        W35948   1.480  17.563   3.721  0.1163 -0.1598 -0.3141
15669W        W35949   9.448   0.550   2.833  0.2985  0.1333  0.1640
15670W        W35950  16.154  13.661  12.798 -0.2721 -0.0203 -0.0516
15671W        W35951   3.785   2.072  11.219  0.1605  0.1236 -0.0869
15672W        W35952   5.869  18.501   3.253 -0.1806 -0.0159  0.0137
15673W        W35953  17.415   1.624  10.787  0.0523  0.1577 -0.1250
15674W        W35954  11.570   3.040  12.370  0.0964 -0.0821  0.2602
15675W        W35955   5.191  11.527  11.118  0.3042 -0.0598  0.0426
15676W        W35956   4.198  18.601   0.950 -0.1871  0.1938 -0.1318
15677W        W35957   7.391  16.436  11.239 -0.0225 -0.1298  0.0555
15678W        W35958   6.688   7.727   0.549 -0.1274  0.0109 -0.0558
15679W        W35959   3.978  18.828  13.137  0.1354  0.3479  0.1987
15680W        W35960  10.483  16.317  10.424 -0.2673  0.2093  0.1966
15681W        W35961   9.013  18.141  11.060 -0.2308  0.1722 -0.2503
15682W        W35962   2.658   2.997   3.004  0.0253 -0.0116 -0.0887
15683W        W35963  18.191  11.372  10.694  0.0260  0.2805  0.1006
15684W        W35964  12.412  10.362   1.020 -0.0651  0.1698  0.3517
15685W        W35965  18.879   6.038   2.911  0.1534 -0.1057  0.0363
15686W        W35966   7.940   6.230  13.044  0.0285 -0.1488 -0.2754
15687W        W35967   8.805  17.232  13.100 -0.1502 -0.1181 -0.1166
15688W        W35968   5.050  13.497   2.424  0.1580  0.0262  0.0528
15689W        W35969   3.197   7.533  12.272  0.2711  0.0809  0.0545
15690W        W35970  11.777   3.114   0.217  0.1571 -0.0013  0.1081
15691W        W35971  15.261  16.364  11.272 -0.3174  0.0057 -0.3828
15692W        W35972   7.858   6.407   3.329 -0.3527  0.0961 -0.0737
15693W        W35973  15.816   5.322   3.997  0.2802  0.1420  0.1235
15694W        W35974   6.908   8.473  11.806 -0.2445  0.2934  0.0242
15695W        W35975   9.779  17.684   1.639 -0.2599 -0.1704  0.0742
15696W        W35976   0.871   1.528   1.465  0.2478 -0.2133  0.1394
15697W        W35977  11.865  18.885   3.179 -0.0732 -0.0108 -0.3519
15698W        W35978  19.406   4.580  11.332  0.5168 -0.0673  0.0836
15699W        W35979  16.534  13.858  13.089 -0.2108 -0.0506  0.1122
15700W        W35980  12.301  11.464  12.556 -0.0523  0.0417  0.1151
15701W        W35981   8.271   3.391   1.025  0.0505 -0.1708 -0.1400
15702W        W35982   0.598  10.377   1.875 -0.1811 -0.0768  0.2835
15703W        W35983  17.698   9.049  10.206  0.0477 -0.0332  0.1816
15704W        W35984   1.121  18.942  11.488  0.0819  0.0002  0.2646
15705W        W35985   4.856  17.502   1.225 -0.1250  0.2021  0.3563
15706W        W35986   4.183   7.953   2.288 -0.2487 -0.0382  0.0321
15707W        W35987   3.634  15.871  14.324  0.1007  0.1748  0.0951
15708W        W35988   1.097   9.967  14.277 -0.2249 -0.1435  0.1028
15709W        W35989   0.596  10.631   3.373  0.4010 -0.0414  0.2751
15710W        W35990   5.304   7.712  14.258  0.0611 -0.2119 -0.2936
15711W        W35991   7.183  11.989  12.443  0.5033  0.0268  0.1577
15712W        W35992  13.675  16.858   1.726  0.0015 -0.1389  0.0349
15713W        W35993   0.536   2.176   2.087  0.2706  0.2220 -0.1068
15714W        W35994  17.937  13.102   3.043  0.0866 -0.4078  0.0121
15715W        W35995  10.633  16.108  13.377 -0.1417  0.0782 -0.0961
15716W        W35996   7.176  12.344  10.130 -0.0928  0.2903 -0.0366
15717W        W35997  17.783  15.317   0.451  0.1546  0.2300  0.1081
15718W        W35998  15.839   1.918   0.910  0.0655  0.1286 -0.1867
15719W        W35999   1.722   9.362  13.285  0.0003 -0.0339 -0.2472
15720W        W36000   4.575   7.828  13.697  0.0306 -0.0526  0.2893
15721W        W36001  18.182   3.526  14.367 -0.2431 -0.1403 -0.1698
15722W        W36002  11.074  14.990  13.124  0.2444 -0.0962 -0.0803
15723W        W36003  17.854  19.253  12.129 -0.0445  0.1412  0.0029
15724W        W36004  16.296   4.993   4.471  0.0168 -0.0883 -0.2414
15725W        W36005   3.437   6.419  11.538 -0.1978  0.2697  0.0505
15726W        W36006   1.758  15.579  13.190  0.0099 -0.1122  0.3749
15727W        W36007  11.551  10.688   2.259 -0.0949 -0.1419  0.0470
15728W        W36008  10.143  18.205  11.762 -0.1382 -0.4257  0.0636
15729W        W36009   5.584  15.929  12.657 -0.1391  0.1253 -0.1950
15730W        W36010  17.766  16.153   1.159  0.0746  0.1834  0.1452
15731W        W36011   0.066  12.717   9.403  0.1238 -0.0790 -0.2110
15732W        W36012  16.513   9.090  13.483 -0.2190 -0.0081  0.0924
15733W        W36013  10.882   6.757   1.885  0.2891  0.0338  0.0183
15734W        W36014  15.926  18.928  12.539  0.0212  0.1047  0.2426
15735W        W36015   9.335   5.504  11.033 -0.1275  0.3033 -0.0091
15736W        W36016  11.834   7.552  13.940 -0.1540  0.0362 -0.2469
15737W        W36017  15.993   5.878  12.047  0.0891  0.0801 -0.1065
15738W        W36018   8.669   7.720   0.860  0.0533 -0.1353  0.2530
15739W        W36019   7.507   7.922   1.211  0.2265 -0.1703  0.2018
15740W        W36020  13.927   7.705   1.396  0.1380 -0.0137 -0.0885
15741W        W36021   9.327  13.294   0.660  0.1494  0.0960  0.2562
15742W        W36022   7.416  12.610  13.574  0.1473 -0.0504  0.0889
15743W        W36023   9.484   9.163  13.756 -0.0151  0.1411  0.2478
15744W        W36024   3.296   6.699   0.027  0.0995  0.2421  0.4315
15745W        W36025   9.070   5.000  14.432  0.0783 -0.4626  0.3740
15746W        W36026   7.577  13.302  10.936  0.4046  0.1644  0.0480
15747W        W36027  15.480  13.309   2.141 -0.0384 -0.0042 -0.0642
15748W        W36028  16.536  16.125  13.368 -0.0299 -0.0425 -0.2804
15749W        W36029  17.122  12.314   1.836 -0.0160  0.0765  0.2164
15750W        W36030  11.167   0.873   0.040  0.2040 -0.1622  0.0938
15751W        W36031   4.299  16.339   1.282 -0.1314  0.0812  0.1893
15752W        W36032   7.014   4.430  12.245  0.0961 -0.2369 -0.0067
15753W        W36033  18.632  13.820  11.123 -0.1155 -0.1843 -0.0127
15754W        W36034  11.101  14.156   3.226  0.0422  0.0241  0.0023
15755W        W36035  10.090   7.798  12.603  0.0105 -0.0607  0.0546
15756W        W36036  14.973  17.223   5.233 -0.3238 -0.1270 -0.3062
15757W        W36037   8.956   4.239  13.151 -0.5825  0.2468  0.1443
15758W        W36038   0.147  10.862   3.198 -0.3521  0.1478 -0.2037
15759W        W36039   5.377  16.951  10.904 -0.0647 -0.0433  0.2657
15760W        W36040  11.630  15.878  12.263  0.0215 -0.0926 -0.0141
15761W        W36041  13.925   5.122   0.688  0.0433 -0.0212  0.0264
15762W        W36042   6.159   0.174   1.141  0.1063 -0.0718  0.0169
15763W        W36043  15.725  16.197  11.011  0.3457 -0.0451 -0.0318
15764W        W36044   9.326   4.612   4.402  0.1914  0.0361 -0.1547
15765W        W36045   8.071   0.776  11.233  0.0290 -0.2688 -0.1488
15766W        W36046   9.255   3.768  12.086  0.0856  0.1679 -0.0622
15767W        W36047   6.216   3.111   2.382  0.1590  0.2314  0.0232
15768W        W36048  15.900  16.979   2.747  0.4517  0.1063  0.0598
15769W        W36049  14.213  17.657  12.809  0.1494 -0.0092  0.0699
15770W        W36050   8.060  15.617  13.361  0.2483  0.1568 -0.1938
15771W        W36051  15.979   0.138  11.774 -0.0139  0.2394  0.4111
15772W        W36052   8.377   2.496   1.449  0.1340  0.0549  0.0246
15773W        W36053  11.210   4.892  13.637 -0.1518 -0.1655 -0.0281
15774W        W36054  17.903   9.594   3.549 -0.2109  0.3707 -0.3016
15775W        W36055  14.076   8.547  14.316  0.2548  0.1561  0.2972
15776W        W36056   5.294   0.825   4.256  0.1074 -0.1920 -0.3363
15777W        W36057   6.203   9.545   1.527 -0.1355  0.3452 -0.0558
15778W        W36058  13.043   5.065   4.785  0.0285  0.0639  0.0070
15779W        W36059   6.868   4.181   0.215  0.1688  0.0273  0.1590
15780W        W36060   8.002   0.383   3.482 -0.1245 -0.0841 -0.1590
15781W        W36061  17.458   7.507  13.718 -0.0744  0.0794 -0.4364
15782W        W36062  16.371  18.287  12.135  0.1233 -0.2205  0.2540
15783W        W36063  18.820   4.369   2.880 -0.1040  0.1498  0.1381
15784W        W36064  11.883   4.639  14.104 -0.1170 -0.0951  0.0228
15785W        W36065   5.404   7.998   9.206  0.1821 -0.0746  0.1168
15786W        W36066   1.282  14.871   1.311 -0.0201  0.0991 -0.0175
15787W        W36067   2.242   3.724  13.546 -0.0825 -0.0409  0.1263
15788W        W36068  17.861   8.146   2.252 -0.1207  0.1381 -0.2636
15789W        W36069  18.918  17.446   1.918 -0.0052 -0.1569  0.0161
15790W        W36070   2.819   3.535   4.153 -0.2322 -0.1737  0.0798
15791W        W36071   2.721   0.176   2.110 -0.0636 -0.2014 -0.0164
15792W        W36072  12.518   9.005   0.229  0.0668 -0.1392  0.0325
15793W        W36073   5.967   0.169  12.783  0.3786 -0.0722  0.1491
15794W        W36074  18.214   4.171  10.883  0.1087  0.0652  0.1739
15795W        W36075   7.915   7.575  14.104 -0.0631 -0.3708  0.0412
15796W        W36076   1.737   1.178   3.921 -0.0938 -0.0545 -0.0564
15797W        W36077  17.585  15.793   2.030 -0.2466 -0.0645 -0.2268
15798W        W36078  10.490   9.708   0.912 -0.0297  0.2759 -0.1906
15799W        W36079  17.856   9.127  12.999 -0.0674  0.2330 -0.1346
15800W        W36080  15.815   0.850  13.890  0.1007  0.1061  0.0869
15801W        W36081   0.865  19.020   3.197  0.2598 -0.0868  0.3930
15802W        W36082   5.933   9.112   0.280 -0.2358  0.0673  0.0539
15803W        W36083  17.339   2.167   4.000  0.1415  0.0955  0.0740
15804W        W36084   0.369   2.028  11.095  0.2089 -0.1661 -0.0378
15805W        W36085   5.857  11.794   0.370 -0.1618  0.1753  0.0269
15806W        W36086   3.933  11.812   0.870 -0.0473 -0.3445  0.3327
15807W        W36087   7.674  14.775  10.531  0.3876  0.4163  0.0595
15808W        W36088   9.260  11.323   1.551 -0.0560  0.1099  0.3175
15809W        W36089   0.075  17.893  11.573  0.0385 -0.0451  0.1603
15810W        W36090   1.136   7.164   1.398 -0.0950  0.1787 -0.3808
15811W        W36091   5.292   8.576   1.674  0.2106 -0.1964 -0.1042
15812W        W36092   6.070  11.296   9.311  0.0912  0.0293 -0.1711
15813W        W36093  19.374   0.648  14.438  0.1248  0.2856 -0.2216
15814W        W36094   3.261  17.908  10.002  0.0629 -0.0088 -0.0968
15815W        W36095  13.890  13.777  10.700 -0.0108  0.0363  0.2872
15816W        W36096  19.053   3.206  11.388  0.1593 -0.1541  0.0070
15817W        W36097  15.475  10.294   0.947  0.1769 -0.2258 -0.0167
15818W        W36098  19.189  19.006   1.872  0.0979  0.2793 -0.0099
15819W        W36099   7.508  13.270   1.147 -0.4010  0.0447  0.0029
15820W        W36100  16.236  13.574   1.391 -0.1103  0.1365 -0.1370
15821W        W36101   7.756  17.851   3.280  0.3613 -0.1006 -0.3408
15822W        W36102   0.352   5.436   2.926  0.1598 -0.2269 -0.0641
15823W        W36103   7.072   5.045  11.033  0.0598  0.2325 -0.1290
15824W        W36104  10.615   6.888  11.986 -0.3259 -0.2039 -0.2177
15825W        W36105   2.140  11.687   0.767 -0.1719  0.0924  0.3238
15826W        W36106   0.398  15.008   2.562  0.0445 -0.0838  0.0089
15827W        W36107  11.942  12.223  14.300  0.0554  0.2000  0.0826
15828W        W36108   1.131   2.807  13.827 -0.0525 -0.0716  0.1334
15829W        W36109   3.853   4.513   1.229 -0.3268 -0.0719 -0.0863
15830W        W36110   3.824  13.399  14.260 -0.1567 -0.0542  0.0617
15831W        W36111   5.372  18.322   1.195  0.2625 -0.0802 -0.4294
15832W        W36112   9.181   5.833  14.258 -0.4528 -0.0469 -0.1238
15833W        W36113  12.231   6.948  13.751  0.0106  0.0689 -0.0729
15834W        W36114   5.159  18.958   2.674  0.2462 -0.3201 -0.1579
15835W        W36115   7.907   1.525  14.127  0.0569  0.1334 -0.1276
15836W        W36116   7.381  10.232  14.298  0.2724 -0.0166  0.1274
15837W        W36117   3.989   4.956   1.405 -0.2628  0.2074  0.1413
15838W        W36118   5.713  10.926  12.027  0.0236  0.0710 -0.4472
15839W        W36119   7.571  12.183   3.256 -0.4925  0.0447 -0.2074
15840W        W36120   6.127  10.445   3.264  0.1666  0.3336  0.0506
15841W        W36121   6.853   1.809  13.092 -0.1173 -0.3370  0.1813
15842W        W36122   1.321  12.417  12.677 -0.0847 -0.3561  0.0654
15843W        W36123   7.075   3.164  12.921  0.5251  0.0951  0.1224
15844W        W36124   3.857  11.915   1.872  0.2696 -0.0505 -0.2261
15845W        W36125   2.931  16.978  11.338  0.2341 -0.0420 -0.3654
15846W        W36126  14.681   3.023  13.286  0.0967 -0.2384  0.3035
15847W        W36127  13.981  10.919   0.689  0.1098 -0.0927  0.0269
15848W        W36128  16.372  17.536   0.043  0.3075 -0.1542  0.3895
15849W        W36129  15.269  19.170   2.603  0.0552 -0.0535  0.0873
15850W        W36130  11.417   0.474  11.398 -0.2211 -0.0720  0.2387
15851W        W36131   1.767  18.485  13.649 -0.1289 -0.0598  0.0406
15852W        W36132   9.393   4.680   0.491  0.1396  0.0215 -0.0704
15853W        W36133   0.319  16.378  11.261  0.1113  0.1835  0.5013
15854W        W36134  17.110   2.637   0.613  0.0637 -0.2235 -0.2233
15855W        W36135  10.874   5.825   4.867 -0.0391 -0.0418 -0.3423
15856W        W36136   5.748   6.686   2.142  0.0936  0.1591  0.0313
15857W        W36137   7.007  10.486  12.669  0.0241 -0.0688  0.3222
15858W        W36138   3.511  18.880  11.359  0.2559 -0.2491 -0.0644
15859W        W36139  12.310  11.959  13.450 -0.2088 -0.1955 -0.1164
15860W        W36140  10.764  14.949  12.737  0.0861  0.0783  0.0579
15861W        W36141   7.306  18.494  11.224 -0.2956  0.0834  0.0728
15862W        W36142  12.476   8.189  13.145 -0.0160 -0.2321  0.2985
15863W        W36143   6.879  14.188  12.908  0.0074 -0.0101 -0.2483
15864W        W36144   6.551   2.790   4.341 -0.2060 -0.2172 -0.0891
15865W        W36145  14.569   9.489  10.640 -0.2853  0.0622 -0.0881
15866W        W36146  16.086  15.220   1.727  0.2083 -0.0540  0.1906
15867W        W36147   5.447   4.280   1.097 -0.4490 -0.3270 -0.1238
15868W        W36148   5.246   4.578  13.322 -0.4662 -0.2346 -0.1574
15869W        W36149  13.907   2.457   4.175  0.2161 -0.0864  0.0485
15870W        W36150  18.246  10.783   2.943 -0.1791  0.1310 -0.0816
15871W        W36151   3.242  17.662   4.296 -0.0356  0.0503  0.2044
15872W        W36152  12.138   1.542  13.201  0.0412  0.1263 -0.1435
15873W        W36153  10.539   2.138   2.961 -0.1988  0.3545  0.0497
15874W        W36154  18.162   3.239   1.642  0.2206 -0.2965 -0.0601
15875W        W36155   8.444   5.085   3.404  0.1353 -0.1763  0.2698
15876W        W36156  12.950   1.240   2.551 -0.1945 -0.1154 -0.2369
15877W        W36157   5.840   0.943   3.162 -0.1890  0.2092 -0.3227
15878W        W36158  15.446  14.375  12.307  0.0035  0.4284 -0.2897
15879W        W36159  11.242   5.892   0.090  0.0368  0.1026 -0.0671
15880W        W36160  10.605   5.635  10.508 -0.0756  0.0523 -0.1274
15881W        W36161   5.541  14.675  13.316 -0.1488  0.1261  0.0240
15882W        W36162   0.479   4.224  10.485  0.1415  0.1456  0.0138
15883W        W36163   1.986  14.993  10.888 -0.2840  0.0681  0.0237
15884W        W36164  13.596   4.339   3.154  0.0313  0.0582 -0.0414
15885W        W36165   1.938  16.078  13.926 -0.1070 -0.0853 -0.0719
15886W        W36166  13.212   5.740   2.950 -0.2847  0.2048  0.0590
15887W        W36167  15.314   0.733  13.677 -0.3512 -0.1963 -0.2067
15888W        W36168   4.308   4.442   4.078 -0.2892 -0.3005  0.1607
15889W        W36169  18.062  18.387  12.206 -0.1623  0.5334  0.0712
15890W        W36170  12.953   9.696  14.058  0.0121  0.1138  0.0202
15891W        W36171  19.356   1.582  14.222 -0.1733  0.0643 -0.2158
15892W        W36172   9.039   9.210   9.998 -0.4244  0.0719 -0.3762
15893W        W36173  12.722   4.689   2.444  0.4693 -0.1469 -0.3249
15894W        W36174   7.218   2.890  13.444 -0.1745  0.0662 -0.0483
15895W        W36175   7.052   6.012   3.662  0.2308  0.2290 -0.2755
15896W        W36176  16.791   2.190   3.588 -0.0855  0.0272 -0.1226
15897W        W36177   9.137   0.558  11.742 -0.2177  0.0195 -0.0657
15898W        W36178  16.234  19.329   3.175  0.0105 -0.2689  0.2287
15899W        W36179   7.252   9.435  12.534  0.0795  0.1874  0.3042
15900W        W36180   1.837  17.348   3.983 -0.3373 -0.0098 -0.3663
15901W        W36181  14.145  19.157  12.486  0.0846 -0.0852  0.0775
15902W        W36182   4.235  14.384  11.921  0.1201 -0.0832 -0.4516
15903W        W36183   4.197  17.294   2.554 -0.2340 -0.1067  0.4438
15904W        W36184  12.264   4.670   0.033 -0.4895  0.0394  0.1355
15905W        W36185  17.911   4.545  13.518 -0.2713 -0.0736 -0.0807
15906W        W36186  12.846  17.528   4.294 -0.0465  0.4647 -0.3503
15907W        W36187  16.942   9.810  11.623  0.1008 -0.1114 -0.2090
15908W        W36188  17.804   5.002  13.311  0.2387  0.1452  0.1284
15909W        W36189   4.355  13.852  12.064  0.2456 -0.1249 -0.1159
15910W        W36190  16.232   8.015   1.716  0.1568 -0.2150 -0.4518
15911W        W36191  10.705   8.909  12.510 -0.0210 -0.5039  0.1150
15912W        W36192  19.190  10.752  12.429  0.0535  0.1618  0.0397
15913W        W36193  14.938  13.698   9.351  0.3597 -0.0230  0.1455
15914W        W36194  15.149   6.405  12.646  0.0262 -0.1047  0.0188
15915W        W36195  15.488  13.089  13.652 -0.3114  0.1469 -0.3228
15916W        W36196   2.253   4.174  12.359 -0.2081 -0.2885  0.1168
15917W        W36197   6.696  19.261  11.872  0.2308  0.0166  0.0463
15918W        W36198   5.924  18.178  13.330 -0.0078  0.3026  0.1605
15919W        W36199  10.068   8.110   9.874  0.3105 -0.1032 -0.2605
15920W        W36200  11.227  10.768  10.886  0.1567  0.0787  0.0558
15921W        W36201   3.319   7.286  11.308  0.1414 -0.2876  0.0425
15922W        W36202   4.101  17.847   3.859  0.0245 -0.2210 -0.1271
15923W        W36203  17.807   0.613   4.394  0.0946  0.3343  0.0607
15924W        W36204   2.597   9.411  13.513 -0.3615 -0.2741 -0.3375
15925W        W36205   6.018   8.284  11.466  0.1507 -0.1886 -0.0339
15926W        W36206   7.582   5.265  12.112 -0.0712 -0.1262  0.5026
15927W        W36207   0.794  16.326  13.101 -0.0758  0.1482 -0.0165
15928W        W36208  11.718  13.901  13.544  0.1647  0.1371  0.3495
15929W        W36209  16.875  15.503  13.180 -0.0316 -0.0725  0.2434
15930W        W36210  10.878   0.054  13.935  0.2142 -0.0096  0.0918
15931W        W36211  14.992  16.058  12.679 -0.0099 -0.0037 -0.1445
15932W        W36212   5.822   8.919  11.972 -0.3434 -0.2670  0.0700
15933W        W36213   7.491  17.916   0.032 -0.1832 -0.3977  0.0751
15934W        W36214   6.403   1.239  13.236 -0.2306  0.2492 -0.3631
15935W        W36215   0.551   5.501   1.833 -0.0033 -0.0721  0.0971
15936W        W36216  13.813   0.861   4.634  0.0026 -0.3407  0.0346
15937W        W36217   4.762   7.392  12.650 -0.3372  0.0284  0.1337
15938W        W36218   9.313   5.969  13.379  0.3033 -0.2203 -0.1590
15939W        W36219  19.006   9.824  12.507 -0.0118  0.1243 -0.2210
15940W        W36220   8.801   0.633   0.965  0.1376 -0.1004  0.0791
15941W        W36221   6.537  14.783   3.449 -0.2209 -0.1606  0.1910
15942W        W36222   4.705   8.456   3.463 -0.1074 -0.0992  0.2603
15943W        W36223   3.376  18.379   4.306 -0.1845 -0.3360 -0.2322
15944W        W36224   2.343   3.027   1.727  0.0724  0.1210  0.1552
15945W        W36225   9.350   4.470   1.958  0.0319  0.0445 -0.0603
15946W        W36226   6.414   2.941   9.991  0.2645  0.2737 -0.0591
15947W        W36227   0.194   3.198   2.021 -0.0671  0.0109  0.0783
15948W        W36228   7.916   0.001  12.417  0.0763  0.0002 -0.2278
15949W        W36229   0.291   6.792   3.244  0.1502  0.0891 -0.0970
15950W        W36230   5.610   2.315  11.288  0.2888 -0.0945 -0.0788
15951W        W36231   5.891  15.875   2.993  0.0664 -0.0169 -0.0539
15952W        W36232   6.301   3.727  14.285 -0.0765 -0.4531  0.0564
15953W        W36233  12.708   0.041   5.473  0.1467  0.0654 -0.1885
15954W        W36234  18.258  14.362  14.099 -0.0698 -0.1271 -0.0882
15955W        W36235   9.014   1.748   1.663  0.1826 -0.2192  0.3181
15956W        W36236  18.868  13.400  11.882  0.2781  0.0269 -0.0425
15957W        W36237   1.353   7.778  12.046  0.0080  0.0801  0.1235
15958W        W36238   3.640   1.685   3.654 -0.3792  0.0333  0.1463
15959W        W36239   4.872   3.175  13.304 -0.1809  0.1897  0.2063
15960W        W36240   4.606   4.656  11.985 -0.0027 -0.1427 -0.2455
15961W        W36241  10.316   0.658   1.962 -0.0907  0.4029 -0.5467
15962W        W36242  15.814  16.079   1.877  0.3309 -0.0491 -0.0199
15963W        W36243  12.860   5.168   2.218 -0.0217  0.0289 -0.0198
15964W        W36244   6.920   2.667   0.275  0.0007 -0.1539 -0.2315
15965W        W36245  15.451  15.618   3.502 -0.0441 -0.1066  0.2226
15966W        W36246  17.079  13.725   0.246  0.4989  0.2539 -0.1827
15967W        W36247  11.639   5.996   5.265 -0.2865 -0.1547 -0.0014
15968W        W36248   3.408   3.541  12.935  0.2646  0.1695  0.2881
15969W        W36249   2.120  16.799   9.626  0.1917  0.2163  0.1203
15970W        W36250  15.916  10.881  12.787 -0.1803  0.2907  0.3406
15971W        W36251  13.391  13.357  12.426 -0.1753 -0.1375 -0.2664
15972W        W36252  10.372   6.916   1.662 -0.1261  0.2456 -0.0632
15973W        W36253   4.005   8.734  12.568  0.0613 -0.0621  0.1111
15974W        W36254   3.234  11.933  11.124  0.1237  0.1932  0.0190
15975W        W36255  13.092  18.029  14.491  0.0528  0.0377  0.2190
15976W        W36256   3.597  15.136  11.698  0.0627  0.0623 -0.1999
15977W        W36257   1.768  17.541  11.720 -0.0810 -0.1004 -0.3111
15978W        W36258   4.782   1.219  10.926  0.2434 -0.0647 -0.1136
15979W        W36259   6.899  14.966  11.170  0.0395  0.0505  0.1387
15980W        W36260   9.984  12.178  11.476 -0.0822  0.2574  0.1375
15981W        W36261  13.148   9.231  12.924  0.0741 -0.0550  0.0379
15982W        W36262   0.651   9.372   9.042  0.0077  0.0304  0.1949
15983W        W36263   0.452   2.327   2.995 -0.0599  0.1070  0.1328
15984W        W36264   5.156  11.973  11.339  0.1451 -0.2302 -0.1635
15985W        W36265  11.481   1.725  13.782  0.0030 -0.0106 -0.0279
15986W        W36266   1.959   2.631   1.809  0.2053 -0.1800 -0.0966
15987W        W36267  11.383   7.612   3.045 -0.1087  0.0220  0.0401
15988W        W36268  14.044  16.666   3.624  0.0275 -0.2458  0.1860
15989W        W36269   3.856  17.699   2.594 -0.3840  0.0987 -0.1261
15990W        W36270   2.971   5.647  12.686 -0.2692 -0.0024  0.2699
15991W        W36271  13.884   5.192  10.980  0.0968  0.1791 -0.1722
15992W        W36272  16.561   1.261   3.509 -0.0440 -0.1813  0.0595
15993W        W36273   3.837  12.800   1.641 -0.0629 -0.0857 -0.1005
15994W        W36274   9.217  13.454   1.750 -0.1954  0.2256  0.0682
15995W        W36275  15.819  19.267  11.304  0.0869  0.0777 -0.1926
15996W        W36276  14.622  14.048   0.003  0.0039 -0.1478  0.1403
15997W        W36277  11.565  14.386  12.543  0.0977 -0.2748 -0.0710
15998W        W36278   4.700   4.699   3.126  0.1398  0.2345  0.0651
15999W        W36279  11.903   3.515   9.844  0.1614 -0.1028  0.0684
16000W        W36280  10.933  12.651  11.258  0.1553 -0.1296 -0.0244
16001W        W36281  17.010  10.785   0.553  0.1614  0.2247 -0.0597
16002W        W36282  10.456  17.004   2.311  0.1503  0.0431 -0.0994
16003W        W36283   7.778   6.861   1.767 -0.1039 -0.0628 -0.1007
16004W        W36284   1.642  17.280   0.021  0.2869  0.0042  0.0546
16005W        W36285   4.820   0.385   0.108 -0.1699  0.0533  0.1267
16006W        W36286  17.644  17.359   0.747 -0.1507  0.1442  0.2242
16007W        W36287   9.596   0.137  11.491  0.0622 -0.0018 -0.1955
16008W        W36288  15.198  18.285  11.473  0.0551 -0.1387 -0.1411
16009W        W36289  19.079   2.865   2.918 -0.0111  0.0183  0.1785
16010W        W36290  16.728   4.708  10.638 -0.0300  0.2663  0.1361
16011W        W36291   3.714  12.340  13.808  0.0113  0.0405 -0.1029
16012W        W36292   6.543   4.958   1.140 -0.2971  0.2687 -0.1910
16013W        W36293   9.023  13.443  11.282 -0.3172 -0.0824  0.3163
16014W        W36294  15.003  16.108   2.177  0.3271 -0.0425 -0.1546
16015W        W36295   0.264   5.857  12.933 -0.2680 -0.0763  0.0087
16016W        W36296   5.181   6.476   1.332  0.0498  0.3731  0.1131
16017W        W36297   0.354  10.527   2.821 -0.0136  0.2653  0.1254
16018W        W36298   5.163  10.423  11.799 -0.0566 -0.1394  0.1452
16019W        W36299  10.973  18.861  12.126  0.5342 -0.1842  0.0726
16020W        W36300  13.111  10.556   0.501 -0.1097 -0.1584 -0.2272
16021W        W36301  12.283  12.727  12.138 -0.0764 -0.0372 -0.0455
16022W        W36302  18.642  16.523   2.298  0.3161 -0.2896  0.1598
16023W        W36303   0.709   3.505  12.195 -0.1039 -0.0022  0.3300
16024W        W36304  11.995   2.607  13.691  0.1416 -0.1230 -0.0066
16025W        W36305   5.271   6.197   0.928 -0.1143 -0.1659 -0.0707
16026W        W36306  11.891  11.761   2.021  0.4555 -0.0566 -0.0259
16027W        W36307   4.438  11.447   4.066  0.2786 -0.1901 -0.1327
16028W        W36308   6.753   0.141   4.176  0.2232  0.1747 -0.2060
16029W        W36309   8.183  17.231  14.194 -0.1061  0.1221 -0.1626
16030W        W36310   8.996   1.615  14.210  0.0245  0.0872  0.2059
16031W        W36311  14.242   5.702  12.091  0.3500  0.1514  0.2648
16032W        W36312   9.989  11.445  13.355  0.0120 -0.3056  0.3146
16033W        W36313   7.154  18.384  12.694  0.0396 -0.3983  0.2531
16034W        W36314  13.402   7.606   3.466  0.3938 -0.0406 -0.0667
16035W        W36315   6.839   2.463   2.443 -0.0752 -0.0886 -0.1221
16036W        W36316   9.590  11.218  11.618 -0.0718 -0.1131  0.0748
16037W        W36317  13.185   2.341  14.062  0.2486  0.1184  0.4205
16038W        W36318   0.059   7.754   3.486  0.3227  0.3300  0.2760
16039W        W36319  13.482   9.889   2.127  0.0135  0.0139  0.3429
16040W        W36320   2.741   0.570   3.321 -0.4417 -0.0368 -0.4250
16041W        W36321   8.513  14.432  12.118  0.0312 -0.1434  0.1824
16042W        W36322   4.753   7.936  12.374 -0.0490 -0.1598 -0.1764
16043W        W36323  12.843   3.000   1.951 -0.1938  0.0722  0.0412
16044W        W36324   9.914  11.705  10.690  0.0652 -0.1522 -0.0576
16045W        W36325   7.981  10.863   0.490  0.1562  0.0226 -0.0042
16046W        W36326   8.259  12.714   3.496  0.0005  0.2552 -0.0756
16047W        W36327   1.727  18.042  10.941 -0.0064 -0.0404  0.3064
16048W        W36328  15.857  13.232  11.929 -0.2222  0.1261 -0.0095
16049W        W36329  11.320   1.405  14.172  0.0260 -0.0475  0.1713
16050W        W36330   4.095  10.046  10.517  0.1055  0.1603  0.1148
16051W        W36331   7.165   0.416   2.422  0.2140 -0.1522 -0.0854
16052W        W36332  13.064   5.241   0.328 -0.3329 -0.2652  0.1637
16053W        W36333  16.401  10.500   1.093 -0.2455  0.1062  0.2765
16054W        W36334   9.938   9.048  11.449 -0.0296 -0.0113 -0.1452
16055W        W36335  14.878  11.855  11.051  0.0084 -0.1993  0.0465
16056W        W36336   2.671  17.060  10.868 -0.1195  0.1604 -0.0191
16057W        W36337  16.895  15.537   4.505  0.1144  0.0213  0.3265
16058W        W36338  10.045  15.618   0.743  0.0288 -0.0211 -0.1313
16059W        W36339  18.245  18.900  12.089  0.2370 -0.1875  0.0206
16060W        W36340   7.476  17.846   4.533 -0.3111  0.2237 -0.1147
16061W        W36341  18.286  13.859  13.490  0.0810 -0.2007 -0.3003
16062W        W36342   5.309  18.201  14.371 -0.1611 -0.2327  0.0127
16063W        W36343   5.733   4.517   3.912 -0.2624  0.2807  0.1663
16064W        W36344   8.093   4.133  12.975  0.1485  0.1187 -0.2045
16065W        W36345   8.915  17.370   4.120  0.2794 -0.2633  0.3294
16066W        W36346  15.101   9.409   1.106  0.1286 -0.0098  0.2719
16067W        W36347  10.327  18.185  11.330  0.0780 -0.1800 -0.2333
16068W        W36348  13.422   3.850   3.012 -0.0500  0.1367  0.0911
16069W        W36349  16.265  12.305   9.442  0.0264 -0.0124  0.2891
16070W        W36350   8.015  14.603  11.083  0.5320  0.2205 -0.0246
16071W        W36351  18.815  15.810  12.902 -0.0353  0.0293 -0.0159
16072W        W36352  19.087  12.686   3.546  0.0032 -0.0382  0.1382
16073W        W36353   8.939   2.190  10.822  0.0618  0.5726 -0.0378
16074W        W36354  15.935   6.854   1.302 -0.0130 -0.2953  0.0326
16075W        W36355   6.758   0.760   1.594  0.0367 -0.0098  0.2223
16076W        W36356   4.197  13.335  11.900  0.0953  0.1147 -0.0285
16077W        W36357  16.240   4.030  13.343  0.0261 -0.0937  0.0606
16078W        W36358   0.234   1.810  12.042 -0.0088  0.2102  0.2511
16079W        W36359   1.792   9.628  13.741 -0.2877 -0.2329  0.0718
16080W        W36360   2.812   0.576   1.026 -0.0919  0.3676 -0.0008
16081W        W36361   8.314   4.256  11.540  0.2132  0.1498  0.0001
16082W        W36362   3.976   5.931  11.390 -0.4632 -0.2200  0.2770
16083W        W36363  11.947  12.643   0.117  0.2826  0.0619  0.0217
16084W        W36364  16.876  19.390  14.301 -0.2006  0.0414 -0.0390
16085W        W36365   0.433  14.265   0.965 -0.0094  0.1110 -0.0976
16086W        W36366  13.893  10.515   3.419 -0.1308 -0.2906  0.1327
16087W        W36367   3.270  12.904   2.505  0.0943 -0.1982  0.1385
16088W        W36368   2.607   6.823   1.257  0.1697  0.1080  0.0737
16089W        W36369   8.108   6.676   1.315 -0.2697 -0.0433 -0.0627
16090W        W36370   7.172   7.113   0.988 -0.0566 -0.0654 -0.0349
16091W        W36371  16.632   6.091  12.656 -0.1002 -0.1067 -0.3882
16092W        W36372  11.341   5.496   0.444 -0.0087  0.3004 -0.1538
16093W        W36373   5.091   2.559   4.663  0.2405  0.0614  0.2296
16094W        W36374   9.842  15.049   0.679 -0.1354  0.2759  0.0782
16095W        W36375  15.974   7.576   0.599 -0.3803  0.3514 -0.2341
16096W        W36376   1.320   5.159  11.632  0.0088  0.2405 -0.0278
16097W        W36377   8.098   9.613   2.722  0.1424  0.1075  0.2773
16098W        W36378   0.992   6.068  11.706 -0.0167 -0.0249  0.1155
16099W        W36379  14.354   1.581  12.053 -0.2235  0.1777  0.0680
16100W        W36380   6.667  15.780  12.888  0.1051  0.0274 -0.3924
16101W        W36381   6.972  11.953  11.474  0.0921 -0.0192  0.2580
16102W        W36382  18.341  17.225  12.809  0.1176  0.0596 -0.0780
16103W        W36383  16.815  13.098   0.679 -0.1520  0.0663 -0.3440
16104W        W36384   0.817   2.923   2.044  0.2136 -0.1063  0.1432
16105W        W36385   3.483   6.967   1.611 -0.1196 -0.3625  0.0890
16106W        W36386  14.803  17.381  13.849 -0.1481 -0.0316 -0.0333
16107W        W36387  10.196   0.658  13.698 -0.5374 -0.1816  0.0269
16108W        W36388  17.127  15.004   3.741 -0.1862 -0.0233 -0.3653
16109W        W36389  13.026  17.984   3.589  0.4728 -0.2231  0.1853
16110W        W36390  14.304   0.303  11.671 -0.3203  0.0173 -0.0664
16111W        W36391   3.369   8.706   2.487 -0.0224  0.1949  0.0901
16112W        W36392   6.218   4.177  11.826 -0.5530  0.1123  0.1704
16113W        W36393  16.054  16.614   1.684  0.0751 -0.1601  0.2256
16114W        W36394   7.306  18.325   4.243 -0.6014 -0.1856  0.1438
16115W        W36395   8.586  14.860   4.926  0.1477  0.0216  0.0876
16116W        W36396   3.215  13.654   0.635 -0.0577 -0.0969 -0.1982
16117W        W36397  13.315   1.058  11.916  0.3261  0.0172  0.1244
16118W        W36398   5.824   2.928   2.721 -0.3041  0.1348  0.1987
16119W        W36399   5.823  11.604  13.061  0.1078  0.0695  0.2992
16120W        W36400  11.030   4.436  12.553 -0.0571  0.1298 -0.0192
16121W        W36401   9.030  17.800   3.173  0.1299  0.0494  0.0106
16122W        W36402  15.003   3.370  12.761 -0.3077  0.0880 -0.0013
16123W        W36403  12.972  12.591  12.022  0.1566  0.2069  0.0354
16124W        W36404   8.427   6.627  13.682  0.1847 -0.2481 -0.0260
16125W        W36405  11.543   4.707   2.186  0.0653  0.5197  0.0672
16126W        W36406   8.071  10.910   9.315  0.1019 -0.3543  0.1857
16127W        W36407   6.669  12.651   0.228  0.1547  0.0106  0.1344
16128W        W36408  10.457   9.312  13.691  0.2435 -0.0153  0.0769
16129W        W36409  19.181   0.048   3.034 -0.1554  0.0319 -0.0109
16130W        W36410   5.580   9.801   3.446  0.2804 -0.1370  0.1621
16131W        W36411   7.551   5.293  10.944  0.0708 -0.2574 -0.0731
16132W        W36412   9.761  13.260  14.443 -0.1781 -0.0267 -0.0034
16133W        W36413  16.395  10.137  12.427  0.1896 -0.1020 -0.1371
16134W        W36414   4.237   0.768  13.206 -0.2436  0.2165 -0.4046
16135W        W36415   1.392  13.376  13.535 -0.3007 -0.0929 -0.0488
16136W        W36416  14.258   4.309   2.486 -0.0020 -0.1666  0.0143
16137W        W36417  15.435   9.725  12.606 -0.2544 -0.0673  0.1864
16138W        W36418   7.045   7.578  12.070  0.4785  0.3446 -0.1622
16139W        W36419  16.359   1.966  13.912  0.0713  0.1580 -0.0835
16140W        W36420   8.069   7.108   0.912 -0.2004 -0.0623 -0.0089
16141W        W36421  14.960  16.421  13.807 -0.0388  0.1142  0.1006
16142W        W36422   8.910   6.772   0.682  0.0962  0.1701 -0.0137
16143W        W36423  16.263   6.850  13.187 -0.2284 -0.0002 -0.0789
16144W        W36424  11.032  11.379  12.877 -0.3385 -0.1311 -0.0890
16145W        W36425  10.297  15.105   0.485 -0.2425  0.3687 -0.1699
16146W        W36426  18.167  13.598   1.862  0.0298 -0.0973  0.0854
16147W        W36427  14.683   7.992  14.207  0.1747 -0.2188 -0.0244
16148W        W36428   9.779  18.441  14.310 -0.2681 -0.1354  0.2197
16149W        W36429  16.758   4.448  14.161  0.0138 -0.0684  0.0724
16150W        W36430   7.418   3.627   0.267  0.2362  0.3871 -0.1123
16151W        W36431   7.154   8.125   4.044 -0.0500  0.0138  0.0666
16152W        W36432  17.697  10.472  11.960 -0.1434 -0.2418  0.0344
16153W        W36433   6.681  10.667  11.712  0.0928  0.2712 -0.2064
16154W        W36434  17.673   2.764  14.382 -0.2662  0.1193  0.2380
16155W        W36435   2.411   1.753   3.863 -0.0782 -0.0822  0.2099
16156W        W36436  18.486  13.015   2.744  0.0117 -0.0305 -0.2664
16157W        W36437  12.529   6.527  14.162 -0.2664 -0.0783  0.1525
16158W        W36438  12.712   1.403   2.100 -0.0812  0.2136 -0.1226
16159W        W36439   2.203  10.456   1.711 -0.0891  0.1021 -0.1578
16160W        W36440   2.046  15.409   3.472 -0.1643  0.0839 -0.2415
16161W        W36441  16.158  15.153  13.103  0.2053  0.0191  0.0496
16162W        W36442  13.044  12.502  13.687  0.0831 -0.0268  0.0619
16163W        W36443  12.234  10.728   0.748 -0.1151 -0.1003  0.0452
16164W        W36444  19.155   1.465   1.482 -0.0539 -0.0156 -0.4122
16165W        W36445  16.154   6.744   1.709 -0.0304  0.2665 -0.2357
16166W        W36446  13.844  12.029  13.186  0.0176 -0.2054 -0.0660
16167W        W36447  11.347   3.960   3.581  0.1422 -0.0407  0.0042
16168W        W36448   3.318   2.893  11.607  0.1369  0.0287 -0.0655
16169W        W36449  12.318  16.507  11.970  0.1827 -0.1101 -0.2595
16170W        W36450  17.826   9.506  14.315 -0.1167  0.0413  0.0197
16171W        W36451  12.678   1.697   1.025  0.0464  0.0301 -0.1657
16172W        W36452  17.198  18.299   2.304 -0.3307 -0.1170  0.0429
16173W        W36453  15.512   0.379   0.296  0.4307 -0.0675 -0.7125
16174W        W36454  11.060   8.317   3.421  0.0169  0.0410 -0.0961
16175W        W36455  14.713   3.211   0.847  0.3403  0.0117 -0.1327
16176W        W36456   0.120  14.157   3.864 -0.2100  0.3599  0.1612
16177W        W36457  18.266  16.114  12.563  0.2057 -0.0872 -0.1108
16178W        W36458   0.982  18.116  12.961 -0.0934 -0.0326 -0.2079
16179W        W36459  11.702   9.666   0.678  0.2113 -0.2478 -0.1472
16180W        W36460  11.918   6.070   0.865 -0.0421 -0.3361  0.1957
16181W        W36461  14.646   8.919  11.922 -0.1096  0.2510 -0.1278
16182W        W36462  18.167   8.176  12.508  0.0516  0.0712 -0.1615
16183W        W36463  11.940   9.082  14.001  0.1509 -0.0410  0.0435
16184W        W36464   5.627  12.525  11.173 -0.0209  0.0841 -0.0941
16185W        W36465  18.010  18.245  13.399 -0.2505 -0.0552 -0.1696
16186W        W36466  10.272   4.534  13.489  0.1106 -0.1030 -0.1972
16187W        W36467  14.846  15.044  12.373 -0.2953 -0.3317  0.1058
16188W        W36468  10.678   1.282   2.717  0.0172  0.0445 -0.2151
16189W        W36469   8.394  17.384   0.495 -0.0324 -0.0724 -0.0510
16190W        W36470   9.765   7.308  13.435  0.0826 -0.1771 -0.1399
16191W        W36471   8.229  15.726   1.806 -0.0948 -0.0295 -0.0188
16192W        W36472   5.367   1.585   3.258  0.0237  0.1485  0.2410
16193W        W36473  12.130   6.769  14.350 -0.0990 -0.1718 -0.2252
16194W        W36474   8.381  12.963   2.121  0.0606 -0.2725 -0.1496
16195W        W36475   6.770   5.402   1.372  0.1837  0.0453  0.0895
16196W        W36476  12.051  13.050  11.044  0.1718 -0.0276  0.3089
16197W        W36477  13.998  14.585   4.067  0.2244  0.0722 -0.0780
16198W        W36478  12.430   4.126  11.916  0.0608  0.0182 -0.4441
16199W        W36479   0.575  14.869  11.640  0.1686  0.1217  0.2992
16200W        W36480  11.857  10.561   3.325  0.4218  0.3381  0.2683
16201W        W36481  16.816   2.472  12.774  0.3111  0.1234 -0.1469
16202W        W36482   2.852   7.071   2.252  0.0173 -0.1463 -0.2404
16203W        W36483  11.431  16.612   1.862 -0.1735  0.1801  0.1408
16204W        W36484   9.361  19.235  11.816 -0.2804 -0.0139 -0.2634
16205W        W36485   4.322  18.561  11.365  0.0604  0.2755  0.1814
16206W        W36486   7.534   0.398   3.805  0.3677 -0.0499  0.3690
16207W        W36487  15.099   6.821  11.028  0.0518  0.1639  0.0590
16208W        W36488   4.019  15.542  11.660 -0.0881  0.2578 -0.1511
16209W        W36489  10.994  12.754   3.595  0.1694 -0.0796 -0.0211
16210W        W36490   7.651   4.714  11.921  0.0043 -0.2768 -0.0468
16211W        W36491  10.875  14.859  10.651  0.4811  0.0176 -0.2883
16212W        W36492  10.417   6.614   0.994  0.2328 -0.1267  0.0424
16213W        W36493   7.543  17.376   0.983 -0.0052 -0.0974  0.2358
16214W        W36494   6.358   4.088  12.837 -0.0622 -0.1943  0.0118
16215W        W36495  13.711   7.262   1.717 -0.3232 -0.0262  0.1029
16216W        W36496   5.055  11.690  10.655 -0.0782 -0.0272  0.2438
16217W        W36497   1.179  14.893  11.974 -0.3041 -0.1722  0.3626
16218W        W36498   4.892  11.797  12.850  0.0341  0.2178 -0.1952
16219W        W36499   0.123   7.218  13.508 -0.0776  0.3597 -0.2416
16220W        W36500  13.895   0.544   3.656 -0.0801  0.2249  0.0280
16221W        W36501  12.902  10.715   3.513  0.1363 -0.0333 -0.0858
16222W        W36502   1.469   3.150  14.226 -0.1181  0.2359 -0.0920
16223W        W36503   5.076   1.371  12.265  0.0452  0.3253 -0.1171
16224W        W36504   3.379   1.185  12.044 -0.1834 -0.0139  0.0424
16225W        W36505   4.658  18.314  10.808 -0.1628 -0.0231  0.1656
16226W        W36506   0.292  14.062  13.272  0.2456 -0.0141  0.2147
16227W        W36507  15.409  10.509   3.096 -0.1450  0.0639  0.1155
16228W        W36508  12.430   0.047   1.957 -0.0281  0.1877 -0.0603
16229W        W36509  17.049   0.010  12.745  0.1808 -0.0868  0.2654
16230W        W36510   6.456   9.397   2.015 -0.2353 -0.0319  0.0030
16231W        W36511  17.302  14.080   3.004 -0.0988  0.0954  0.2871
16232W        W36512   2.080   4.025  10.622  0.2230  0.1317  0.2494
16233W        W36513   7.857   2.167   0.916 -0.2383  0.0080  0.1440
16234W        W36514  16.273  19.254   0.288 -0.0640  0.1119 -0.0712
16235W        W36515   2.105   2.899   1.319  0.1139  0.0211 -0.4156
16236W        W36516   1.355  11.920   1.988 -0.2960 -0.2447  0.1023
16237W        W36517   3.128  17.520   1.795  0.5423 -0.1359  0.0213
16238W        W36518   0.412  15.033  12.473  0.0974 -0.0520  0.0437
16239W        W36519   2.720   4.899  13.384  0.0230 -0.2379 -0.0986
16240W        W36520  12.433  13.542   0.127  0.1784 -0.0699  0.0410
16241W        W36521   1.672  17.859  12.507  0.4300  0.1933 -0.1481
16242W        W36522  15.466  13.108  10.616  0.2122 -0.3863  0.1491
16243W        W36523   7.982  11.129  11.234  0.1545 -0.0762 -0.2846
16244W        W36524  13.896   8.791   2.003 -0.1484 -0.0403  0.1939
16245W        W36525  11.694   1.470   3.162 -0.2287  0.2209  0.2477
16246W        W36526   5.538   6.463  13.679 -0.2386  0.1548  0.0328
16247W        W36527  11.815  12.807   1.746  0.4694 -0.1218  0.1061
16248W        W36528  10.233   7.081   1.242  0.1388 -0.1027 -0.0393
16249W        W36529  13.616  11.596   1.148  0.1878 -0.0338 -0.1552
16250W        W36530   7.060  19.155  10.994  0.3906  0.1750 -0.0347
16251W        W36531   3.821  13.734  13.833 -0.0726 -0.3792 -0.1317
16252W        W36532   0.897  19.076   2.137  0.0638 -0.1590  0.0627
16253W        W36533   9.925  15.142  13.067 -0.0993 -0.3276 -0.3161
16254W        W36534  14.777   9.175   3.091 -0.3542  0.0960 -0.0986
16255W        W36535  10.819   5.723  13.577 -0.0179  0.0096 -0.2610
16256W        W36536   1.185   0.237   2.801  0.3282  0.1214 -0.1481
16257W        W36537   3.005   3.127   3.854 -0.0909  0.3145  0.0560
16258W        W36538   4.282   6.525   0.417  0.1760 -0.2160 -0.2976
16259W        W36539  18.969  11.142   1.393  0.2207 -0.3084  0.1054
16260W        W36540   8.255  14.795  13.281 -0.0188  0.1883  0.2383
16261W        W36541   0.459  11.394   2.380  0.0706 -0.3503  0.1479
16262W        W36542   6.821   5.510  11.497  0.0716 -0.1856 -0.1022
16263W        W36543  19.415   6.747  13.265  0.5117 -0.1883  0.1009
16264W        W36544   1.720   2.219   1.648  0.2255  0.0610  0.3659
16265W        W36545   8.001  17.342  13.620 -0.1392 -0.0021  0.4182
16266W        W36546   7.536  11.632   0.721 -0.1113  0.4274  0.0888
16267W        W36547  11.548  13.666  11.702 -0.0451  0.1516 -0.0156
16268W        W36548  16.943  14.458  12.373  0.0609 -0.3222 -0.1646
16269W        W36549  18.337   0.700   3.554 -0.0873  0.1116  0.1561
16270W        W36550   1.234   1.364   0.554 -0.0658  0.2815 -0.3572
16271W        W36551  10.165   2.169  12.300  0.3034  0.0293 -0.3458
16272W        W36552   0.010  16.564  12.854  0.0868 -0.0766 -0.0482
16273W        W36553   9.352  11.429   3.641 -0.0101  0.0913 -0.3576
16274W        W36554  10.032   6.276  14.235 -0.2413  0.0690 -0.0005
16275W        W36555  11.409  13.585  10.501  0.2054 -0.0864  0.2602
16276W        W36556   9.878   7.707   0.419  0.0154 -0.1329  0.0302
16277W        W36557   4.471  15.700  10.948 -0.1431 -0.4272 -0.0635
16278W        W36558   5.789   7.652   1.734 -0.0927  0.0482  0.0188
16279W        W36559  16.447   3.339  14.019 -0.0027  0.0156 -0.0539
16280W        W36560   7.513   1.501   0.553  0.2087 -0.0256 -0.0530
16281W        W36561   5.999   2.463   1.380 -0.4614  0.0586  0.2107
16282W        W36562   9.365   1.242  13.935  0.1374 -0.0033  0.0348
16283W        W36563  15.642   8.824   2.734 -0.0641  0.1842 -0.0753
16284W        W36564  14.092   3.288  12.071 -0.2534  0.1193  0.0399
16285W        W36565   8.151  18.085   3.239 -0.1080  0.1852  0.1842
16286W        W36566  18.149   4.678  11.724  0.2159  0.0408 -0.0421
16287W        W36567  11.883  15.946   2.885  0.0821 -0.2058 -0.5325
16288W        W36568   3.461  16.528   3.690 -0.0999 -0.0458 -0.2484
16289W        W36569  15.593   2.441   2.725  0.1786  0.1487 -0.0667
16290W        W36570   5.605  13.423  11.591 -0.0267  0.4382  0.0405
16291W        W36571  10.641   0.923   0.101  0.0133 -0.2364  0.1584
16292W        W36572   3.884  10.972  12.779  0.2028 -0.1592 -0.1641
16293W        W36573  10.065  17.588   2.894 -0.3488 -0.0117  0.1412
16294W        W36574   5.396  18.590   2.225 -0.1046 -0.3378  0.1658
16295W        W36575   4.943  15.423  10.153  0.0004  0.0575 -0.0634
16296W        W36576   5.271   2.258   3.837 -0.0709 -0.0030  0.1759
16297W        W36577   3.354   6.543   3.511 -0.3393 -0.2617  0.0521
16298W        W36578   5.072  15.088  11.681  0.0682 -0.0665  0.1195
16299W        W36579   2.442  11.759   2.140 -0.1626  0.2589 -0.1151
16300W        W36580  16.235   2.120  13.454 -0.0551 -0.1080 -0.1730
16301W        W36581  15.774   6.073   0.209 -0.0697 -0.0528 -0.2014
16302W        W36582   8.063  11.734   3.434  0.0054  0.1125 -0.1318
16303W        W36583  18.056  12.839  11.708  0.0446  0.2233  0.3127
16304W        W36584   6.221   3.667  11.240  0.0839 -0.0828 -0.3864
16305W        W36585  15.279   6.989   0.287  0.4055 -0.4010  0.2513
16306W        W36586   2.325   7.219   1.412 -0.1856  0.3947  0.0736
16307W        W36587  14.564   8.000   2.726 -0.1765  0.0621  0.0883
16308W        W36588   4.684  15.396   1.150  0.2722 -0.1716 -0.2119
16309W        W36589   1.744  16.280   2.624 -0.2488  0.1563  0.0377
16310W        W36590  10.152  14.295   2.900  0.1379 -0.0252  0.1343
16311W        W36591  10.923   2.918   5.384  0.1891  0.3593  0.0197
16312W        W36592   5.714  18.534  13.620  0.2040  0.1659 -0.0831
16313W        W36593  12.109   6.797  13.264 -0.0172  0.3913  0.2354
16314W        W36594   6.285  15.773   9.614 -0.1734 -0.0319  0.1685
16315W        W36595   0.179   3.280   3.092  0.0946  0.0960  0.0053
16316W        W36596  15.907   9.905  12.494 -0.0645 -0.1324  0.1604
16317W        W36597  10.158  17.247  11.377  0.2719 -0.1008 -0.1115
16318W        W36598   5.133   8.323   3.235 -0.0057 -0.0083  0.1788
16319W        W36599  18.169   8.951   1.242  0.1688  0.0082  0.3838
16320W        W36600   9.860   7.859  13.990 -0.0954  0.2989  0.3839
16321W        W36601  13.481  14.996   0.617 -0.0239 -0.2660  0.0011
16322W        W36602  17.276   7.678   1.190  0.2661 -0.0076  0.0825
16323W        W36603   8.000   8.055  12.038 -0.0399 -0.0038 -0.0545
16324W        W36604  18.342   3.500   3.795 -0.0324 -0.1133  0.0039
16325W        W36605   8.068  15.406  11.939  0.1877 -0.0126  0.2358
16326W        W36606   7.270  11.067  11.895 -0.3755 -0.0812 -0.0801
16327W        W36607   5.461  15.219   0.854  0.0806  0.1756 -0.2051
16328W        W36608  15.178  11.139   0.408  0.1319 -0.2537 -0.2524
16329W        W36609   7.118  11.607   2.538  0.0037  0.1299 -0.0595
16330W        W36610   5.678  12.858   2.128 -0.2462 -0.2226 -0.0103
16331W        W36611  12.723  19.203  14.134  0.0926 -0.3155 -0.0530
16332W        W36612  12.552   4.097   0.590  0.1737 -0.1854  0.1361
16333W        W36613   7.569  18.701  10.233  0.4362 -0.2022  0.0782
16334W        W36614  18.098  16.940   3.747  0.1010 -0.1946 -0.2454
16335W        W36615   6.138  11.558  14.080  0.2732 -0.1246  0.1219
16336W        W36616  11.049   5.347  12.340 -0.1607  0.1798  0.0006
16337W        W36617  12.027  17.323   2.080 -0.1515  0.1355  0.1647
16338W        W36618   3.986  12.982  12.193  0.2128  0.0706 -0.0770
16339W        W36619   4.971   2.540   4.108  0.2103 -0.4691  0.1472
16340W        W36620  14.063  12.602  13.955  0.2253  0.0399  0.1426
16341W        W36621   5.631  11.134  10.730 -0.0232  0.0746 -0.1862
16342W        W36622  17.271   7.437   3.462  0.0581 -0.0255 -0.0806
16343W        W36623  12.496  16.656  13.248  0.2517 -0.3643  0.1349
16344W        W36624  14.049  13.725  13.029 -0.0324 -0.1448 -0.0188
16345W        W36625  10.546   3.996   4.006  0.0329 -0.0509 -0.0064
16346W        W36626  16.735   8.285  12.942 -0.3283  0.2812 -0.0903
16347W        W36627   2.000   8.949   0.133  0.1142  0.1367 -0.0460
16348W        W36628  16.481   2.438  13.784  0.0604 -0.0311 -0.2791
16349W        W36629  15.605  11.801  13.906 -0.1172  0.0247 -0.0613
16350W        W36630  18.654  14.728  13.217  0.0595  0.2357  0.1986
16351W        W36631   5.595  16.754  14.098 -0.1650 -0.0368 -0.5098
16352W        W36632   2.512   8.803  10.227 -0.1337 -0.3500 -0.1877
16353W        W36633   8.500  17.998  11.979 -0.0570 -0.1281  0.0188
16354W        W36634   4.871   7.251   2.022  0.0056 -0.1640 -0.0367
16355W        W36635  11.140  17.947   1.095  0.1080 -0.0128 -0.2060
16356W        W36636  16.699  11.696  10.584 -0.0599  0.0421 -0.0437
16357W        W36637  11.506  16.103   9.939 -0.1921 -0.0241 -0.0887
16358W        W36638  13.144  17.831   3.026 -0.2458  0.3598  0.1385
16359W        W36639  11.938   3.916  10.249  0.1785 -0.2563 -0.0832
16360W        W36640  11.663  17.092  14.041 -0.2950 -0.1012  0.0036
16361W        W36641  10.274   6.112   1.028 -0.1687 -0.4728  0.2466
16362W        W36642  13.231   9.463   1.653  0.0310  0.1113  0.1338
16363W        W36643  19.240   9.806   1.505 -0.2585  0.0066 -0.0055
16364W        W36644   6.278  17.985  12.812 -0.0053 -0.4196 -0.0059
16365W        W36645   9.572  14.245  13.414 -0.2256 -0.0298 -0.1404
16366W        W36646  16.386   2.441  11.068 -0.4495  0.0087  0.1973
16367W        W36647   4.452  10.656   1.428 -0.3129 -0.0681 -0.4357
16368W        W36648  18.502   1.596   0.542 -0.2517 -0.0990 -0.4075
16369W        W36649  18.394  17.018  11.840  0.2384 -0.0855  0.2766
16370W        W36650  18.588  14.748   3.273 -0.2697 -0.0777  0.1497
16371W        W36651   2.051   0.424  14.124 -0.0455 -0.1459 -0.0846
16372W        W36652  12.838   6.440   4.644 -0.4044  0.1104  0.1106
16373W        W36653  14.482  11.681   0.001  0.1095 -0.0593 -0.0119
16374W        W36654   5.621  17.671   2.282 -0.0219  0.0505 -0.0426
16375W        W36655  13.697  17.322  13.397  0.1953 -0.0887  0.0338
16376W        W36656   1.896  19.256   2.311 -0.0079 -0.0424 -0.2564
16377W        W36657   2.884   1.980  14.089 -0.0169  0.0482 -0.3886
16378W        W36658  16.370  10.724   1.817  0.1226 -0.0738 -0.1171
16379W        W36659  15.549   7.306   2.076  0.0707  0.2622 -0.1564
16380W        W36660   2.979   6.887   1.773 -0.0790 -0.3341 -0.3244
16381W        W36661  15.848  12.897   3.500  0.1982 -0.1219 -0.0387
16382W        W36662   9.278   2.326   4.178 -0.1283  0.2672  0.0008
16383W        W36663   9.128   9.341  12.421 -0.0638  0.0023 -0.3688
16384W        W36664   4.852   2.886   0.032  0.0333 -0.0806 -0.2164
16385W        W36665  13.311   0.217  11.369  0.1320 -0.0571 -0.1070
16386W        W36666  12.941   0.924   2.098  0.0185 -0.1677 -0.2179
16387W        W36667   5.179   8.867  11.373  0.1016 -0.0745 -0.3571
16388W        W36668   8.191  12.526   1.990  0.1673  0.0569 -0.0018
16389W        W36669   3.117  11.621   1.627 -0.0105 -0.1485 -0.3062
16390W        W36670  10.141   9.431   4.991 -0.1678 -0.1177  0.0557
16391W        W36671   1.651   4.596  12.253  0.0310  0.4468 -0.1333
16392W        W36672  14.129  12.183   3.469 -0.2155 -0.2811 -0.1440
16393W        W36673   3.928   3.509  11.630 -0.2233 -0.1713 -0.1144
16394W        W36674  13.881   7.566  11.145  0.1663 -0.0061 -0.0853
16395W        W36675  18.343   2.665  14.049  0.0283  0.2050  0.2747
16396W        W36676   5.661   5.650   2.398  0.0956  0.3983 -0.1880
16397W        W36677  14.903   7.987  12.042  0.0125 -0.2339 -0.0793
16398W        W36678  15.079  13.523  10.608 -0.0503  0.0097  0.0243
16399W        W36679  11.761  12.207   2.633 -0.1033  0.2013  0.0830
16400W        W36680  12.564   3.313   1.283 -0.0942  0.3278 -0.2882
16401W        W36681  11.654  12.235   1.277 -0.0557 -0.1413  0.2281
16402W        W36682   7.969  11.291   3.761  0.2628  0.1275  0.1308
16403W        W36683   8.533   5.464   0.657  0.0294  0.1159 -0.0708
16404W        W36684  11.686  15.688   0.956  0.0372 -0.0600  0.3671
16405W        W36685  16.696   3.758  10.601  0.0800  0.0391 -0.0475
16406W        W36686   8.433   2.861   1.093  0.0838 -0.4436  0.2126
16407W        W36687   2.855   9.434  13.056 -0.0111  0.0105 -0.2107
16408W        W36688  14.099   8.428   1.311  0.0683  0.0116 -0.1478
16409W        W36689   5.209  15.135  10.856 -0.0657 -0.0800  0.0146
16410W        W36690  16.305   1.490  14.193 -0.2514  0.0491  0.0109
16411W        W36691   5.458  18.199   5.096  0.0491  0.2844  0.1647
16412W        W36692  14.880  18.636   1.572 -0.0091 -0.1507  0.0476
16413W        W36693  19.417  11.634  14.030 -0.0262 -0.1168 -0.6120
16414W        W36694   8.546  10.938  13.076 -0.1823  0.3543  0.2819
16415W        W36695  12.005   8.567  10.524  0.0912  0.0987 -0.1488
16416W        W36696  12.051   9.561   4.312  0.0729  0.3814 -0.2281
16417W        W36697   0.800   8.290   9.837  0.2875  0.3007 -0.3018
16418W        W36698   8.175   1.307  12.799 -0.3638 -0.1321  0.1257
16419W        W36699   2.895  11.493   3.647  0.3495  0.3361 -0.2396
16420W        W36700   9.995  13.911  13.316  0.2501 -0.3221 -0.0573
16421W        W36701   9.881  12.681   4.622  0.0421 -0.2307  0.0550
16422W        W36702   5.248  17.060  12.977 -0.2132 -0.1611 -0.1681
16423W        W36703   2.005   0.778  13.299 -0.0862  0.0997  0.0854
16424W        W36704  11.565  15.702  12.779  0.0517 -0.1783  0.0330
16425W        W36705   8.928  10.904  10.912  0.2206  0.0021 -0.1415
16426W        W36706   5.685   2.713   4.053 -0.2577 -0.0720 -0.0982
16427W        W36707  19.395   8.898   2.007  0.5017  0.2244  0.0268
16428W        W36708  14.274   5.279  10.537 -0.0120  0.1045 -0.1571
16429W        W36709   7.724  19.072   3.160 -0.2579  0.4162 -0.2245
16430W        W36710   0.879   4.547  13.581  0.1832  0.0718 -0.1609
16431W        W36711  10.094  10.488  11.040  0.0425  0.0685  0.0933
16432W        W36712   6.141   1.423   0.989  0.0625  0.1012 -0.1533
16433W        W36713   6.264   9.615  14.038 -0.0614 -0.1802  0.0954
16434W        W36714   8.749   9.309   9.476 -0.2632  0.0387 -0.0464
16435W        W36715  10.356  17.145  12.582 -0.0982 -0.1153 -0.0159
16436W        W36716  15.283  17.274   4.178  0.0769 -0.2355  0.0183
16437W        W36717  10.436  17.313  10.498 -0.2780  0.0097  0.1844
16438W        W36718  12.026   9.544   1.824 -0.3356 -0.0655  0.2343
16439W        W36719  14.408   0.790   0.214  0.3116 -0.0536 -0.2469
16440W        W36720   6.644   5.385   4.270 -0.1205  0.1286 -0.0271
16441W        W36721  13.663  10.529  14.222  0.0088  0.0928  0.3671
16442W        W36722  17.066   7.245  11.286 -0.2663  0.1152 -0.0466
16443W        W36723   4.576  14.727  11.670 -0.5043 -0.1552 -0.1116
16444W        W36724   4.124  13.590  12.919  0.1281 -0.4352 -0.1870
16445W        W36725  18.593   4.572  12.692 -0.2559 -0.0289 -0.0771
16446W        W36726  15.902  18.049   0.805 -0.1257  0.1112  0.0591
16447W        W36727  19.113   9.915   3.487 -0.3441  0.0055 -0.0842
16448W        W36728  12.929   5.734   0.277  0.0071  0.1639  0.1110
16449W        W36729   9.108  16.842   4.287  0.0334 -0.0179  0.2264
16450W        W36730   6.803   7.102  11.073 -0.0835 -0.0198 -0.1601
16451W        W36731  17.411  11.016   0.081 -0.2057  0.0813 -0.0860
16452W        W36732   5.631  12.511  13.263 -0.0560  0.1119 -0.0610
16453W        W36733  11.300  17.160  13.075  0.1264 -0.1410  0.1874
16454W        W36734   4.182   8.344  11.217  0.2005  0.0180  0.0069
16455W        W36735  12.545  16.466  13.755 -0.0821  0.0313  0.0629
16456W        W36736  13.337   4.240   2.636 -0.3482 -0.0794 -0.0870
16457W        W36737   3.958   1.429  13.796  0.2719 -0.1824  0.1700
16458W        W36738   9.041  16.198   4.047  0.0641 -0.0901  0.0970
16459W        W36739   4.573  16.761   0.692 -0.0334 -0.3698  0.2459
16460W        W36740   3.728  13.031   3.444  0.1354 -0.2069  0.0129
16461W        W36741   6.430  13.454   0.690 -0.1955  0.4609 -0.2680
16462W        W36742   5.118  17.402   1.674 -0.2305 -0.3535 -0.0571
16463W        W36743  18.974  15.082   2.322 -0.1710 -0.0479 -0.2108
16464W        W36744  14.070  14.276   1.296  0.1687 -0.0639 -0.2385
16465W        W36745  19.090  19.404  10.747 -0.1273  0.3307 -0.0775
16466W        W36746   4.116  10.116   0.148  0.1956  0.0439  0.1369
16467W        W36747   8.593   4.566  12.371  0.3109  0.0583 -0.1355
16468W        W36748   0.424  15.846  12.121 -0.2432  0.1507  0.0928
16469W        W36749   7.047   4.656  10.685 -0.1593 -0.1281  0.0889
16470W        W36750  18.647  16.128   0.011  0.0163 -0.3427 -0.0634
16471W        W36751  13.638   1.061   1.311 -0.0038  0.0741 -0.0364
16472W        W36752   5.435   1.909   0.763  0.1175  0.1732  0.0046
16473W        W36753  10.571   2.930   2.409  0.0710 -0.2706  0.0683
16474W        W36754  17.081   1.284   0.923 -0.0203  0.0650 -0.1214
16475W        W36755   7.253   1.264  12.563  0.2641 -0.0622 -0.1056
16476W        W36756   6.319  13.543   2.587 -0.0938  0.0164 -0.2371
16477W        W36757  17.830  15.477  11.973 -0.0115  0.1594 -0.1369
16478W        W36758  16.327   6.130  13.437 -0.1268 -0.2063  0.1506
16479W        W36759  12.756   7.792  13.608  0.0356  0.1417  0.0166
16480W        W36760  12.839   4.647   3.140 -0.1810 -0.4224  0.3517
16481W        W36761  15.476  15.596  10.406 -0.0707 -0.2175  0.0299
16482W        W36762  18.461  15.718  13.756 -0.0576 -0.0783  0.0937
16483W        W36763  11.185  15.104   2.786 -0.0359 -0.0471 -0.0466
16484W        W36764  17.412  13.428  10.194  0.4302  0.1511 -0.0976
16485W        W36765   8.373  12.081  13.635  0.2353 -0.0440 -0.0382
16486W        W36766   3.586   9.561   0.623 -0.1040  0.0730  0.1036
16487W        W36767  13.346  16.393   2.502  0.3448 -0.0485  0.1070
16488W        W36768  18.228  16.710   2.729  0.1026 -0.0778  0.0870
16489W        W36769  14.164   0.498  12.991  0.0936  0.1990 -0.0408
16490W        W36770  13.406  16.868  13.420  0.1227  0.1967  0.1551
16491W        W36771   4.710   0.390   1.033  0.2181  0.0691 -0.0141
16492W        W36772   6.436  13.143  12.637 -0.1323 -0.1620 -0.3025
16493W        W36773  16.332   5.931   1.262  0.2841 -0.1096 -0.0476
16494W        W36774  17.041  13.241   2.535 -0.2283  0.1249 -0.1232
16495W        W36775  10.229  12.856   0.081 -0.3957 -0.1401 -0.2254
16496W        W36776  19.289  14.357   1.164  0.2741  0.1231 -0.1720
16497W        W36777   0.638  14.993   2.104  0.1098  0.3489  0.2447
16498W        W36778   6.248  10.503   3.739  0.3453  0.2184  0.0443
16499W        W36779   2.066  13.075   9.866  0.0640  0.0017 -0.2832
16500W        W36780   7.876  14.228  12.815  0.0641 -0.1269 -0.1423
16501W        W36781  10.410   3.698  11.819 -0.2805 -0.2701 -0.1508
16502W        W36782  12.113  14.373   1.611 -0.0214 -0.0222  0.3003
16503W        W36783   8.419   5.471  10.858  0.0582  0.1940 -0.0365
16504W        W36784   2.105   1.851   3.349  0.0703  0.0869 -0.0077
16505W        W36785   6.837   9.633   3.773 -0.1162 -0.0347 -0.0691
16506W        W36786  17.755  13.095  10.241  0.0519  0.0629  0.1023
16507W        W36787  15.038  12.068   1.679  0.0667  0.3456  0.1028
16508W        W36788   9.442   8.192   1.026  0.0004  0.3256  0.4781
16509W        W36789   9.616  14.859  13.313 -0.0380 -0.0499 -0.2272
16510W        W36790   1.386   0.437  11.110 -0.0664 -0.0599 -0.0780
16511W        W36791   9.537  10.954  12.096  0.1612  0.0103  0.2996
16512W        W36792   0.012   3.763   1.194  0.3409 -0.2227 -0.2659
16513W        W36793  19.282   5.310   2.893  0.2271 -0.1028 -0.3329
16514W        W36794  11.521  10.089   0.948 -0.0269  0.2384  0.1857
16515W        W36795   4.411   2.265   0.887 -0.2477  0.0963  0.1142
16516W        W36796  10.554   8.319   0.590 -0.0524 -0.1145 -0.2250
16517W        W36797  14.641  16.059   3.602 -0.3356  0.1605 -0.1431
16518W        W36798  10.497  14.714  10.277  0.1033 -0.0794 -0.3071
16519W        W36799  15.496   4.467  12.235 -0.0530  0.1164 -0.1318
16520W        W36800   8.688  16.528  11.942 -0.4102 -0.0785  0.0752
16521W        W36801   1.762  10.489  11.178  0.2137  0.0420 -0.3773
16522W        W36802   0.870  14.683  13.738  0.0717 -0.2218  0.0390
16523W        W36803   9.109  12.594  11.635 -0.5391 -0.5623  0.1909
16524W        W36804   1.810   7.169   2.200  0.0607  0.2643 -0.0194
16525W        W36805  17.318  12.577  12.926  0.1490 -0.0834 -0.1274
16526W        W36806  18.963   2.018  14.323  0.2993  0.0251 -0.0917
16527W        W36807  12.210  13.624  12.436 -0.0700  0.1013  0.0708
16528W        W36808   7.936   5.002   1.714  0.1778 -0.0532 -0.1875
16529W        W36809  18.014   8.816   0.794  0.4532 -0.0960 -0.1220
16530W        W36810   4.377  17.015  10.847  0.0661 -0.1661  0.2008
16531W        W36811  10.643   8.424  11.938 -0.1321 -0.2650  0.0970
16532W        W36812  14.628  17.571  11.666 -0.0491 -0.0670 -0.2626
16533W        W36813   6.969   6.638   4.173 -0.0257  0.0581 -0.0321
16534W        W36814  18.441  19.251   0.459  0.1622 -0.1134 -0.5045
16535W        W36815   2.313   8.995   1.145 -0.1189  0.0900  0.2147
16536W        W36816   3.691   2.405  12.448 -0.1631 -0.0589  0.1896
16537W        W36817   4.153  10.911   0.500 -0.0755  0.0967 -0.1145
16538W        W36818   0.934  14.826   0.341 -0.3212 -0.1001  0.0589
16539W        W36819   8.891  18.288   3.122 -0.0987  0.1522  0.1067
16540W        W36820  10.986   7.453  13.774  0.0561  0.0609 -0.1591
16541W        W36821  15.397  13.266   1.614 -0.1183 -0.2936  0.1789
16542W        W36822  14.959  11.598  13.370 -0.3396 -0.1461  0.2490
16543W        W36823  15.885   3.896  12.841  0.2243 -0.0304  0.0970
16544W        W36824   3.301  14.328  11.459  0.0459  0.0507 -0.2454
16545W        W36825   5.817  16.090   3.544  0.0864  0.2186  0.2091
16546W        W36826   0.736  14.675  12.079 -0.3016  0.0852  0.2222
16547W        W36827  17.446   7.318  14.182  0.2565 -0.2138 -0.0259
16548W        W36828   3.603   8.168  13.307  0.4709  0.1024  0.0254
16549W        W36829  10.000  11.522  11.943  0.1323  0.2480  0.3360
16550W        W36830  13.024  18.881  11.285 -0.0031 -0.0492  0.0680
16551W        W36831  18.594  17.368   0.753  0.0733  0.0037  0.1517
16552W        W36832  10.650   4.839   1.753  0.1625 -0.3321 -0.0666
16553W        W36833   9.733  10.600  11.409  0.0564  0.2214 -0.1826
16554W        W36834  14.187  15.323  11.304 -0.0349 -0.0488  0.1213
16555W        W36835   7.018   0.547   2.877  0.0019 -0.1018  0.0236
16556W        W36836  16.640   3.461   3.133  0.2051  0.1536  0.0431
16557W        W36837   9.486   8.998  12.513  0.1746 -0.0578 -0.0853
16558W        W36838  16.640  14.019  12.472  0.2685  0.1043  0.2644
16559W        W36839   1.635  12.677  10.495  0.0189 -0.0891 -0.1672
16560W        W36840   0.790   9.619   2.412  0.1115  0.1388 -0.2034
16561W        W36841  13.988  14.412  13.892  0.0326  0.3523  0.0651
16562W        W36842  13.686   1.127   3.150 -0.2329  0.0379 -0.0729
16563W        W36843   6.948   6.848   0.023  0.0526 -0.0221  0.2143
16564W        W36844  18.025   2.650   4.698  0.1794 -0.1541  0.1131
16565W        W36845  18.761   0.247  13.155 -0.2336  0.2754 -0.1399
16566W        W36846   0.232  11.498  10.477  0.2082 -0.2042 -0.0238
16567W        W36847   0.175  13.643   2.639  0.0929  0.0486  0.1483
16568W        W36848   5.316   3.850   2.036 -0.1543 -0.0180  0.0939
16569W        W36849   5.075   8.023   0.135 -0.3051  0.1172  0.3652
16570W        W36850   2.818  15.496  13.302  0.2668  0.2689  0.1030
16571W        W36851   8.178  10.435  13.849 -0.0524 -0.0326 -0.5397
16572W        W36852   0.566   9.169   1.726 -0.2671  0.1417 -0.1015
16573W        W36853  15.719  12.457   1.651 -0.1243  0.0569  0.1455
16574W        W36854  11.277  17.896   3.618 -0.1434  0.2647  0.4585
16575W        W36855   0.435   7.319  12.072 -0.1219 -0.1555 -0.3153
16576W        W36856   4.291  14.384  10.528  0.1198  0.2173  0.0105
16577W        W36857  15.161   9.142   3.382 -0.0200  0.3363 -0.1631
16578W        W36858  13.718  18.187   0.532 -0.4642 -0.0111 -0.1567
16579W        W36859  11.608  13.202   2.897 -0.0248  0.1503  0.0198
16580W        W36860   1.245   1.409  11.426 -0.0812  0.0205 -0.1730
16581W        W36861   7.157  10.907   3.938  0.1108  0.0784 -0.5265
16582W        W36862  19.186  16.177  13.172  0.4306 -0.0757  0.1013
16583W        W36863  12.985   1.526  13.694 -0.0694  0.1822 -0.1939
16584W        W36864  16.179  10.633   3.165 -0.1512  0.1199  0.0719
16585W        W36865   9.855  11.735   2.890 -0.1694  0.1062  0.3672
16586W        W36866   2.773  12.731  13.678 -0.0432  0.1513  0.2863
16587W        W36867  19.406  12.379  10.866  0.1751 -0.0417 -0.0207
16588W        W36868  18.344   3.047   0.789 -0.3734 -0.0872  0.0382
16589W        W36869  10.996   2.471  13.348 -0.2471 -0.2715 -0.3652
16590W        W36870  14.188   0.250  12.570 -0.3046  0.5206 -0.1733
16591W        W36871   7.213   6.300   1.961  0.1363 -0.2390 -0.2098
16592W        W36872  11.536   5.527   1.543 -0.1384  0.2621 -0.3303
16593W        W36873  16.700   6.964   1.481 -0.0269 -0.0402  0.2264
16594W        W36874   7.173  14.882   0.044  0.1197  0.3379  0.1672
16595W        W36875   1.013  16.185  12.365  0.0284 -0.0267  0.1165
16596W        W36876   3.469  19.318   2.312 -0.1958 -0.0136  0.0046
16597W        W36877   2.439   2.806   0.351 -0.1943  0.0479 -0.2623
16598W        W36878  11.912   1.540   4.144  0.0625  0.1425 -0.0559
16599W        W36879   9.251  13.172   1.202  0.1939  0.0821 -0.0382
16600W        W36880   4.028  17.005  12.124 -0.1824 -0.2526 -0.3480
16601W        W36881  14.724   9.074  12.705  0.3041  0.2716  0.0423
16602W        W36882   1.196   5.588   0.224 -0.1349 -0.1638  0.2340
16603W        W36883  15.780   9.350   2.220 -0.0370  0.0239  0.3208
16604W        W36884  11.260   9.651   2.030  0.4022 -0.0027 -0.0742
16605W        W36885  11.076  12.187   0.326 -0.0466 -0.3596 -0.1621
16606W        W36886  18.270  12.661   2.306 -0.2099  0.3079 -0.0037
16607W        W36887  17.609   9.283   3.128 -0.3135  0.2847 -0.0354
16608W        W36888  10.677  11.197   2.507 -0.1771 -0.3109 -0.0538
16609W        W36889  15.521   4.911   1.407 -0.0609  0.1779  0.4729
16610W        W36890  15.110  12.266   0.099 -0.1760  0.0202 -0.1863
16611W        W36891  18.346  15.211  12.972 -0.3779 -0.1470  0.0201
16612W        W36892  17.392   8.106  11.415  0.0451 -0.1680  0.0048
16613W        W36893   3.435  10.274  10.201  0.0767 -0.0758  0.1293
16614W        W36894   4.498   5.700  12.154  0.0356 -0.0160  0.1627
16615W        W36895  12.160   7.765  13.573  0.0060  0.3153  0.1329
16616W        W36896   7.039   8.386   1.125  0.0109 -0.0735  0.3183
16617W        W36897  17.072  11.114   3.061 -0.1010 -0.1678 -0.2428
16618W        W36898   4.789   0.059  14.224 -0.1875 -0.0294  0.0497
16619W        W36899  12.981   7.036  11.160  0.3016 -0.2593  0.1202
16620W        W36900   1.175   3.760  11.897  0.2325 -0.1116  0.0067
16621W        W36901  14.492  17.905  12.483 -0.1620  0.0353 -0.0226
16622W        W36902   9.046   1.214  10.560  0.2887  0.1856 -0.1376
16623W        W36903  12.886  10.197   0.925  0.0794 -0.2636 -0.1388
16624W        W36904   3.678  12.512   3.332 -0.0393 -0.2261 -0.1647
16625W        W36905  16.983  18.049   0.187 -0.0996  0.2406  0.2477
16626W        W36906   6.307  16.743   1.554 -0.0499 -0.2950 -0.2694
16627W        W36907  15.659   6.730  11.416  0.1169  0.3860 -0.0122
16628W        W36908   3.872   5.636   0.275  0.2649  0.2367 -0.1338
16629W        W36909   6.447  14.500  12.804 -0.2289 -0.1222 -0.1826
16630W        W36910   8.668   1.631  11.401  0.3164 -0.1632  0.0483
16631W        W36911   4.638   7.251  13.082  0.0864  0.1499  0.3928
16632W        W36912   9.046   2.587  13.335  0.2340  0.0932  0.0160
16633W        W36913   0.192   3.280   4.076 -0.1357 -0.1208 -0.2962
16634W        W36914   3.813   1.259   3.863  0.1812  0.2800 -0.3745
16635W        W36915  16.246   9.345  12.391  0.4105 -0.1153 -0.2151
16636W        W36916   9.339   2.717   1.203  0.0290  0.2007  0.0348
16637W        W36917   5.343   9.515  14.189 -0.3204  0.0145 -0.2428
16638W        W36918  12.743   3.891   5.417 -0.2447 -0.4757  0.1213
16639W        W36919  10.446   5.192   0.556  0.0724 -0.2041  0.1018
16640W        W36920   5.056   4.455  12.207 -0.0774  0.0825 -0.1847
16641W        W36921  12.297   3.690  10.554  0.1943  0.1873 -0.1313
16642W        W36922   3.044  13.180  14.155 -0.0368 -0.0934  0.3195
16643W        W36923  11.364   9.664   3.225  0.0205 -0.0029 -0.2850
16644W        W36924  17.551   2.163  11.848 -0.1437  0.0042  0.0535
16645W        W36925   5.698  17.381   1.410  0.2977 -0.1292  0.0906
16646W        W36926  15.390  11.617   2.345 -0.3497 -0.3068  0.2344
16647W        W36927   0.147  18.632  12.023  0.0713 -0.3794 -0.0833
16648W        W36928   9.076  14.223  11.598  0.1505  0.1085  0.0268
16649W        W36929  17.784  15.893  11.645 -0.1611 -0.1394 -0.0342
16650W        W36930   8.318  11.820   0.149 -0.0087 -0.1458  0.0699
16651W        W36931   4.207  15.671  14.010  0.1377  0.1864 -0.1754
16652W        W36932  18.647  12.562   4.418  0.0349  0.1191 -0.3798
16653W        W36933   8.438   6.578  12.516  0.1465  0.0978 -0.2790
16654W        W36934   0.578  14.275   4.835  0.0532  0.3652 -0.2397
16655W        W36935  13.212   6.525  11.688  0.2489  0.1779  0.2633
16656W        W36936  18.015  19.098   0.702  0.1228 -0.2932  0.1645
16657W        W36937  17.276  17.480   0.499  0.0354  0.2568  0.0860
16658W        W36938  19.304   2.954   1.668  0.1438  0.1852 -0.0458
16659W        W36939   5.747  13.586  11.068 -0.2565  0.0864 -0.4323
16660W        W36940  18.126   0.111  10.569  0.0128 -0.2460 -0.0258
16661W        W36941   3.645   1.322   2.506  0.0582  0.2286  0.2875
16662W        W36942   5.079   9.740   1.932 -0.0885  0.3281  0.0489
16663W        W36943   5.808   2.176  11.824 -0.3041 -0.1266  0.1017
16664W        W36944   4.707   9.315  10.550 -0.2729 -0.1665 -0.0802
16665W        W36945   6.168  12.597   2.574 -0.0922  0.0664  0.2028
16666W        W36946  10.300  11.075   0.913  0.2249 -0.4350 -0.0143
16667W        W36947   6.933   9.394  14.394  0.1979 -0.2394 -0.4180
16668W        W36948  18.758  13.185  13.080  0.1107 -0.0530 -0.0403
16669W        W36949  15.827  17.140  11.240  0.0599  0.4644 -0.1691
16670W        W36950  15.458  14.322   0.849 -0.1047  0.0782 -0.2574
16671W        W36951  12.950   2.498  11.645 -0.2308  0.3196  0.1089
16672W        W36952  11.402   4.466   1.691 -0.1125  0.2594 -0.3058
16673W        W36953  14.542   8.606   0.662 -0.2711  0.1138 -0.0923
16674W        W36954   9.313   0.724   2.362 -0.1548  0.0632  0.0455
16675W        W36955   6.666   5.983   1.512 -0.0280  0.0348 -0.0800
16676W        W36956  15.559   2.610  14.204 -0.0139 -0.2724 -0.2678
16677W        W36957   5.618  13.837   0.831 -0.1212 -0.2118  0.2060
16678W        W36958   0.050   0.677  13.345  0.0316  0.0356 -0.2675
16679W        W36959  14.212   7.803  11.500  0.1915 -0.3265 -0.0363
16680W        W36960   3.472   8.064   0.902  0.1531  0.3190 -0.0366
16681W        W36961  10.660  18.573   3.843  0.0618  0.0582  0.0955
16682W        W36962  17.064   5.072   0.225 -0.0649  0.2668 -0.2062
16683W        W36963  11.348   5.336   1.092  0.0138 -0.2245  0.0120
16684W        W36964   5.311   5.954  11.926  0.1625 -0.1927  0.1651
16685W        W36965   2.465  12.539   3.068 -0.2714  0.0410  0.2078
16686W        W36966   2.859   3.399  12.361  0.0032  0.0956 -0.0549
16687W        W36967  10.149  17.728  14.086 -0.0639 -0.2336 -0.0514
16688W        W36968   2.523  18.901   0.732  0.1593  0.2168 -0.0536
16689W        W36969   9.384  17.639   1.948  0.1248  0.0739  0.1548
16690W        W36970  11.310  17.498  10.665 -0.0300 -0.1322 -0.1608
16691W        W36971   6.798   3.645  11.238  0.2526 -0.1905  0.1306
16692W        W36972   4.198  16.150   0.282 -0.0327  0.1406 -0.1243
16693W        W36973   1.042  12.916  12.274  0.0402 -0.1516 -0.0654
16694W        W36974  16.335  19.198   1.416  0.2965  0.3523 -0.0588
16695W        W36975  16.801  18.528  12.449  0.2390  0.1726  0.1420
16696W        W36976   6.811   3.980   1.869  0.1004 -0.1033  0.1058
16697W        W36977   1.876  19.116  11.584 -0.0239  0.0751 -0.0295
16698W        W36978  12.212   6.512   3.321 -0.0066  0.0166  0.1364
16699W        W36979  15.261   8.801  11.058 -0.1068  0.0738 -0.3314
16700W        W36980  13.540  12.577   3.979 -0.1565 -0.0474  0.2151
16701W        W36981  14.671  10.564   2.812 -0.1834  0.1907 -0.0227
16702W        W36982  17.773   3.922  11.313  0.0863 -0.1927 -0.0707
16703W        W36983  16.346  17.055  11.477 -0.0248  0.2952  0.2882
16704W        W36984   7.665   2.093  12.716  0.0432  0.0888 -0.3321
16705W        W36985  15.277   5.713   3.476 -0.2358 -0.0883  0.2524
16706W        W36986  16.168  12.753   0.074 -0.1919  0.0962  0.2255
16707W        W36987   3.230  16.538   4.577 -0.1458  0.0258  0.0620
16708W        W36988   4.313   9.395   2.919 -0.2052  0.0312  0.2805
16709W        W36989   4.914   2.079  11.899  0.0785  0.2656 -0.3405
16710W        W36990   1.490   8.519   4.527  0.0063 -0.3831  0.1037
16711W        W36991  18.911  14.959   2.897  0.4543  0.2082  0.4779
16712W        W36992  14.677  13.531   2.325  0.0401 -0.0852 -0.1728
16713W        W36993   5.277   4.329   3.757 -0.0898  0.0728  0.2501
16714W        W36994  10.823  14.967  13.879 -0.0579  0.2577  0.0283
16715W        W36995   9.884  14.183   0.197 -0.2569  0.1775  0.1835
16716W        W36996   9.435   1.949   0.523  0.0405 -0.1577 -0.3379
16717W        W36997  10.170   7.278  12.644 -0.0065  0.1480  0.1459
16718W        W36998  13.569  16.800   3.434 -0.1588 -0.2920 -0.0783
16719W        W36999  16.515  15.154  13.438  0.0414 -0.1490  0.0711
16720W        W37000  10.829   2.661  13.799 -0.0222 -0.0525 -0.1599
16721W        W37001   2.562  15.790   3.385  0.3054  0.2478 -0.0821
16722W        W37002   9.093   0.771   0.163 -0.1790 -0.1694  0.1541
16723W        W37003   2.747  17.238   0.839  0.1269  0.2501 -0.2558
16724W        W37004   5.080   0.116  12.324 -0.0077 -0.0783  0.0545
16725W        W37005  15.328   3.990   1.836  0.2861 -0.0341  0.1449
16726W        W37006  11.731   0.794  10.509  0.0025 -0.1819 -0.2662
16727W        W37007   4.358  14.536   3.096  0.1509 -0.1648  0.1801
16728W        W37008  15.947   4.028   1.171 -0.1255 -0.0801  0.3465
16729W        W37009  18.492  12.724   0.170 -0.1465  0.2427  0.2387
16730W        W37010   8.810   4.571  11.853  0.0558  0.0160 -0.0206
16731W        W37011  14.290   2.410  13.130  0.1040 -0.0315  0.3214
16732W        W37012   1.726   9.904  13.069  0.2624  0.0015  0.0163
16733W        W37013   7.818   0.241   0.255  0.1397 -0.3253 -0.0629
16734W        W37014   5.812   1.836  11.367 -0.0896  0.0372 -0.1585
16735W        W37015  10.932   4.281   0.734  0.1356 -0.4393  0.2312
16736W        W37016  17.375   4.919  10.388 -0.1837  0.0010 -0.0946
16737W        W37017   8.808   8.342  11.157  0.1019 -0.0947  0.0647
16738W        W37018   7.240   4.518  13.999  0.1971  0.2452 -0.4497
16739W        W37019  15.665  15.871   9.770  0.2482  0.0087 -0.0464
16740W        W37020   0.290   8.616   1.709  0.0094 -0.0128  0.0120
16741W        W37021  17.704   5.040  11.639  0.2650  0.3386 -0.2566
16742W        W37022   1.988   7.635  11.359  0.0148 -0.1701 -0.3661
16743W        W37023  10.915   2.947   0.574 -0.1211 -0.0006 -0.0070
16744W        W37024   9.398   2.822  13.613  0.1918  0.0074  0.0027
16745W        W37025  14.505  13.552  10.534 -0.0563  0.2476  0.0550
16746W        W37026  18.610  16.493   0.393 -0.0847 -0.2973 -0.1218
16747W        W37027  15.013  14.229   4.185  0.2200  0.2978 -0.2788
16748W        W37028   1.906  14.501   4.747  0.1108  0.1197 -0.3174
16749W        W37029  18.709   2.343   4.255  0.0845 -0.1467 -0.1075
16750W        W37030   9.695   3.307   3.348 -0.0718  0.0996 -0.0552
16751W        W37031   4.902   8.182   1.003  0.1165  0.1450 -0.1626
16752W        W37032  17.106  17.928   1.655  0.0739  0.0642 -0.2099
16753W        W37033   2.691   8.156  14.129 -0.3032 -0.0532 -0.0474
16754W        W37034   2.908  14.855  10.298 -0.0338 -0.0377 -0.0533
16755W        W37035   3.550   4.860   1.534 -0.0627 -0.0903  0.0210
16756W        W37036   8.148  16.974   0.562 -0.0376 -0.1653 -0.1159
16757W        W37037  11.291   6.273   4.016 -0.2869  0.1250  0.3194
16758W        W37038   0.185  11.966  10.273  0.1197  0.1508 -0.0970
16759W        W37039  10.899   4.335  12.018 -0.3196 -0.1467  0.1374
16760W        W37040   4.863  16.782   2.768  0.1365 -0.0655 -0.2666
16761W        W37041   8.381  15.605  13.890 -0.0043 -0.1343  0.1743
16762W        W37042   4.625  13.824   2.320 -0.0181 -0.0576 -0.0118
16763W        W37043  14.545   8.625  13.139 -0.0171  0.1857  0.1390
16764W        W37044  16.167  18.053  13.579  0.3323  0.2082 -0.0390
16765W        W37045   2.693  13.491   4.048 -0.0524  0.0558 -0.0739
16766W        W37046   0.667   4.167  10.015  0.2172 -0.3307 -0.0844
16767W        W37047   9.599   3.413  11.318 -0.0223  0.1442 -0.0386
16768W        W37048  17.678  18.448  12.541 -0.3226 -0.2700 -0.0672
16769W        W37049  15.157   7.328  12.599 -0.3306  0.2115 -0.2683
16770W        W37050  16.243   3.641   1.086  0.3489  0.0763  0.0208
16771W        W37051  16.548   8.101   0.008 -0.0594 -0.0234 -0.2460
16772W        W37052  12.581   7.007  10.801  0.0380  0.1128  0.0079
16773W        W37053  10.961  14.787   5.329 -0.3232  0.1525  0.1819
16774W        W37054   3.281   9.004  10.587 -0.1321 -0.2205  0.2546
16775W        W37055   3.250  13.296  10.300 -0.3886 -0.4600  0.1636
16776W        W37056  17.669   0.551   1.474 -0.0298  0.1594  0.2082
16777W        W37057  14.830  10.777   0.255  0.0451  0.2185  0.3399
16778W        W37058  12.912   9.624  12.664 -0.1166  0.0861 -0.1460
16779W        W37059   1.006  16.863   0.378 -0.2834 -0.0377  0.0135
16780W        W37060  17.840  13.598  10.462 -0.0786 -0.1108 -0.3735
16781W        W37061   8.482   6.123  13.817 -0.1467 -0.1301  0.0261
16782W        W37062  15.698  13.381   2.593 -0.0332 -0.0697  0.1481
16783W        W37063  15.318  10.525   9.927  0.1467 -0.0923  0.0445
16784W        W37064  17.537  10.071  13.762 -0.0018  0.1331  0.0766
16785W        W37065  14.355   7.526  12.364 -0.1841  0.3428 -0.1762
16786W        W37066  18.766  18.748   1.106  0.0628 -0.1479 -0.2570
16787W        W37067  14.935   9.633   1.562  0.1296 -0.0319  0.4032
16788W        W37068  18.702  18.226  10.698 -0.4874 -0.0777 -0.2927
16789W        W37069  18.808  18.822   9.655 -0.1925 -0.0557 -0.2232
16790W        W37070  15.166   2.489  14.478 -0.0702  0.0261 -0.1283
16791W        W37071  12.783   4.677   1.952 -0.0863  0.4833  0.2972
16792W        W37072   4.161   6.653  12.437  0.0599 -0.0545  0.0557
16793W        W37073   8.373  16.148   2.719 -0.2877  0.0523  0.2432
16794W        W37074  17.838   0.072  11.621  0.0257  0.1397  0.1244
16795W        W37075   0.452   2.330  13.307  0.3186  0.0030  0.1279
16796W        W37076   9.280  10.643  11.151 -0.3405 -0.3751 -0.1286
16797W        W37077   9.837  18.316   2.543 -0.1873  0.1192  0.0070
16798W        W37078   1.682   6.506  10.752 -0.3157  0.0907  0.0982
16799W        W37079  16.621   3.378  12.415  0.0004 -0.1346 -0.1391
16800W        W37080   8.284   1.675   0.987 -0.2248  0.1977 -0.0058
16801W        W37081   4.543   3.908   1.083 -0.3539  0.2856 -0.3416
16802W        W37082  18.870   7.692   1.989  0.0911  0.0627  0.0603
16803W        W37083   4.972  11.655  10.109 -0.0363  0.3308  0.2889
16804W        W37084   8.559   3.415  10.839  0.3473 -0.1642 -0.1079
16805W        W37085   3.500  12.798  11.862  0.0273  0.0855  0.1558
16806W        W37086  13.896  16.963   3.967  0.1350 -0.0524 -0.0903
16807W        W37087  11.720   2.105  12.679  0.1514  0.1023  0.3070
16808W        W37088   8.497   7.462  11.109  0.2098 -0.2258 -0.2692
16809W        W37089   2.090   1.812   0.516 -0.1423  0.1401  0.3665
16810W        W37090  10.533  12.800  13.496  0.3295 -0.0860  0.3711
16811W        W37091  17.954  13.017   2.553 -0.0397  0.0991  0.1042
16812W        W37092   8.866  13.680   4.240  0.1576 -0.0400  0.3283
16813W        W37093  10.442   8.992   0.060 -0.0856 -0.1071 -0.0398
16814W        W37094   0.849   2.273   3.326 -0.0118  0.0506  0.0642
16815W        W37095   9.673   6.614   2.236  0.1750  0.0472  0.1496
16816W        W37096  11.188   7.735  12.135 -0.0522  0.4352  0.0699
16817W        W37097  15.141   9.977   1.223  0.0229  0.2267  0.0938
16818W        W37098   6.476  10.560   0.518  0.2757  0.4693  0.0690
16819W        W37099   0.155   3.786  10.785 -0.1917  0.1089 -0.0688
16820W        W37100   8.255   6.103  11.935 -0.2646 -0.0088  0.0975
16821W        W37101   5.488   3.879  12.869  0.1983  0.0152  0.2124
16822W        W37102  17.996  12.511  12.779 -0.1003  0.2255 -0.1091
16823W        W37103   5.885   2.402  10.798  0.1656  0.0770  0.0112
16824W        W37104  14.154   9.122  14.111  0.0461 -0.1048  0.0731
16825W        W37105  18.068  16.974  13.601 -0.2226  0.1497 -0.1728
16826W        W37106  13.145   4.310  14.228  0.1498 -0.1112 -0.2193
16827W        W37107  10.260  16.078   2.780  0.2401 -0.2466 -0.1490
16828W        W37108   1.703  14.964  12.234 -0.1901  0.1312  0.3016
16829W        W37109  10.717  15.700  10.230  0.0595  0.2170 -0.0565
16830W        W37110  17.249  10.394   2.284 -0.5786 -0.2299  0.3211
16831W        W37111  11.639   1.502  13.345  0.0562 -0.1834  0.3234
16832W        W37112  11.796   9.152   1.032 -0.1553  0.1424  0.1805
16833W        W37113   0.293   5.905   3.780 -0.2690 -0.1311  0.0975
16834W        W37114   4.379   9.473  11.353  0.1486  0.0613  0.1443
16835W        W37115  13.256   3.133  12.018 -0.1062 -0.1006 -0.1844
16836W        W37116  11.211  15.766   2.832 -0.1228 -0.0785 -0.2007
16837W        W37117  10.800  17.001   3.037 -0.4554  0.3596  0.3705
16838W        W37118  18.581  15.203  13.996  0.2243  0.0896 -0.0314
16839W        W37119  17.020  17.388   3.765  0.0446 -0.1556 -0.0383
16840W        W37120  14.415   9.680  12.406  0.3381  0.0812 -0.2206
16841W        W37121   7.309   6.911  11.036 -0.0064 -0.0675 -0.2675
16842W        W37122   4.448   8.249  13.254 -0.4703  0.0134  0.0093
16843W        W37123  11.103   7.388  11.071  0.0638 -0.2520  0.1533
16844W        W37124  11.663  17.215  11.902  0.1717  0.0289 -0.0424
16845W        W37125   0.246  16.822   1.235  0.0538 -0.4052 -0.2478
16846W        W37126  10.834   6.702   0.786 -0.0109  0.1060 -0.2118
16847W        W37127   9.051  14.527   9.756 -0.1005  0.1161  0.1077
16848W        W37128  13.559  14.323   2.296  0.1449  0.1652  0.0968
16849W        W37129   1.937  13.375   0.271  0.1795 -0.0100 -0.1573
16850W        W37130  15.068   4.903  12.882 -0.2080 -0.0450 -0.1450
16851W        W37131   1.495   2.022  10.487 -0.3229  0.2432  0.1102
16852W        W37132  11.947   1.609   3.634 -0.1506  0.0059  0.2962
16853W        W37133   1.172   6.826   0.886  0.0202 -0.0003 -0.0320
16854W        W37134  14.209   5.659  13.392 -0.4144  0.0307 -0.0474
16855W        W37135   1.712   3.772  14.234  0.0532 -0.1939  0.0590
16856W        W37136   3.755   1.949   0.178  0.3881  0.1392 -0.1187
16857W        W37137   6.639   0.636  12.280 -0.1826 -0.0567  0.0369
16858W        W37138  14.447  10.467   3.832  0.1558 -0.0422  0.0356
16859W        W37139   8.432   3.788  13.837 -0.0590  0.0030 -0.1292
16860W        W37140   3.517  13.834   2.218  0.2176  0.1064 -0.1279
16861W        W37141   5.564   6.454  14.163  0.1265 -0.0204  0.3639
16862W        W37142   6.029  15.809   0.439  0.1637  0.1177  0.2478
16863W        W37143   4.025  13.125  13.151 -0.0028  0.1019 -0.2823
16864W        W37144   3.857   4.115   3.305 -0.1133  0.0233  0.1480
16865W        W37145  13.990   5.550   0.369  0.1069 -0.2376 -0.0954
16866W        W37146  11.514   5.805   4.337 -0.2460  0.0925  0.2980
16867W        W37147   4.808   6.494   0.767  0.0229  0.1003  0.3097
16868W        W37148   0.076  14.835  14.412 -0.0980 -0.1584 -0.1205
16869W        W37149  16.989  16.142  13.650  0.1102 -0.0426 -0.5444
16870W        W37150   3.065   4.662  12.365 -0.0516 -0.1935 -0.0122
16871W        W37151  18.853   9.522   3.581  0.0963  0.2713  0.0442
16872W        W37152   8.951  12.020  13.760  0.4585 -0.2132 -0.1411
16873W        W37153  18.410  14.342  10.502 -0.1657  0.0205  0.3203
16874W        W37154   6.938  13.098  13.251 -0.0379 -0.3156 -0.0463
16875W        W37155  17.262  16.631   1.049 -0.0801  0.0729  0.1024
16876W        W37156  13.361   7.794  10.882  0.0477  0.0715  0.1297
16877W        W37157  17.261   2.587  11.678  0.1141 -0.3182  0.0991
16878W        W37158   0.821   5.919   2.463  0.1947 -0.0583 -0.1263
16879W        W37159   5.846  18.681  14.105  0.0358  0.1641  0.0016
16880W        W37160  14.721   5.289  10.745  0.1077  0.0718  0.0700
16881W        W37161   4.280   8.033  12.694 -0.0736 -0.2309  0.1554
16882W        W37162   7.093  12.978   4.894  0.1474 -0.0814 -0.1273
16883W        W37163  17.507  12.021  11.718  0.1460 -0.4088 -0.0676
16884W        W37164   3.403  17.659  10.813 -0.0507  0.1151 -0.0447
16885W        W37165   5.652   3.420  12.646 -0.1505  0.2408  0.2460
16886W        W37166   6.051   8.090   1.757 -0.0455  0.3973 -0.2901
16887W        W37167  12.991  11.010   4.991 -0.1893  0.3260 -0.1092
16888W        W37168   2.099   5.546   0.621  0.0493 -0.2070 -0.0560
16889W        W37169   1.941  16.806   3.259  0.0301  0.1239 -0.2606
16890W        W37170   7.541  10.094   1.976  0.2654  0.0178 -0.1188
16891W        W37171  13.905  10.720  12.066 -0.1354  0.0608 -0.1359
16892W        W37172  11.712  13.329   3.401  0.0292  0.2184 -0.2051
16893W        W37173  12.550   5.413   2.684 -0.1352 -0.2582 -0.1270
16894W        W37174  16.212   7.047   2.543  0.3050 -0.2083 -0.0274
16895W        W37175   8.765  15.857  13.747  0.2372  0.1689  0.2933
16896W        W37176  12.663  18.369  12.857  0.3460 -0.0753  0.2340
16897W        W37177  16.507   8.714  12.763  0.0146 -0.0560  0.1460
16898W        W37178   9.297  18.370   4.533  0.0362 -0.0074 -0.1011
16899W        W37179  17.163  13.226  11.431  0.1455  0.0288 -0.1823
16900W        W37180   0.961   8.653  12.324  0.1071  0.0177  0.2059
16901W        W37181   8.107   5.692  11.659 -0.2286 -0.0922  0.5257
16902W        W37182  19.077   3.427   1.467  0.2941 -0.3074 -0.3584
16903W        W37183  13.880  14.516  10.693 -0.0667  0.1717  0.2579
16904W        W37184  12.080  17.182   3.347  0.1078  0.0257  0.2067
16905W        W37185   5.168   1.381  14.499  0.1817 -0.1129  0.0051
16906W        W37186  16.022   8.642   1.694  0.2154  0.1152  0.0925
16907W        W37187  14.584   5.644   2.362 -0.0214  0.3794 -0.0608
16908W        W37188  13.286   2.175   3.733  0.2083 -0.4147 -0.0626
16909W        W37189  11.862  17.374  13.588  0.0349  0.4272  0.0807
16910W        W37190   5.629   7.649  12.842  0.0346  0.2310 -0.0230
16911W        W37191  18.684   8.886   2.362  0.2332  0.0743 -0.0831
16912W        W37192  10.364   7.898   0.773  0.2013 -0.0815 -0.1058
16913W        W37193  11.488  13.907   3.405 -0.1519 -0.2150 -0.0004
16914W        W37194   9.188  15.519   9.524  0.1008  0.1583  0.0047
16915W        W37195   2.312   5.084  11.729 -0.0638 -0.0119 -0.1922
16916W        W37196   5.764   5.670  14.401 -0.3080 -0.3338  0.2248
16917W        W37197  10.427  16.356  10.965 -0.2570 -0.2274  0.1641
16918W        W37198  14.300   0.858   3.948 -0.0602 -0.0589 -0.5395
16919W        W37199   2.162   7.367   3.482 -0.1289 -0.1746 -0.2089
16920W        W37200  13.233  12.960   1.529 -0.2024  0.2094  0.3220
16921W        W37201  13.420  10.386  13.757  0.2188  0.1837 -0.1068
16922W        W37202   5.888  16.995   3.303 -0.1746 -0.5210  0.1166
16923W        W37203   4.138  19.292   0.921  0.0343 -0.3892 -0.2946
16924W        W37204   2.713  12.339   2.659  0.1298 -0.1570  0.0428
16925W        W37205   3.082   9.772  13.438  0.2579  0.3209  0.2102
16926W        W37206   0.704  13.622   3.383 -0.0295 -0.1271 -0.1265
16927W        W37207   9.267  15.166   1.052  0.1676 -0.1104  0.1992
16928W        W37208   0.661  15.344   3.509  0.2262  0.2599 -0.0060
16929W        W37209  12.503  11.005  12.510  0.0408  0.3147 -0.0284
16930W        W37210   2.354  11.335  10.217 -0.1288 -0.1108 -0.4059
16931W        W37211  15.835   6.432  13.053  0.0394 -0.0021  0.2824
16932W        W37212   7.705  18.311  11.524  0.0745 -0.3244 -0.0057
16933W        W37213   4.637  15.249  11.874  0.1372  0.0182  0.2385
16934W        W37214  16.149   2.705  14.179 -0.0328 -0.1470  0.1275
16935W        W37215  18.167  17.081   2.393 -0.0667  0.0062 -0.2067
16936W        W37216  11.976  16.803  10.743  0.3322  0.0081  0.0561
16937W        W37217  11.188   4.960   3.261 -0.0246 -0.0039 -0.0157
16938W        W37218  18.838   8.643   3.364 -0.1891 -0.0444  0.0064
16939W        W37219   8.633   2.778   1.844 -0.1159  0.1954  0.0430
16940W        W37220   7.343   8.685   4.654 -0.0317  0.0371 -0.2628
16941W        W37221   7.608  19.281  12.813  0.0220 -0.3322 -0.0823
16942W        W37222   6.015   9.286   2.752  0.2015  0.1364  0.3132
16943W        W37223  17.278  14.217  13.594  0.0524  0.1171  0.0844
16944W        W37224  16.368   9.761  10.585 -0.1581 -0.1093  0.0971
16945W        W37225  13.675   5.582  11.398  0.0110  0.1743 -0.0235
16946W        W37226   9.867  15.046   1.881  0.0159 -0.0611 -0.3728
16947W        W37227  15.412  18.298  13.629 -0.0958  0.3592  0.0527
16948W        W37228   4.758  17.995   2.330  0.4752 -0.0709  0.0974
16949W        W37229  18.420   1.136   1.723 -0.2876  0.0967 -0.0909
16950W        W37230   5.601  15.781   1.672 -0.1096  0.0361  0.2261
16951W        W37231   9.084   3.017   2.219 -0.0586  0.0993  0.2268
16952W        W37232   7.984  11.343   0.770  0.1628  0.0516 -0.4559
16953W        W37233  19.267  18.633   0.603  0.3602  0.1492  0.3476
16954W        W37234  13.439   0.168  13.627  0.2166  0.0154  0.0154
16955W        W37235  13.181  17.692  14.051 -0.0232 -0.0505 -0.4697
16956W        W37236  17.199   5.555   1.101  0.1493 -0.0176 -0.1349
16957W        W37237   5.574  12.961  13.797  0.2149 -0.1694 -0.3777
16958W        W37238  17.146   2.388   2.986 -0.2621 -0.0742  0.2864
16959W        W37239  13.339   4.085  12.323  0.0629 -0.0481 -0.0823
16960W        W37240   6.014   0.652   1.025  0.1918 -0.3620  0.1197
16961W        W37241  18.401   1.499   1.067 -0.2965 -0.0444 -0.1792
16962W        W37242   3.928   8.726  13.860 -0.0016  0.1539  0.1260
16963W        W37243   8.054   1.785  11.468 -0.2275 -0.1074  0.0033
16964W        W37244   1.540  17.720   0.303  0.0987  0.2096  0.0318
16965W        W37245   8.901  14.192  14.447 -0.2418 -0.0581 -0.0015
16966W        W37246   5.151  10.169   0.216  0.1906  0.2156  0.0461
16967W        W37247   5.812   3.494   2.860  0.0523 -0.1137  0.4596
16968W        W37248  13.133   8.824   1.074  0.0256  0.0078 -0.0232
16969W        W37249  18.789  12.196   9.042 -0.2650  0.1076 -0.0201
16970W        W37250  15.163   3.569  13.982  0.3038  0.1544 -0.0224
16971W        W37251  18.890   9.985  13.458  0.0865  0.0649 -0.2261
16972W        W37252  12.165  17.416  11.920 -0.0670 -0.2943 -0.1367
16973W        W37253   9.072  16.409   1.500 -0.0471 -0.0489 -0.0054
16974W        W37254   3.598   5.559  11.647  0.0999  0.2442  0.1477
16975W        W37255   1.057  17.228   2.261 -0.3121  0.3034  0.2580
16976W        W37256  14.128  12.909   1.233 -0.0562 -0.1638 -0.2681
16977W        W37257  16.391   8.566  13.440 -0.0033  0.1729 -0.2437
16978W        W37258  15.469  13.998   2.685 -0.1579  0.0055 -0.2706
16979W        W37259   9.626   2.668  11.134  0.1487 -0.0495 -0.2036
16980W        W37260  12.087   3.026   1.156 -0.1043 -0.1423 -0.1037
16981W        W37261  16.988   3.366  10.288  0.1003 -0.1848  0.0288
16982W        W37262   8.163   8.961  12.588  0.2966 -0.0526 -0.3207
16983W        W37263   3.122  17.302  12.187  0.0365 -0.0111 -0.0792
16984W        W37264   9.131  14.140   3.640 -0.2678 -0.0504 -0.0197
16985W        W37265  11.684  16.266  14.291  0.2032  0.0626 -0.0982
16986W        W37266   4.664   0.347   2.542 -0.0139  0.0883 -0.1640
16987W        W37267   3.066  18.042   0.559  0.1425  0.1429 -0.0858
16988W        W37268  14.984   8.045  13.406  0.0878  0.0267 -0.1608
16989W        W37269   2.418  13.681   0.406  0.0398  0.1343  0.0488
16990W        W37270  14.565  10.159   1.842  0.0375  0.1763 -0.0509
16991W        W37271   1.743  17.712  14.282  0.1261 -0.0654  0.0937
16992W        W37272   4.602  15.225  12.495 -0.1051  0.0563  0.1495
16993W        W37273  16.011  17.238  10.785  0.2221 -0.1272  0.0017
16994W        W37274   3.014   8.384  14.441  0.0431 -0.0828  0.0335
16995W        W37275  18.187  16.740   9.809 -0.3561  0.1173  0.1945
16996W        W37276   2.360   6.904  14.079 -0.2560 -0.1646  0.1716
16997W        W37277  16.193   8.285   4.286  0.0409  0.0608  0.0624
16998W        W37278   3.599   1.282   1.697  0.1300  0.0560  0.1171
16999W        W37279  18.301   8.695  13.060  0.0923  0.1979  0.1970
17000W        W37280  15.294   6.150   9.730 -0.0244  0.0347  0.3901
17001W        W37281  13.746  15.399   1.850  0.1547 -0.0329  0.0792
17002W        W37282   4.790  11.638   3.043  0.0088 -0.3941  0.0614
17003W        W37283   8.780  11.412  11.141  0.2615 -0.3809 -0.2823
17004W        W37284  14.157   9.992   2.583  0.4632 -0.1625 -0.1544
17005W        W37285   7.411  14.172  11.022 -0.1083 -0.1196 -0.1420
17006W        W37286  15.069  18.116   0.364  0.1348 -0.0530  0.1883
17007W        W37287   0.522  17.447   4.449 -0.1498  0.0047  0.1626
17008W        W37288  13.884   3.842   2.398 -0.0311  0.1517 -0.0159
17009W        W37289   2.090   7.732   3.805  0.1044  0.1757  0.4093
17010W        W37290  10.110  19.178   3.555 -0.0949 -0.3846 -0.2692
17011W        W37291   7.747  13.282   3.649 -0.2685 -0.0606 -0.1559
17012W        W37292  10.901  17.731   0.518 -0.1199  0.0801  0.1234
17013W        W37293   7.263   5.216   2.370 -0.0643 -0.2133 -0.2725
17014W        W37294  16.156  17.184   3.710  0.1083  0.1203  0.2094
17015W        W37295  18.740   0.486  10.842  0.0311  0.2114 -0.2796
17016W        W37296   1.120   5.095   0.362 -0.1321 -0.0250  0.0106
17017W        W37297   7.634  18.451   1.179 -0.1721  0.1739  0.0500
17018W        W37298  12.328  10.771  14.349  0.2860 -0.0130  0.2226
17019W        W37299  10.389  16.557   0.983 -0.1600  0.1078 -0.0484
17020W        W37300  13.011   1.872   1.428  0.0019  0.0289  0.1219
17021W        W37301  14.990  12.315  14.065  0.0969  0.1537  0.2404
17022W        W37302  18.576   0.861   4.023 -0.1382 -0.1733  0.1261
17023W        W37303  10.169  12.287   0.769  0.0621 -0.1747 -0.0811
17024W        W37304  13.350   4.949   0.008 -0.0019 -0.3045  0.1199
17025W        W37305  14.619  11.858   1.415 -0.0095  0.2672  0.0277
17026W        W37306   5.904   4.864  13.945 -0.2089  0.0494  0.3028
17027W        W37307   6.358   9.262  10.662 -0.0306  0.0762  0.0979
17028W        W37308   4.034  16.633   3.221  0.0359 -0.4327  0.3279
17029W        W37309   0.126  16.873   3.713 -0.2529  0.1876  0.0727
17030W        W37310  16.783   9.090  10.306 -0.1059 -0.2139  0.1154
17031W        W37311   1.538   0.328  12.173  0.1498  0.4794  0.0247
17032W        W37312  18.891   8.079   0.874  0.0508  0.0214  0.0535
17033W        W37313   7.727   2.086  13.284  0.2457 -0.1176 -0.4346
17034W        W37314  10.918   5.537   3.945 -0.0034  0.3077 -0.2372
17035W        W37315  15.963   8.541   3.061 -0.2621 -0.0476 -0.1748
17036W        W37316   6.296  12.491   0.496 -0.1085  0.4264  0.0705
17037W        W37317   4.412  18.598  13.361  0.0624  0.2137  0.0844
17038W        W37318  17.407   5.312  10.754 -0.1685  0.1562 -0.0409
17039W        W37319   1.824  13.239   9.411 -0.0417 -0.3462  0.2591
17040W        W37320  14.108  14.746   2.682  0.0627 -0.0572 -0.1984
17041W        W37321  16.779  16.092  11.579  0.0740  0.1135  0.0985
17042W        W37322   0.788   4.936   0.905  0.0459 -0.1400 -0.2098
17043W        W37323  15.660   2.501   1.731 -0.3898 -0.1003 -0.0653
17044W        W37324  14.500   9.599  11.486 -0.1542  0.0947 -0.2088
17045W        W37325   7.161  13.791  11.976  0.4391 -0.0842 -0.0801
17046W        W37326  18.565  11.288  12.880 -0.1014 -0.0491  0.1696
17047W        W37327  19.376  12.097   0.318 -0.2660 -0.1920 -0.0557
17048W        W37328  13.781   5.237   5.499  0.0317  0.0467 -0.1237
17049W        W37329  16.952   6.990   2.277 -0.5016 -0.0361  0.0192
17050W        W37330   5.751   1.952   1.950 -0.0522 -0.0568  0.0810
17051W        W37331   5.218   1.147   1.421  0.1967  0.2620  0.0392
17052W        W37332  17.590   8.734   1.311 -0.1881 -0.0046  0.0133
17053W        W37333   1.416   7.459  14.481 -0.1291 -0.0999  0.0768
17054W        W37334  11.309   1.560   1.491  0.1186  0.2833 -0.1416
17055W        W37335   1.507   3.922   2.305 -0.0021  0.1339  0.1412
17056W        W37336   2.590  13.578  10.877  0.0663 -0.0608  0.1860
17057W        W37337  13.046   3.533   1.328  0.2578 -0.0415  0.1028
17058W        W37338  14.193   3.345  13.010  0.1252  0.0822  0.0995
17059W        W37339   9.250  10.729  11.671 -0.0875 -0.2780 -0.0475
17060W        W37340  11.828  16.893   2.377 -0.1353 -0.2883  0.1920
17061W        W37341   5.460   1.261  12.775 -0.0691 -0.0238 -0.1756
17062W        W37342   7.581   9.847  13.457 -0.1496 -0.0440 -0.1546
17063W        W37343  18.503   7.768   1.667  0.1329  0.1122  0.1746
17064W        W37344   2.455   1.204   0.659  0.1123 -0.3954  0.1192
17065W        W37345  18.625  14.619   3.710  0.0855  0.0143  0.0100
17066W        W37346   5.506  18.541   4.034 -0.1189 -0.1820 -0.2120
17067W        W37347  18.895   7.624  11.178  0.2190  0.1065 -0.0857
17068W        W37348   0.313   4.507   0.584  0.0090 -0.1865  0.1261
17069W        W37349   7.081  17.598   2.553  0.1702 -0.0154 -0.0877
17070W        W37350   2.078   6.786   1.361  0.1308  0.0973 -0.0272
17071W        W37351   7.028   2.683   4.483  0.2215  0.1101  0.4940
17072W        W37352  12.746  12.338  12.763 -0.0029  0.0937 -0.2888
17073W        W37353   2.375   2.486   1.245 -0.1531 -0.1310  0.0720
17074W        W37354  18.825   5.550  14.398  0.1122  0.1920 -0.0432
17075W        W37355   0.216  11.659  11.452  0.0761 -0.2294  0.1406
17076W        W37356  15.991  10.323   0.866 -0.0024  0.0735 -0.0084
17077W        W37357   9.960   0.752   1.540 -0.3591  0.0068 -0.0452
17078W        W37358   5.280   5.742   0.016  0.0082 -0.3680  0.1567
17079W        W37359   2.622   4.013   3.882 -0.3162  0.2724  0.3975
17080W        W37360   9.827  15.292  14.171 -0.0869 -0.1469 -0.1995
17081W        W37361   7.651  18.637  12.629  0.0070 -0.1194 -0.4147
17082W        W37362   4.240  16.628  10.553 -0.0626  0.4107 -0.2291
17083W        W37363  11.705  17.458   1.558 -0.1827  0.2278 -0.2959
17084W        W37364   8.398   5.932   0.666  0.3001 -0.0335  0.3226
17085W        W37365   7.343  12.027  11.975 -0.2108  0.0559  0.4186
17086W        W37366   8.807  15.851   2.810 -0.1653  0.3520  0.3146
17087W        W37367  11.518   2.596  12.621  0.3265 -0.3744  0.2878
17088W        W37368  15.361  15.848   1.887  0.0544 -0.1366  0.2194
17089W        W37369  11.488  15.877  13.330 -0.0361  0.1029  0.1341
17090W        W37370  13.147  18.085   4.385  0.3952  0.1428  0.0052
17091W        W37371  16.772   9.575  10.295 -0.2272 -0.0075  0.2198
17092W        W37372  16.173   2.469   0.552  0.0583 -0.2869  0.0725
17093W        W37373   9.933  10.747  10.392 -0.0012  0.0958  0.1565
17094W        W37374  15.461   1.457   2.631 -0.3025 -0.1557 -0.0795
17095W        W37375  18.531  12.380   1.178  0.1153 -0.1235  0.1162
17096W        W37376  12.566  15.692  10.737  0.4037  0.1841 -0.1211
17097W        W37377   9.071  12.925   5.294 -0.0675 -0.0849 -0.0056
17098W        W37378   5.674  15.479   1.227  0.0468  0.4786  0.3468
17099W        W37379   7.986  11.361   2.187  0.0196 -0.2539  0.0162
17100W        W37380   0.578  14.571   3.978  0.1561  0.0763 -0.1253
17101W        W37381  18.726   4.372   1.122  0.1034 -0.0845 -0.3170
17102W        W37382   0.120   8.902  11.759 -0.0736  0.2884 -0.0334
17103W        W37383  16.560   6.170  10.666  0.1134  0.3562  0.0385
17104W        W37384  15.277   9.476   2.453  0.0022  0.2976  0.0717
17105W        W37385  16.060   0.420  14.150  0.2173 -0.3042  0.2823
17106W        W37386   6.271   3.635  13.385 -0.1130 -0.4394  0.0556
17107W        W37387  14.735   4.870  14.402  0.5326  0.1041  0.0307
17108W        W37388  11.149   8.445   0.836 -0.1131  0.2871 -0.0127
17109W        W37389   0.530   2.808   2.928  0.3058 -0.3547 -0.1755
17110W        W37390   4.036  11.187   4.829 -0.4596 -0.1174 -0.1215
17111W        W37391   6.840   0.895   1.060  0.0812  0.0195  0.2598
17112W        W37392   7.309  10.601   3.189  0.1182 -0.0110 -0.1144
17113W        W37393   9.567  15.458   1.837  0.0188 -0.0123 -0.0139
17114W        W37394  18.846   1.843   0.302  0.0541  0.2461  0.0315
17115W        W37395   5.126   1.122  11.405 -0.2596  0.1222  0.2441
17116W        W37396  11.221   4.127   4.514  0.3163  0.2095  0.0846
17117W        W37397  10.695  19.032   9.639 -0.2592 -0.0178  0.2046
17118W        W37398  17.645   1.674  13.947 -0.1642 -0.1441  0.0036
17119W        W37399   4.611   5.638  14.383 -0.0447 -0.1236 -0.3916
17120W        W37400   9.954  14.018   0.838 -0.0244 -0.0086  0.1224
17121W        W37401  17.040   0.332   2.798 -0.2249  0.1029 -0.0738
17122W        W37402   5.485   6.885  13.379 -0.1005 -0.0125 -0.2172
17123W        W37403  18.173  15.229  13.443 -0.2542 -0.0782  0.2840
17124W        W37404   4.245  11.688  13.223  0.2237 -0.3188 -0.0706
17125W        W37405   6.625  10.375   1.791  0.1252  0.1407 -0.1463
17126W        W37406  17.701   2.250   2.852 -0.0790 -0.1932  0.2101
17127W        W37407   7.447   0.335  14.405  0.1290 -0.0217  0.2028
17128W        W37408  11.752  14.392   2.448 -0.0084  0.0845  0.0862
17129W        W37409  10.964   1.752   0.993  0.0005 -0.3143 -0.2057
17130W        W37410  12.257  10.691   3.005  0.0037  0.0941 -0.3900
17131W        W37411   6.121   2.824   3.576 -0.0946  0.1325  0.0489
17132W        W37412  18.185   0.538   4.030  0.0909 -0.1428 -0.4173
17133W        W37413  15.416  16.434   3.526 -0.1087  0.0571  0.0652
17134W        W37414   0.056  19.260   2.683 -0.2371  0.2036  0.2619
17135W        W37415   8.571  11.383   2.066 -0.0550 -0.1275  0.4434
17136W        W37416   9.053   0.934   1.310  0.1640 -0.2926  0.0740
17137W        W37417   1.787  12.376   0.189  0.1004  0.1322 -0.1972
17138W        W37418  10.940   1.468  11.533  0.0377 -0.0048  0.1151
17139W        W37419  11.626   3.855  11.993 -0.1908 -0.1095  0.2112
17140W        W37420  13.813  10.868   4.213 -0.1435 -0.2479  0.1633
17141W        W37421   3.514   5.262   2.420  0.4275 -0.1964 -0.0727
17142W        W37422   7.218   6.199   1.355  0.0698  0.1883  0.1851
17143W        W37423   8.107  17.749   0.075  0.0954  0.2155 -0.5058
17144W        W37424   8.468   2.851  14.184 -0.1963 -0.2632  0.1261
17145W        W37425   4.345  17.647   2.950  0.0948  0.0207 -0.0345
17146W        W37426   1.658   1.635   0.385 -0.1275  0.0596  0.1236
17147W        W37427  12.727   1.334  11.089 -0.2360 -0.0533  0.0533
17148W        W37428   4.835  19.017  13.230 -0.2197 -0.1327  0.1359
17149W        W37429  18.525   8.226  12.997 -0.0592 -0.2543  0.1979
17150W        W37430  18.911  19.040  14.102  0.0267 -0.0225  0.1941
17151W        W37431   2.117  17.118  12.013  0.1781  0.1763  0.1715
17152W        W37432  13.181  14.027   2.054 -0.1742  0.1862  0.0885
17153W        W37433  16.036   3.017   1.320 -0.3234  0.2984  0.1609
17154W        W37434  18.940  14.607  14.472  0.1256 -0.2731 -0.0604
17155W        W37435  15.284   3.060   9.619 -0.1415 -0.1488 -0.0276
17156W        W37436   1.095  16.721   2.053 -0.2093  0.3847  0.1109
17157W        W37437   0.940  14.185  11.330  0.2828 -0.1402 -0.0905
17158W        W37438   9.567   7.827   1.429 -0.0700 -0.1122  0.3048
17159W        W37439   1.929   0.945   4.364  0.0387 -0.2825 -0.1060
17160W        W37440   9.411   3.302  13.316 -0.0012  0.1458 -0.2174
17161W        W37441   0.851  11.455   2.783 -0.0867  0.1569 -0.0324
17162W        W37442  14.263  16.590   2.239  0.1474  0.1896  0.2575
17163W        W37443  18.937   6.047  14.325 -0.0876  0.1015 -0.1984
17164W        W37444   5.726   6.731   0.746  0.1848 -0.4118 -0.0801
17165W        W37445  10.396   3.198   4.270 -0.3973 -0.0467 -0.0009
17166W        W37446  13.740   4.416  12.301  0.1241  0.0853  0.1487
17167W        W37447   8.987  13.425  12.505  0.0362  0.4579 -0.2858
17168W        W37448   6.740  10.773   1.500 -0.1492  0.1679 -0.0730
17169W        W37449   5.897  11.240  11.140 -0.1730  0.1831  0.2496
17170W        W37450   2.008   8.632  11.339 -0.0865 -0.1454  0.0202
17171W        W37451  18.474   1.626  14.338 -0.2251 -0.0224  0.1156
17172W        W37452  14.108  12.435  12.827  0.0481 -0.1421 -0.1082
17173W        W37453  10.860  16.434   1.112 -0.4153 -0.0958  0.3193
17174W        W37454  18.544  12.931  11.739  0.4249  0.1970 -0.1938
17175W        W37455   0.176  15.111   3.445  0.1262 -0.0774  0.0549
17176W        W37456  10.321  12.733   1.928 -0.1893  0.1925  0.0659
17177W        W37457   5.075   6.073   3.413  0.1918 -0.1444  0.1859
17178W        W37458   2.775   2.119  11.460  0.2062 -0.0940 -0.1164
17179W        W37459  17.361   8.037  12.880 -0.0836 -0.1326  0.1137
17180W        W37460  14.736   7.175  13.586 -0.2765 -0.3515 -0.0204
17181W        W37461  13.194  17.191   0.407  0.0168  0.4463 -0.1493
17182W        W37462  12.634  18.708  10.864  0.4728  0.1403 -0.3318
17183W        W37463   8.224  10.540   0.776  0.0822 -0.2814 -0.0663
17184W        W37464   7.571  18.896   2.265  0.0103  0.2963  0.0926
17185W        W37465  16.587  11.816   3.236 -0.2137 -0.0142 -0.0807
17186W        W37466   5.120   8.649  10.944 -0.1550 -0.1685  0.0133
17187W        W37467   7.990  18.947  12.758  0.1180 -0.0769 -0.1508
17188W        W37468   8.217  16.138   3.622  0.0614 -0.1856 -0.0434
17189W        W37469  11.402  15.186  12.754  0.0179 -0.1419  0.0492
17190W        W37470  13.257   7.715  11.700  0.1351 -0.0192  0.1368
17191W        W37471   3.028   8.986  13.934  0.5902 -0.1282  0.4383
17192W        W37472   4.512  13.955   3.728 -0.1256  0.0042  0.1120
17193W        W37473  12.373   3.730   9.982  0.0727 -0.2269 -0.0868
17194W        W37474   6.701  12.876  11.608 -0.0578  0.0123  0.2015
17195W        W37475  17.836  12.686  13.742 -0.2967  0.0255  0.0002
17196W        W37476  15.128  10.841  10.237 -0.3534 -0.0900  0.1112
17197W        W37477  17.716  10.250   2.492 -0.3771 -0.2677  0.1699
17198W        W37478  11.948   2.166  11.411 -0.2625  0.0583  0.2531
17199W        W37479   7.056   7.011   1.483  0.0179 -0.1690  0.0556
17200W        W37480   1.815  11.316   3.155  0.3745  0.1691  0.0689
17201W        W37481   2.061  11.833  10.248 -0.0736 -0.2952  0.1421
17202W        W37482  12.872  13.474  13.571  0.2139 -0.0225 -0.1948
17203W        W37483  17.861   7.031   0.378 -0.0969 -0.0472  0.2205
17204W        W37484  18.687   9.567  12.751 -0.0786  0.1095  0.0071
17205W        W37485   4.651  10.067  13.800 -0.1692  0.1439 -0.1051
17206W        W37486   4.015   2.145   2.726  0.2308 -0.0320 -0.1154
17207W        W37487  14.154  19.368  14.335  0.1170  0.1026 -0.2088
17208W        W37488   4.288  14.008  13.634 -0.0669  0.0246  0.0625
17209W        W37489   7.719   8.002   2.137 -0.2417  0.1475 -0.0681
17210W        W37490   6.160  15.196  13.568 -0.0045 -0.1068 -0.0981
17211W        W37491  10.082  15.869   2.367 -0.2595  0.0613 -0.1199
17212W        W37492   3.598   8.703   3.735  0.1802 -0.1279 -0.0252
17213W        W37493  12.213  15.268  10.824 -0.1915 -0.1674 -0.1375
17214W        W37494  18.093   8.795  13.748  0.2818 -0.0340 -0.0422
17215W        W37495   2.938  12.028   0.871 -0.1596  0.1351 -0.0031
17216W        W37496   5.206   6.240   2.851 -0.0459 -0.0676 -0.1435
17217W        W37497  10.710  10.494  13.204  0.0303  0.3562 -0.2131
17218W        W37498   0.043  18.248   1.496 -0.2272 -0.0574  0.1101
17219W        W37499   9.653   1.146  11.403  0.0312  0.0443  0.2394
17220W        W37500   3.893  13.925  13.318  0.1154 -0.0204  0.2050
17221W        W37501   5.877   5.492  13.956 -0.0683  0.0213  0.3072
17222W        W37502   6.476  15.963  13.355 -0.3878 -0.2428  0.0666
17223W        W37503  13.596  13.908   0.145 -0.2671 -0.0037  0.1403
17224W        W37504  19.071  11.359   2.584 -0.3591  0.1640  0.4444
17225W        W37505   2.801  14.579  12.778  0.0334 -0.0726  0.0394
17226W        W37506  18.291  14.043   2.031 -0.2604 -0.0739  0.1042
17227W        W37507   9.319  18.525   1.427 -0.1128 -0.0232 -0.2278
17228W        W37508   7.250  15.778  12.727  0.1615  0.0032 -0.1781
17229W        W37509   8.775  11.471  11.690  0.2503  0.2595  0.0646
17230W        W37510   4.439   4.952  11.657 -0.3242  0.3020  0.2279
17231W        W37511  11.143   5.489   4.581  0.0754  0.1200  0.1141
17232W        W37512  18.585  16.095   2.059  0.0379  0.0854  0.0984
17233W        W37513   4.040   2.286  14.392 -0.1394 -0.1686 -0.0729
17234W        W37514   8.174  16.148  10.813  0.3392 -0.0001 -0.1170
17235W        W37515   7.255   1.288  13.422 -0.0991 -0.1808 -0.0222
17236W        W37516   1.879   1.034  10.580 -0.3277 -0.0539 -0.3159
17237W        W37517   1.711  15.183   0.946 -0.0521 -0.1179  0.1262
17238W        W37518   9.709   2.637   0.788  0.0839 -0.1813  0.0519
17239W        W37519  13.381   6.216   3.182  0.0404  0.2236  0.1028
17240W        W37520   6.760   1.271   0.474 -0.1115 -0.0552 -0.0732
17241W        W37521  11.737  12.267  12.247 -0.1959 -0.0384  0.2085
17242W        W37522   9.073  16.967   3.412 -0.1270  0.3554 -0.1673
17243W        W37523   3.034  13.321  12.270 -0.0387 -0.2652 -0.3447
17244W        W37524   6.778   9.753  12.575  0.0405  0.1721  0.0267
17245W        W37525  16.078  12.629   2.054 -0.1372  0.0442  0.1299
17246W        W37526  16.601   5.939  14.254  0.0488 -0.2041  0.0580
17247W        W37527  17.010   2.551  13.688 -0.3154 -0.0691  0.1320
17248W        W37528  11.558  12.630  13.172 -0.3525 -0.2703 -0.0753
17249W        W37529   5.047   5.401  11.886 -0.1657 -0.1335 -0.1155
17250W        W37530   7.757  14.260  11.350  0.1061  0.1308 -0.0054
17251W        W37531  14.403  10.394  13.040 -0.1936 -0.0056  0.4994
17252W        W37532  17.569  11.267   3.208  0.1138  0.3180 -0.0846
17253W        W37533   4.867   9.805  14.404  0.1692  0.0993  0.2213
17254W        W37534   6.326  19.202   3.471  0.1334  0.1019  0.2910
17255W        W37535   2.802  11.092   0.391 -0.0060 -0.0936  0.1431
17256W        W37536   7.132  11.125   0.267  0.0434  0.0012 -0.2039
17257W        W37537  17.237  16.730   2.864  0.1739 -0.0254 -0.1424
17258W        W37538   2.742  19.203  11.731  0.1522 -0.0288  0.2057
17259W        W37539  16.113  13.137   1.094  0.0173 -0.0122 -0.0867
17260W        W37540   1.594  10.912   2.870 -0.1942  0.2377  0.2948
17261W        W37541  14.304  15.741  12.058 -0.1795 -0.0475 -0.1472
17262W        W37542   0.619  17.647  11.396  0.0981 -0.1002 -0.0112
17263W        W37543  11.826  17.030  10.295  0.2930  0.0458 -0.0338
17264W        W37544  11.593   2.822   0.694 -0.0496 -0.0720  0.2610
17265W        W37545   1.439  11.317  11.314  0.0298 -0.0313  0.1286
17266W        W37546  12.449  19.034  13.201  0.0251  0.1125  0.1082
17267W        W37547   6.641  15.647  11.907  0.2370  0.1069 -0.1302
17268W        W37548   6.637   0.105   1.168  0.2295 -0.0438  0.0229
17269W        W37549  19.195  13.845  11.936 -0.4371 -0.0365  0.0548
17270W        W37550   0.768   1.567  13.822  0.0295  0.2518  0.0686
17271W        W37551  10.621   5.130   3.020 -0.0883 -0.0234 -0.0322
17272W        W37552   6.708   2.889   9.455 -0.0414  0.0306 -0.1103
17273W        W37553  15.189  19.179  11.449 -0.0077 -0.0249 -0.2386
17274W        W37554  12.279  16.314  12.839 -0.0291 -0.0777  0.2705
17275W        W37555  10.312  12.878   2.417 -0.0897 -0.0782  0.0980
17276W        W37556  14.332   5.846   1.509  0.0246 -0.1013 -0.1237
17277W        W37557   5.867   8.253  10.901 -0.0878  0.0000 -0.2663
17278W        W37558  15.641   0.854   3.980  0.1176  0.2637  0.3044
17279W        W37559  14.965  19.133  12.461  0.0097 -0.1470  0.0730
17280W        W37560  16.341  10.589  14.145 -0.0330 -0.3191  0.3292
17281W        W37561  13.642   5.845   0.226  0.2955  0.2029  0.1929
17282W        W37562   8.868   4.087   3.893  0.0780 -0.0020 -0.2833
17283W        W37563   2.317  11.493  12.563 -0.1184 -0.0441 -0.0192
17284W        W37564   5.271   5.151   4.285  0.1460 -0.1480  0.3898
17285W        W37565   4.823  18.962   0.082 -0.1401 -0.0105  0.0055
17286W        W37566   4.831   5.051   1.611  0.0733 -0.1192  0.1300
17287W        W37567   9.118   4.289   2.864  0.1615  0.0553 -0.0136
17288W        W37568   3.776   4.842  11.006 -0.0942  0.1478 -0.3761
17289W        W37569   8.687   3.903  12.813  0.0570 -0.0986 -0.0473
17290W        W37570  12.346   7.127  12.344  0.0923  0.1510 -0.1614
17291W        W37571  15.345   5.058   0.907 -0.3858  0.0897 -0.2521
17292W        W37572   5.336  11.328  10.367 -0.0793  0.1158  0.3087
17293W        W37573  18.596   4.239   1.766 -0.2520 -0.1082  0.1466
17294W        W37574  18.882   0.030  13.701 -0.2610  0.1542 -0.1673
17295W        W37575   8.698   7.971  13.552  0.0868  0.0445 -0.1344
17296W        W37576  18.206  12.299   9.794  0.1212  0.1833  0.2504
17297W        W37577  16.008   1.230   4.158  0.1168 -0.2643  0.1715
17298W        W37578   6.771   4.939  11.405  0.2246 -0.1986 -0.2585
17299W        W37579   2.338  11.793  11.109  0.0831 -0.1901  0.3287
17300W        W37580   6.796   4.712  11.850 -0.0050  0.3670  0.1376
17301W        W37581  18.762  14.853   4.149 -0.1627  0.0363  0.1192
17302W        W37582  15.154   6.769  10.544  0.1345  0.1036  0.2944
17303W        W37583  15.998  17.031  10.349  0.4062  0.0799  0.1169
17304W        W37584   5.608  18.791   4.437 -0.0491  0.2724  0.3726
17305W        W37585  10.820   3.263  11.158 -0.2259 -0.0205 -0.3363
17306W        W37586   2.636  12.123  11.987  0.5461  0.0269 -0.0770
17307W        W37587   5.993  10.105  10.526 -0.1414 -0.0861  0.1442
17308W        W37588  18.657   0.300   1.082 -0.4780 -0.3175  0.0850
17309W        W37589   4.068  11.751  11.839  0.0864  0.0933  0.0207
17310W        W37590   8.610   0.876   0.008  0.1799 -0.1748  0.3948
17311W        W37591  11.214   4.784   0.950  0.2784  0.0459 -0.3146
17312W        W37592   1.015   4.582  14.093 -0.1639 -0.2087 -0.0878
17313W        W37593   2.335  11.869   1.650  0.2510  0.0016  0.5265
17314W        W37594   3.727   6.533   0.297  0.0530  0.0510  0.1078
17315W        W37595  13.095  17.879   1.422 -0.3108 -0.0232 -0.2821
17316W        W37596   3.227  16.665  11.634 -0.0300 -0.1812  0.2499
17317W        W37597  13.948  17.307   3.011  0.2951  0.1978  0.0526
17318W        W37598  15.652   9.107   3.663 -0.0786  0.2817  0.0075
17319W        W37599   9.481   9.806   0.674  0.0568 -0.0248 -0.0355
17320W        W37600  14.348   1.199   2.856 -0.0413  0.0186  0.2286
17321W        W37601  10.596   1.190  11.854 -0.0111 -0.0590  0.1852
17322W        W37602   1.950  13.028  10.950 -0.1036 -0.2209  0.0522
17323W        W37603  18.591   8.018   3.547  0.1949 -0.1688  0.2404
17324W        W37604   6.276  16.623   4.222 -0.1188 -0.3302 -0.2960
17325W        W37605  18.725  19.141  13.191  0.1706 -0.2447 -0.3076
17326W        W37606  13.391  16.040   1.175 -0.1038  0.0763 -0.2996
17327W        W37607  18.290  12.571   0.737 -0.0144 -0.1246 -0.0362
17328W        W37608   9.314  18.214  10.694  0.0435  0.0667 -0.0595
17329W        W37609   8.045   5.140  12.280 -0.3905 -0.1358  0.2943
17330W        W37610   3.845  14.057  12.126 -0.1484 -0.1202  0.3973
17331W        W37611   6.013   2.368  13.673  0.0983  0.1128 -0.3858
17332W        W37612  16.448   3.824  13.846  0.1614 -0.2202  0.0852
17333W        W37613  13.037   7.783   0.984 -0.2652 -0.2100  0.1066
17334W        W37614  18.294  18.831  12.998  0.1666  0.0334  0.1938
17335W        W37615   0.705   5.242  10.902  0.3247  0.2956  0.3911
17336W        W37616  13.334  11.184   2.345 -0.1721  0.3342 -0.0860
17337W        W37617   9.818  12.202  10.945 -0.0419  0.0052 -0.2850
17338W        W37618  14.983   3.821  13.592  0.0279 -0.0046  0.0307
17339W        W37619  18.607   4.301  14.108  0.0221  0.0976 -0.3526
17340W        W37620   2.207  15.386   2.093  0.3251 -0.2005  0.1840
17341W        W37621  13.827  17.394  12.680  0.1860  0.4155 -0.2848
17342W        W37622  12.699   6.382   0.547 -0.1621  0.2509 -0.0482
17343W        W37623   6.173  14.401  14.078  0.0387  0.0758  0.0835
17344W        W37624   7.356   4.858  14.495 -0.0023  0.0261  0.0534
17345W        W37625  18.571  12.882  12.643 -0.0219 -0.1560  0.0451
17346W        W37626   7.700   1.205   3.919  0.0586  0.1919 -0.0033
17347W        W37627   4.423  18.212   1.905 -0.0575  0.1235 -0.3073
17348W        W37628  18.364  18.252   4.525  0.0081 -0.0377  0.0843
17349W        W37629   0.282   6.920  10.331  0.1001 -0.3548  0.0206
17350W        W37630   8.558  14.801  10.206 -0.4344 -0.1978  0.1576
17351W        W37631   1.144   2.846  12.950  0.1600 -0.0695  0.4116
17352W        W37632   6.412  10.647   4.359 -0.1078  0.4035 -0.0747
17353W        W37633   1.810   6.847  14.176 -0.2663 -0.0978 -0.4042
17354W        W37634   8.455   5.206  11.362 -0.0226  0.2643 -0.3621
17355W        W37635  17.404  16.086  10.641 -0.1360 -0.1524  0.3219
17356W        W37636  16.299  10.094   2.943 -0.0894  0.6401 -0.1238
17357W        W37637   5.742   8.741   2.408 -0.0924 -0.0874  0.2270
17358W        W37638   9.689   0.138   3.962 -0.3341 -0.1715  0.1939
17359W        W37639  16.578  16.629  13.516  0.1967 -0.2711 -0.3428
17360W        W37640   7.834   4.465   1.149 -0.1350 -0.0998  0.1673
17361W        W37641  13.354  15.803  11.198 -0.0099  0.1015  0.0804
17362W        W37642  14.055  13.369   0.389  0.1147 -0.2791 -0.1865
17363W        W37643   7.326  14.826   2.823 -0.2340  0.1028 -0.1301
17364W        W37644  12.687  14.938  12.803 -0.1864  0.0427 -0.2808
17365W        W37645   0.890   5.269   2.041 -0.3522  0.0811  0.1306
17366W        W37646  11.436   3.865  14.299 -0.0351 -0.0070  0.1923
17367W        W37647   3.114   6.393   1.226 -0.0772 -0.1156 -0.2374
17368W        W37648   0.516   8.383  11.027  0.1729  0.1504  0.1732
17369W        W37649  11.412  12.340  11.205 -0.2618  0.2458 -0.2525
17370W        W37650  18.234   9.771  13.633  0.2338  0.1648  0.3848
17371W        W37651  15.509   7.393  14.460  0.1722  0.0087  0.0461
17372W        W37652  16.874   5.975   0.504  0.1188 -0.1569  0.1872
17373W        W37653  13.342   5.931   2.394 -0.2580  0.1563 -0.0701
17374W        W37654   7.642  10.541   0.670 -0.3815  0.0777 -0.1226
17375W        W37655  10.981  10.547  12.513 -0.0555 -0.0795  0.2697
17376W        W37656   5.061   0.599   2.347  0.1713  0.1031  0.2517
17377W        W37657   7.607   8.916  12.548  0.3450 -0.1139  0.1556
17378W        W37658   7.384  11.115  10.996  0.0402  0.2300 -0.0265
17379W        W37659  15.317   9.118   1.477  0.0032  0.2196 -0.1395
17380W        W37660   2.843   2.408   0.419 -0.0404  0.1261  0.1310
17381W        W37661   8.985   2.721   3.105  0.1896  0.2084 -0.1017
17382W        W37662  15.359  11.999  10.895 -0.2071  0.0241  0.1941
17383W        W37663  18.895  12.564  13.020  0.0828 -0.0218  0.4774
17384W        W37664   6.605   3.571   4.666  0.0142  0.0501  0.1712
17385W        W37665  16.069   1.673  12.492  0.1639  0.0457  0.0360
17386W        W37666   5.718  13.894  12.996  0.0128 -0.2166 -0.2051
17387W        W37667  12.210  10.354   2.010 -0.0556  0.1060  0.0145
17388W        W37668   4.159  13.073   0.712  0.1887 -0.1061  0.1811
17389W        W37669   5.313   3.563   2.429  0.0831  0.1264 -0.1363
17390W        W37670   8.628   7.203   1.997 -0.2977 -0.1501  0.3669
17391W        W37671   5.590   3.157  13.465 -0.0725 -0.0834  0.2325
17392W        W37672  12.133   7.180  10.923 -0.0551 -0.0884  0.1452
17393W        W37673   4.891   9.416   1.463 -0.2517 -0.2935  0.1850
17394W        W37674   5.813   4.329  10.111 -0.0842 -0.0146  0.0662
17395W        W37675  12.558   9.474  14.396  0.2018 -0.0770  0.0364
17396W        W37676  14.946  19.422   4.540  0.1741 -0.1714  0.0518
17397W        W37677   4.826   2.403  14.427  0.1823  0.1008  0.0745
17398W        W37678   9.411   9.937  10.579 -0.2402  0.0579 -0.0276
17399W        W37679   6.563  14.402   1.924  0.2097  0.0871  0.4696
17400W        W37680  17.629  16.130   3.365 -0.2128 -0.0246  0.1941
17401W        W37681  13.127   1.367  14.270 -0.1345  0.1807 -0.0889
17402W        W37682   5.308   5.374  13.302  0.1782 -0.2052 -0.0290
17403W        W37683  16.797  11.219  10.537 -0.2066  0.0796 -0.3509
17404W        W37684   9.549  13.266   9.588  0.0794  0.2989  0.3469
17405W        W37685   2.415   4.628  11.727  0.0539 -0.0075  0.0213
17406W        W37686  13.658  12.454   3.491 -0.1196  0.1864 -0.1970
17407W        W37687   2.243  11.865  13.935  0.0593  0.2143  0.1671
17408W        W37688  11.751  15.325   0.149 -0.3788 -0.0688  0.1884
17409W        W37689  15.566   7.497   1.085  0.0708  0.0614 -0.1124
17410W        W37690   9.405  13.559  11.622 -0.1424 -0.0647  0.0267
17411W        W37691   7.528  12.818  12.557 -0.2934 -0.0263 -0.1605
17412W        W37692  19.034   7.532   2.416 -0.1323 -0.6717  0.2999
17413W        W37693  14.070  13.057   1.845 -0.1832  0.0407  0.0001
17414W        W37694  19.208  11.825   0.767  0.4171 -0.0489  0.0833
17415W        W37695  17.530   2.530   0.803 -0.0022  0.2407  0.0144
17416W        W37696  13.834   3.724  14.254 -0.2730  0.0052 -0.4284
17417W        W37697   5.948  18.949   3.854 -0.1100  0.0133  0.1862
17418W        W37698  17.639  14.903   2.365 -0.0174  0.0284  0.0618
17419W        W37699   4.383   4.530   1.235 -0.0970 -0.0002  0.2687
17420W        W37700  13.860   7.524   2.757  0.0486 -0.3778  0.1848
17421W        W37701  15.364  13.065  11.782 -0.0636  0.3495  0.2169
17422W        W37702  16.172  10.189   0.005  0.1046 -0.0603 -0.0149
17423W        W37703   0.733   9.739  11.273  0.0347  0.2225  0.0575
17424W        W37704   0.885   8.036   3.904 -0.1024  0.0516  0.1068
17425W        W37705   7.879  15.170  13.336 -0.0331  0.2374  0.1453
17426W        W37706  13.632   6.749  14.330  0.0455  0.1837  0.3134
17427W        W37707  11.132   9.759   0.625 -0.0076 -0.0067 -0.1084
17428W        W37708   2.152  19.274   3.225  0.0864 -0.0429  0.0895
17429W        W37709   4.991   4.858  12.955 -0.2853  0.0806  0.0391
17430W        W37710  13.415  11.305  11.404 -0.1897  0.2386 -0.0038
17431W        W37711  13.479  18.289  11.705  0.1795  0.1440  0.1138
17432W        W37712   3.538   5.474  13.683 -0.1554 -0.2513  0.0321
17433W        W37713  18.775   0.540   3.699 -0.0747 -0.4773  0.0441
17434W        W37714   9.597  15.709  10.755  0.0034 -0.0535 -0.0129
17435W        W37715   3.199   8.380   0.633  0.2368  0.0020 -0.0599
17436W        W37716  16.879   4.493  12.616  0.1271  0.3260  0.2318
17437W        W37717  18.818  11.757  11.302 -0.1013  0.0941 -0.2997
17438W        W37718  10.292   8.727  10.592  0.2160 -0.3790  0.1740
17439W        W37719   2.688   7.259   1.741 -0.1160 -0.0644 -0.1800
17440W        W37720  16.334  18.664  12.619  0.0946 -0.2066 -0.0416
17441W        W37721  10.027   3.034   1.726 -0.2425  0.0647 -0.2342
17442W        W37722   4.567  13.295  13.672 -0.2974 -0.1565 -0.0634
17443W        W37723   9.711   0.859   0.192 -0.0417 -0.3044 -0.1406
17444W        W37724   1.353  12.305  11.083 -0.1072 -0.0405  0.0427
17445W        W37725  16.611  11.595  13.814  0.0377 -0.0529  0.3101
17446W        W37726   7.686  19.314   0.645 -0.0728  0.0241  0.0273
17447W        W37727   7.365  13.908  13.469 -0.0665  0.0861 -0.0747
17448W        W37728  12.890   0.082   1.785 -0.0503 -0.1141  0.1041
17449W        W37729   6.194  18.918   0.453  0.3389  0.3649 -0.2307
17450W        W37730  15.188  17.704  12.191 -0.0738 -0.1262  0.1648
17451W        W37731   2.267  18.681  12.682  0.2697  0.3570 -0.4009
17452W        W37732  17.814   3.758   0.150 -0.0676 -0.0743 -0.0767
17453W        W37733   4.196  18.166  13.910 -0.0425 -0.1544 -0.2514
17454W        W37734   5.706  12.484  14.151  0.0135 -0.5063 -0.0997
17455W        W37735  12.975  16.639  14.438 -0.3841  0.1832  0.3888
17456W        W37736  18.597  18.184  14.098  0.0062  0.0825  0.0974
17457W        W37737  12.817   0.150   3.771  0.0521 -0.1117  0.1728
17458W        W37738  15.663   3.575  11.484 -0.2910  0.2799  0.2257
17459W        W37739   8.969   1.061  14.201  0.2643 -0.0227 -0.0593
17460W        W37740   7.686   3.109  13.355 -0.3072  0.2058  0.1402
17461W        W37741   7.040   3.551   2.667 -0.1898 -0.2292  0.1553
17462W        W37742  11.443   4.360  14.283 -0.1069 -0.3389 -0.1591
17463W        W37743  18.548   5.512  10.650  0.0934 -0.2914 -0.1380
17464W        W37744  15.401  10.436  12.061  0.2555 -0.2939  0.0923
17465W        W37745  17.246   6.122   2.305  0.1165 -0.2237 -0.1912
17466W        W37746   7.864  17.054  12.951 -0.2574 -0.1047 -0.2717
17467W        W37747   6.665  11.196  13.099 -0.0425  0.3465  0.1091
17468W        W37748  10.640  13.015   0.938  0.0862 -0.0392 -0.1574
17469W        W37749   3.224   4.253   3.587  0.0537 -0.2661 -0.2184
17470W        W37750   4.193   3.704  13.521 -0.1402 -0.2101 -0.2671
17471W        W37751   4.835   9.988  12.895 -0.0659  0.0321  0.2326
17472W        W37752   2.768   6.621   2.158 -0.1096  0.2190 -0.4564
17473W        W37753  15.091   5.676   2.408  0.2591  0.0492 -0.1100
17474W        W37754  15.293   6.751   4.283 -0.1733  0.3372  0.0188
17475W        W37755   1.167   8.229  11.955  0.1647  0.3753  0.2014
17476W        W37756  10.878  15.876  14.306  0.3860 -0.2385  0.0269
17477W        W37757   4.376   2.564  14.201  0.1806  0.0302 -0.1563
17478W        W37758   1.596   6.400  13.231 -0.2314 -0.2916  0.6597
17479W        W37759   6.453   2.217  14.415 -0.1067 -0.1065  0.0503
17480W        W37760  14.852  13.920   3.217 -0.1634  0.3106  0.2386
17481W        W37761   6.377   2.238   0.939  0.0937 -0.2901  0.1965
17482W        W37762  16.843  18.151   2.741  0.0264  0.2332 -0.2297
17483W        W37763   0.396   1.973   0.572 -0.0546  0.1283 -0.3273
17484W        W37764   4.436   6.762   3.038  0.0296 -0.0754  0.2569
17485W        W37765   2.882   5.254  14.291 -0.3473  0.1358  0.1649
17486W        W37766  15.180  14.672   0.612 -0.1385 -0.0290 -0.1855
17487W        W37767   9.844   1.507  13.864 -0.0511 -0.0083  0.0017
17488W        W37768  18.438  19.015  12.565 -0.1053  0.0683  0.0991
17489W        W37769   7.559   6.156  14.287  0.0815 -0.2060  0.2004
17490W        W37770  16.194   3.020   0.435 -0.0821  0.1496 -0.1352
17491W        W37771   6.752  12.803  14.244  0.1099 -0.0780 -0.1036
17492W        W37772   2.195  19.056   1.615  0.3822 -0.2481  0.0344
17493W        W37773   0.526   3.827   5.414  0.0517 -0.2416  0.0314
17494W        W37774   8.831  16.131   2.413 -0.1036  0.1069 -0.0200
17495W        W37775   5.685  12.058  12.900  0.2247 -0.1571  0.1643
17496W        W37776   2.070   9.786   0.454  0.1034  0.2347 -0.2593
17497W        W37777   8.490   8.339  10.684 -0.2188  0.1640  0.0837
17498W        W37778   4.071   6.584   1.319  0.1733  0.0018 -0.0352
17499W        W37779  11.530  16.891  11.505 -0.0206  0.1860  0.1012
17500W        W37780   9.723   2.565   1.794  0.0744  0.3198 -0.1562
17501W        W37781   3.057   0.466  12.402 -0.0540  0.0815 -0.1776
17502W        W37782  19.282  17.212  12.277  0.1394  0.3077  0.0192
17503W        W37783   1.357  17.898   3.361  0.1976 -0.0416  0.2365
17504W        W37784  16.782  16.762  11.770 -0.0292  0.2810 -0.1217
17505W        W37785  10.655   7.121   1.022  0.0297 -0.0618 -0.0172
17506W        W37786   2.147   5.767   4.077  0.3704  0.1719  0.1166
17507W        W37787   5.457   6.450  11.681 -0.2884 -0.0677 -0.0164
17508W        W37788   2.896   7.161  12.433 -0.3496 -0.0248  0.1142
17509W        W37789  18.678  15.044   0.148  0.2891 -0.0980 -0.0358
17510W        W37790  14.825  17.418   3.990  0.0159  0.4415  0.1418
17511W        W37791  10.801  14.178  13.300  0.1517  0.2228  0.0328
17512W        W37792  17.822   5.644   0.353 -0.1231  0.0654 -0.1171
17513W        W37793   2.566   6.865  12.298  0.2880  0.2375  0.2053
17514W        W37794   6.754   3.959  14.217  0.4131 -0.3189 -0.3334
17515W        W37795  17.946  10.438  14.091 -0.2603 -0.0959  0.1468
17516W        W37796  13.186   3.507   0.073  0.0086 -0.0656 -0.1608
17517W        W37797   1.762  12.556  11.813 -0.3321  0.1920  0.0996
17518W        W37798   3.681   9.040  10.327 -0.0351  0.3046 -0.2716
17519W        W37799  13.109   8.210   1.880  0.0603 -0.0623 -0.1795
17520W        W37800   9.031   8.011  10.775 -0.1977  0.2525 -0.1021
17521W        W37801  15.025  10.039  12.355 -0.2402 -0.1451 -0.1688
17522W        W37802   5.224   4.263   3.267 -0.0181  0.2560  0.0210
17523W        W37803   0.940  18.517   2.816  0.1905  0.1401  0.0066
17524W        W37804  19.116   4.788   2.748  0.1783  0.1050 -0.1772
17525W        W37805   2.025   3.059  12.815 -0.1949  0.1439  0.0964
17526W        W37806  14.298  13.591  10.995  0.2271  0.1034  0.0630
17527W        W37807  15.968  18.913   2.512  0.2459  0.2372  0.1640
17528W        W37808  11.475   1.646  10.767 -0.0825  0.0461 -0.1159
17529W        W37809   4.342  15.533   3.774  0.1868 -0.2386 -0.0696
17530W        W37810  15.533   7.459   0.501 -0.1219 -0.0773 -0.1564
17531W        W37811   9.160  19.058   1.703  0.0049  0.0506  0.0129
17532W        W37812   9.447   3.329  12.120  0.2795  0.0662 -0.4067
17533W        W37813  11.295  12.647  12.343  0.0884 -0.0139 -0.1501
17534W        W37814   0.053  12.303  11.619  0.2316 -0.0380 -0.1125
17535W        W37815   6.241   7.729   4.170 -0.0091 -0.2263  0.1504
17536W        W37816   2.142  14.668  12.108  0.0838  0.1557  0.1400
17537W        W37817   8.928  13.259   0.277  0.0224 -0.1047  0.1820
17538W        W37818  17.606   1.968  11.080 -0.2050  0.1099 -0.0371
17539W        W37819   8.953   5.559  11.988 -0.0756  0.2418  0.2432
17540W        W37820  14.212   5.354  13.915  0.2186  0.3240  0.0371
17541W        W37821   8.233   1.549   2.683  0.1214 -0.0381 -0.0581
17542W        W37822   7.634  18.796   0.363  0.0751 -0.2285  0.0873
17543W        W37823   4.260  16.471   1.827 -0.0700 -0.0373 -0.0951
17544W        W37824   4.393  12.966  14.051  0.2698 -0.0305  0.2010
17545W        W37825   8.761  15.920   0.721  0.1183 -0.1752 -0.0880
17546W        W37826  18.034  17.814  11.443 -0.0439 -0.1500  0.0588
17547W        W37827   1.571   4.161   0.846  0.3046 -0.2630  0.4082
17548W        W37828   9.276  17.020   0.114 -0.2345 -0.0363  0.1985
17549W        W37829  17.475   7.920  14.080 -0.0874  0.0572  0.0580
17550W        W37830  13.667   3.165  13.423  0.0481  0.1183  0.1076
17551W        W37831   4.629   1.437  13.272 -0.2085 -0.2695  0.1130
17552W        W37832  15.450  16.303  13.947  0.2507 -0.2561 -0.0522
17553W        W37833  10.802  11.705  11.015 -0.0890  0.1264 -0.0753
17554W        W37834  17.155   8.420   1.708  0.0515  0.1861  0.2527
17555W        W37835   1.845  13.106   1.387 -0.2166 -0.1731 -0.4016
17556W        W37836   2.800   8.110   0.973 -0.2529  0.1821  0.0706
17557W        W37837  10.900  18.538   3.103 -0.2015  0.0137 -0.1104
17558W        W37838   3.837  12.436  14.263 -0.1750 -0.2381  0.1920
17559W        W37839  14.604   4.943   1.911  0.2162 -0.0397 -0.1187
17560W        W37840  15.495  10.056  13.540  0.0353  0.0816 -0.1671
17561W        W37841   5.443   4.099  11.041  0.1169  0.0530 -0.1006
17562W        W37842  16.083  18.542  13.414  0.0438 -0.1806  0.0774
17563W        W37843   6.101  17.296   2.931 -0.1157  0.5343  0.2233
17564W        W37844  10.466  14.205  13.916 -0.2169 -0.0385  0.2705
17565W        W37845  12.830   2.817  13.319 -0.1277  0.1220 -0.1784
17566W        W37846   7.906  13.866  13.217  0.0343  0.0788 -0.1255
17567W        W37847   2.465   2.156   3.541  0.1691 -0.1055 -0.0066
17568W        W37848   9.928  14.384  13.706 -0.2140 -0.0041  0.1839
17569W        W37849  18.855   6.625   1.548  0.2710 -0.1713  0.2356
17570W        W37850  11.674  18.680   2.248  0.2848  0.0071  0.0735
17571W        W37851  14.701  12.745  12.068  0.0309 -0.0399 -0.0851
17572W        W37852  10.880  15.124  14.364 -0.0466 -0.0204 -0.0652
17573W        W37853   9.042  18.829  13.668  0.0559  0.3082  0.2230
17574W        W37854   2.978   0.436  11.109  0.3340 -0.1600  0.0206
17575W        W37855  13.826   8.921   0.317  0.1427  0.2147 -0.0855
17576W        W37856   0.494  15.561  13.557  0.1446  0.1892 -0.0640
17577W        W37857   5.789  16.733  11.639  0.1094  0.1614  0.0345
17578W        W37858  10.918   2.970  13.116  0.3687  0.2044 -0.0703
17579W        W37859   5.129   0.530  13.264 -0.1345  0.2539 -0.1214
17580W        W37860   1.800   1.785  12.835  0.0820  0.2676  0.1340
17581W        W37861   8.622  18.885   1.722  0.1189 -0.1774  0.0407
17582W        W37862   4.093   7.847  12.061 -0.3685 -0.1091 -0.1157
17583W        W37863   0.964   9.891  12.919 -0.0126 -0.0257 -0.0429
17584W        W37864  13.634   9.421   2.820 -0.1029  0.0084 -0.1543
17585W        W37865  18.830   6.274  11.238 -0.0012  0.0756 -0.0290
17586W        W37866  12.054  17.496   3.819  0.1042  0.0669  0.1955
17587W        W37867   2.490   6.175  14.474  0.3586  0.2082 -0.0048
17588W        W37868   6.897  11.337   3.729  0.0663  0.0369 -0.0147
17589W        W37869   0.886  13.684  11.132  0.0334  0.1108  0.0527
17590W        W37870   1.921   9.498   1.219 -0.2656 -0.0968 -0.1338
17591W        W37871   2.077  11.104  13.613 -0.2248  0.1578 -0.1092
17592W        W37872   3.574  12.049   3.178  0.0680  0.0276 -0.1113
17593W        W37873   2.902  13.040  10.624 -0.1405  0.1779  0.0688
17594W        W37874  13.443  15.766  13.595 -0.1523  0.2921 -0.2372
17595W        W37875  16.835  15.574   0.213  0.0398 -0.0850 -0.0241
17596W        W37876  16.579   4.367   2.724 -0.1888 -0.0880 -0.0982
17597W        W37877   4.982   5.967   1.355  0.1389  0.0213  0.2624
17598W        W37878   6.439  16.649   0.425 -0.1423 -0.2984  0.2399
17599W        W37879   7.824  10.911   1.549 -0.2941 -0.0752 -0.0921
17600W        W37880   3.540  15.813  11.609 -0.4123 -0.3476 -0.0334
17601W        W37881   7.770   9.071  12.985  0.1314  0.2182  0.0214
17602W        W37882   8.835   1.796   3.847  0.0504 -0.1193 -0.0096
17603W        W37883  13.297  12.218  12.909 -0.0264 -0.2191  0.0941
17604W        W37884  12.632   4.182   3.295 -0.4117  0.0417  0.2093
17605W        W37885  16.511  10.763  13.484  0.0306 -0.0013  0.1439
17606W        W37886   3.521  14.532   2.391  0.0729 -0.0436  0.3059
17607W        W37887   0.673  19.214  12.496 -0.0202 -0.1141 -0.2156
17608W        W37888  12.478  16.160   1.470 -0.0035  0.2432  0.1946
17609W        W37889  10.950   8.150   1.769  0.0725 -0.1071 -0.0634
17610W        W37890   0.154   2.153  14.227 -0.0514  0.1072 -0.1202
17611W        W37891   8.615  14.576  11.645  0.2345  0.2055  0.0737
17612W        W37892   9.782  15.049  11.636  0.0031  0.1339 -0.0281
17613W        W37893   4.737  17.925  13.739 -0.1274 -0.1284 -0.1177
17614W        W37894  11.201   8.445   2.967  0.0526  0.0357  0.0096
17615W        W37895  15.932  14.979  14.077  0.4277  0.3095  0.3193
17616W        W37896   1.463  11.463  12.169  0.2135  0.1295  0.1900
17617W        W37897   9.650   7.044   3.228 -0.0079  0.0514 -0.1978
17618W        W37898  15.278   4.039   2.331  0.1699 -0.0778 -0.1342
17619W        W37899   0.641   8.706  10.187 -0.3933 -0.0015  0.0890
17620W        W37900   6.318   6.172  13.658  0.3405  0.1534 -0.0231
17621W        W37901  15.094   8.646   1.619  0.1797 -0.0179 -0.1169
17622W        W37902   1.353  15.282  11.615 -0.1638 -0.2129 -0.0037
17623W        W37903   1.016  10.033   2.346 -0.1218 -0.1193 -0.1712
17624W        W37904   1.653   9.463   8.859 -0.0869 -0.0123  0.2855
17625W        W37905  19.390  12.793  11.819  0.1893 -0.0300 -0.3826
17626W        W37906   3.566  17.373   0.612 -0.0245  0.0778  0.1179
17627W        W37907  16.949   7.733  12.660 -0.3285  0.2394 -0.0788
17628W        W37908   6.474  10.338  11.364  0.0863  0.4445 -0.2812
17629W        W37909   6.880   8.654   0.727  0.2175  0.3029 -0.1801
17630W        W37910   5.049   1.390  12.959  0.1632 -0.2113  0.0936
17631W        W37911   5.732   6.915  10.471  0.0755 -0.3599 -0.0946
17632W        W37912  19.105   2.965   0.094 -0.2986  0.0426  0.1549
17633W        W37913  10.788  12.002  13.026  0.2010  0.0978 -0.1863
17634W        W37914   5.272   1.021  10.909 -0.2147  0.1803  0.1852
17635W        W37915   5.444  10.182   1.307  0.1222  0.2409  0.1411
17636W        W37916   3.582   4.600  11.416  0.3607 -0.2174 -0.0142
17637W        W37917   4.332   3.499  12.708 -0.3281 -0.1565  0.0512
17638W        W37918  16.930  19.373   1.524 -0.0893 -0.0870 -0.0772
17639W        W37919  13.669   5.802  10.725 -0.0261  0.0104  0.2091
17640W        W37920   9.170  18.871  12.501  0.0417  0.0775  0.0628
17641W        W37921  10.229   7.568  13.828  0.2328  0.0225 -0.0789
17642W        W37922   2.607   6.146   1.959  0.0870  0.2120  0.1247
17643W        W37923   1.168  15.361   1.280  0.2693 -0.1405  0.0291
17644W        W37924  10.527  10.614   0.803  0.2143  0.0283  0.1668
17645W        W37925   0.206   0.620   2.245 -0.0663 -0.4198  0.1224
17646W        W37926   8.537  16.069   3.212 -0.0425  0.2630 -0.0657
17647W        W37927   3.261  17.671   0.889 -0.1517  0.0078  0.0888
17648W        W37928  11.929  15.657  11.671  0.1622 -0.1142  0.1305
17649W        W37929   4.394   9.086  11.764  0.1158  0.0726  0.1185
17650W        W37930  18.768  11.349  12.258  0.1140 -0.0704  0.1286
17651W        W37931   3.364   8.430  11.881  0.0056  0.2697 -0.2383
17652W        W37932  14.512   7.644  11.912 -0.1062  0.0404 -0.1424
17653W        W37933   2.007   0.690   2.586 -0.1269  0.0286 -0.0022
17654W        W37934   6.556   9.036   0.052  0.0910  0.0310 -0.0520
17655W        W37935  13.383   2.247   1.797 -0.4323 -0.1671  0.3242
17656W        W37936  16.596   6.385  12.216 -0.4336  0.1292  0.4453
17657W        W37937   1.240  10.460  14.063  0.1837  0.0676  0.0013
17658W        W37938  10.115  11.422  12.882 -0.0729  0.1976 -0.0240
17659W        W37939  12.869  11.031   2.212  0.4322  0.1367  0.0502
17660W        W37940  19.179  13.039   0.744  0.0553 -0.0264  0.0619
17661W        W37941  18.984  14.613  13.543  0.4995 -0.3073 -0.0434
17662W        W37942   3.122  17.583   2.902  0.1953 -0.1802  0.0715
17663W        W37943   9.457  18.154   3.548 -0.5548  0.1592  0.0567
17664W        W37944   5.086   1.596  11.137 -0.0152 -0.0843  0.3387
17665W        W37945  11.490  17.640  13.789 -0.1585  0.2707  0.0396
17666W        W37946  10.386   6.087   2.221 -0.1933 -0.0179 -0.4345
17667W        W37947   4.855   4.382  12.985  0.0339  0.0570 -0.3060
17668W        W37948  12.795   1.040  13.885  0.4955 -0.0931  0.3119
17669W        W37949   9.620   6.844  14.352  0.0126 -0.1991 -0.0957
17670W        W37950   2.640   8.368  12.317 -0.3653 -0.0693 -0.0511
17671W        W37951   9.198  13.446   3.392 -0.1167  0.0916  0.0303
17672W        W37952  11.112  12.484   3.093 -0.1008  0.1546  0.0660
17673W        W37953   4.857   9.300   1.995  0.4482 -0.0413 -0.1025
17674W        W37954   0.433  13.447  13.854  0.2389  0.1253  0.2461
17675W        W37955   5.598   1.256   1.761 -0.0941 -0.1064 -0.1238
17676W        W37956  13.152   3.991   1.760 -0.2864  0.0822  0.1047
17677W        W37957   0.334   9.647   1.558  0.1281 -0.0127 -0.0543
17678W        W37958   8.729   2.545  11.749  0.0606  0.4242 -0.1584
17679W        W37959   6.648   9.753  14.455 -0.0967 -0.2786  0.2855
17680W        W37960  11.677   1.243   1.048 -0.0719 -0.0962 -0.0900
17681W        W37961   9.628   6.078  12.974 -0.3769  0.0185  0.0702
17682W        W37962   2.929  13.920  11.610  0.1842  0.3802 -0.4239
17683W        W37963   1.280   3.375   3.364 -0.0818  0.0026 -0.0004
17684W        W37964   9.621   0.422   3.266  0.2408 -0.0713  0.4490
17685W        W37965   9.822  13.916   2.730 -0.4489 -0.0813  0.0250
17686W        W37966   1.749  16.111   1.041  0.2904  0.1928 -0.1692
17687W        W37967  11.647   2.284   2.996  0.0566  0.0585  0.0874
17688W        W37968   8.187  18.330   5.194  0.1263 -0.0721 -0.1194
17689W        W37969  11.815   8.313   3.573  0.1339  0.0463 -0.1469
17690W        W37970  19.384   8.097  11.526 -0.2472 -0.0601 -0.1426
17691W        W37971   8.777   3.590   4.196  0.1497  0.0714 -0.2497
17692W        W37972   8.015   2.839  12.211  0.1486 -0.1899  0.2372
17693W        W37973   7.508   0.049  13.649  0.0609  0.2958  0.0652
17694W        W37974   3.521   0.095  14.282  0.0112 -0.0683  0.0666
17695W        W37975  12.314  12.289  10.786  0.0237 -0.2271 -0.1608
17696W        W37976  17.079   7.719  11.481  0.2273  0.3062  0.1269
17697W        W37977  11.274   3.682   1.215 -0.0236 -0.1189  0.0543
17698W        W37978  14.270   7.470   2.470 -0.2775  0.0787  0.1507
17699W        W37979   6.389  11.495  10.523 -0.2237 -0.2476  0.2788
17700W        W37980   3.669  11.264   3.815  0.0453 -0.4172  0.1224
17701W        W37981   2.523  14.174  11.796 -0.1523 -0.2448  0.1858
17702W        W37982   3.606  10.403   2.323 -0.3170 -0.1727 -0.1196
17703W        W37983  11.968   2.638  11.646 -0.0348  0.0956  0.1418
17704W        W37984  14.282   5.814   2.026  0.0212  0.0267  0.1474
17705W        W37985   6.007   9.475   3.225 -0.1715  0.1153 -0.2691
17706W        W37986   7.691   7.947  11.610  0.1400 -0.0490  0.0483
17707W        W37987   2.553  17.806   2.097  0.1459 -0.0056  0.1009
17708W        W37988   9.032   3.806   4.613  0.1813 -0.3180  0.1122
17709W        W37989  12.881   2.753  12.145 -0.0532 -0.2681  0.0289
17710W        W37990  12.318  17.880  12.089  0.1168 -0.1322 -0.0713
17711W        W37991   5.880   3.030   0.344 -0.2684  0.1555  0.1803
17712W        W37992   4.944   1.623   4.403 -0.2647 -0.1202  0.0301
17713W        W37993   4.511  17.369  12.736 -0.3588 -0.0315 -0.0594
17714W        W37994   1.398   0.260   0.509 -0.1260  0.1851  0.4031
17715W        W37995  15.047  17.869   2.535  0.0073  0.2281  0.0317
17716W        W37996  16.762  17.165  12.594  0.2620 -0.2341  0.2712
17717W        W37997  15.822  10.048   1.773 -0.1949  0.0887  0.0624
17718W        W37998   8.228   8.069   1.904  0.1527 -0.0624 -0.0486
17719W        W37999   0.861  18.653   0.415 -0.2521 -0.0307  0.1664
17720W        W38000   3.398   0.291  13.471  0.0787 -0.2064 -0.0366
17721W        W38001   1.776  15.970   2.147 -0.0625 -0.0060 -0.0478
17722W        W38002  11.448   3.546  12.362  0.1535 -0.0076 -0.0100
17723W        W38003   8.222   9.301  10.516  0.0702  0.1660 -0.0953
17724W        W38004   0.092   9.843   1.942 -0.0390  0.0271 -0.1249
17725W        W38005  16.998   3.453   2.774 -0.0096 -0.2261  0.2423
17726W        W38006  14.981   6.873  12.762 -0.1352 -0.2037  0.1344
17727W        W38007  16.278  16.192  12.964  0.0039 -0.0580 -0.1103
17728W        W38008  13.192   8.465  13.318  0.2548  0.1867  0.0196
17729W        W38009  16.902   2.977   2.869 -0.2813 -0.2583 -0.1250
17730W        W38010   3.455  18.000   2.178  0.0663  0.0876 -0.1217
17731W        W38011   1.861   7.872  12.829 -0.0757  0.0930 -0.3021
17732W        W38012   1.541   3.810   3.355 -0.0235 -0.0597  0.3235
17733W        W38013  10.565  13.013   1.478  0.3417 -0.0765 -0.0503
17734W        W38014  14.363  11.431   1.444 -0.0044 -0.0078 -0.0329
17735W        W38015   8.846  17.224   0.281 -0.1064 -0.0825 -0.2201
17736W        W38016   6.309   6.311  11.696 -0.2266  0.1742  0.0864
17737W        W38017  13.938  16.889  13.349 -0.3609 -0.1549 -0.2228
17738W        W38018  18.425  13.829  14.351  0.0566  0.0058  0.1539
17739W        W38019  11.798  14.685  13.782  0.0184 -0.1306  0.3220
17740W        W38020  12.696   1.568  14.084 -0.1220  0.0003 -0.1493
17741W        W38021  14.309  12.938  12.593 -0.1752 -0.0593  0.1881
17742W        W38022   5.517   2.725  10.950  0.0690 -0.1750  0.1334
17743W        W38023  14.802   1.968   9.844 -0.1592  0.1005  0.0571
17744W        W38024  15.241  18.844   1.348  0.0041 -0.0912 -0.0982
17745W        W38025   7.483  11.335  10.323 -0.0196 -0.2978  0.1384
17746W        W38026   8.304   7.036  10.751 -0.0599  0.0332 -0.1967
17747W        W38027  13.263  12.279   4.669 -0.0848  0.3429 -0.0325
17748W        W38028  16.493  10.610  11.556  0.1771  0.0096  0.0201
17749W        W38029   2.665   6.432  11.199  0.2240  0.1670 -0.0758
17750W        W38030   9.266  14.289   9.361 -0.1048 -0.0494 -0.0863
17751W        W38031  13.528  15.972  13.168 -0.0484  0.0024  0.2107
17752W        W38032  14.086   6.864   0.718 -0.0448  0.1114  0.0254
17753W        W38033  11.420   5.087  11.456 -0.2078  0.1138  0.0912
17754W        W38034   6.038  16.366  10.974 -0.2498 -0.0102  0.1300
17755W        W38035   1.809   2.472   3.585 -0.2161  0.0899 -0.2560
17756W        W38036   3.037   8.038   1.881  0.0237 -0.1808 -0.0120
17757W        W38037   5.023   5.568  12.328  0.1251 -0.1417  0.2952
17758W        W38038   3.582   6.418  14.295 -0.2458  0.1309 -0.0882
17759W        W38039  11.268  17.419   2.339  0.0208  0.2077  0.0162
17760W        W38040   1.628   3.608  11.812 -0.1472 -0.6380 -0.1814
17761W        W38041   8.154   7.825   3.067  0.0421  0.1682 -0.0018
17762W        W38042  16.035   8.460  13.078 -0.2260  0.0547  0.4655
17763W        W38043   0.165  13.822   1.131  0.0053  0.0047 -0.1288
17764W        W38044   1.951  11.964   3.770 -0.1373  0.1507 -0.0778
17765W        W38045  16.358  15.206  11.920 -0.2296 -0.0578 -0.0266
17766W        W38046   6.778  18.000  12.960  0.0546  0.0364  0.2882
17767W        W38047  12.427   4.942   3.007  0.0269 -0.0483  0.4857
17768W        W38048  19.326   6.807   1.454  0.2935 -0.0868 -0.1148
17769W        W38049   6.394  18.024   0.114 -0.2629  0.0239 -0.1730
17770W        W38050   9.143   0.660   3.320  0.2213  0.1653 -0.1301
17771W        W38051  15.409  13.181   3.619 -0.2254 -0.0102 -0.0747
17772W        W38052   9.546  15.200  10.793 -0.3581  0.0094 -0.1700
17773W        W38053  11.383  11.925  11.503  0.0598  0.0435 -0.1678
17774W        W38054   0.232   6.659  12.044  0.0142  0.0701  0.0959
17775W        W38055  11.009   3.766   0.064  0.2110 -0.0364 -0.0617
17776W        W38056  10.124  14.703   4.029 -0.0458  0.0232  0.2775
17777W        W38057  14.979   0.395  14.048 -0.1481 -0.1027  0.3114
17778W        W38058   4.660   9.913   3.152  0.0145  0.1430 -0.0631
17779W        W38059   2.974   8.913  14.480  0.4292  0.2081 -0.0777
17780W        W38060  11.000   2.776  14.329  0.0355  0.2521 -0.0762
17781W        W38061   4.378  14.455  12.513  0.2035  0.2833 -0.0005
17782W        W38062  16.625   7.610  11.248  0.0677 -0.0437  0.0245
17783W        W38063  14.747   9.772   1.021  0.0417 -0.0309  0.0050
17784W        W38064  17.605   2.955  12.550  0.2397 -0.2800 -0.0306
17785W        W38065  10.743  16.024   1.355  0.2400  0.1573 -0.0757
17786W        W38066  15.953   8.090   0.443 -0.2572  0.2172 -0.5197
17787W        W38067  14.824   1.432  13.785  0.1905 -0.0223 -0.1049
17788W        W38068   7.964   3.096  14.208  0.1995  0.1917  0.0532
17789W        W38069  15.186  17.292   3.654  0.2953  0.3490 -0.1185
17790W        W38070   7.577  15.254   1.194 -0.0060 -0.1528 -0.0044
17791W        W38071  15.145   2.894  12.994  0.3660 -0.1149 -0.0278
17792W        W38072   3.552  16.870   9.845 -0.0441  0.1294 -0.0027
17793W        W38073  10.684  15.454  14.035 -0.0423  0.3385 -0.0757
17794W        W38074   0.337  13.367   3.135  0.0888  0.3523  0.1136
17795W        W38075   8.474  13.307  13.887 -0.1321 -0.0187  0.0409
17796W        W38076   9.036  10.658   0.452  0.0110 -0.0888 -0.2169
17797W        W38077  17.028  18.443  13.798 -0.3863 -0.0428 -0.3649
17798W        W38078  13.060  12.204  11.257 -0.1201 -0.1786  0.0380
17799W        W38079   1.529   5.957   1.318 -0.1330 -0.0067 -0.2076
17800W        W38080  13.752   3.686  13.277  0.2903 -0.3567 -0.0383
17801W        W38081   6.700  16.481   1.237  0.2354 -0.3352 -0.1052
17802W        W38082   6.157  15.059  10.852 -0.2967 -0.0844 -0.1625
17803W        W38083   3.453   1.613   0.651  0.0360  0.0282  0.3149
17804W        W38084   3.605   8.244  11.456  0.0407  0.0799 -0.1970
17805W        W38085   8.276  12.925  10.774 -0.0620 -0.2482 -0.0489
17806W        W38086   6.400   7.234  13.362 -0.0066  0.0813  0.0874
17807W        W38087   2.089  10.899   1.300  0.0623 -0.0071  0.0755
17808W        W38088   3.606  19.256   0.860 -0.1285  0.0933 -0.0954
17809W        W38089   1.863   8.131  11.236 -0.0165 -0.2327  0.2299
17810W        W38090  13.847   1.772  13.370  0.1948 -0.0768  0.1353
17811W        W38091   0.393   3.693   3.854  0.2410 -0.2500 -0.0738
17812W        W38092  14.165   3.445   4.074 -0.2870  0.0253  0.0329
17813W        W38093   2.035  12.663   1.586  0.4385 -0.1216 -0.0919
17814W        W38094   6.760   3.599  12.701  0.3011  0.3659 -0.1116
17815W        W38095   2.748   8.065  11.426  0.1237 -0.3163 -0.0616
17816W        W38096  13.323   3.731  13.631  0.1626 -0.2207 -0.1741
17817W        W38097   0.774  14.681   2.702  0.2189  0.1034  0.0430
17818W        W38098   8.796  12.916   1.364  0.0436 -0.0005  0.1164
17819W        W38099   8.439   6.404  11.536  0.0299 -0.0509 -0.3068
17820W        W38100   6.689   1.701  11.138 -0.0048  0.1507  0.0783
17821W        W38101   5.261   2.558  12.419  0.0603 -0.1502  0.2893
17822W        W38102   5.919   2.460   0.086  0.0681 -0.0424 -0.0288
17823W        W38103  15.755  18.979  11.803  0.1829  0.1437  0.3112
17824W        W38104   2.498  10.248  10.505  0.1558 -0.0506  0.1904
17825W        W38105  11.391  15.101  14.407 -0.1572  0.1299  0.2927
17826W        W38106   1.025   9.642   0.118  0.0103  0.1684 -0.0818
17827W        W38107   6.006   8.179   0.123  0.1052 -0.3103 -0.0444
17828W        W38108   2.911  18.321   1.424  0.3177  0.1382 -0.1256
17829W        W38109   4.302   7.128   3.397  0.0114  0.1276 -0.2060
17830W        W38110  14.458  11.989  12.482  0.2150 -0.0225 -0.0353
17831W        W38111   9.225   3.824  11.458 -0.1081  0.0543 -0.0407
17832W        W38112   4.223  17.978  13.406 -0.0101  0.1571  0.0427
17833W        W38113  16.226  12.453   1.024  0.0668 -0.1238 -0.1173
17834W        W38114  10.381  14.092  10.952 -0.0242 -0.1702  0.1800
17835W        W38115   0.436  10.061  10.416 -0.1798  0.1642 -0.1020
17836W        W38116  12.507  16.964  11.911  0.0026 -0.2317 -0.0753
17837W        W38117  11.059   8.926   0.824 -0.1774 -0.1782 -0.0028
17838W        W38118   9.130  12.514  13.428 -0.0567 -0.1862 -0.0489
17839W        W38119   3.820  12.102  11.084  0.0566 -0.0637 -0.0373
17840W        W38120  13.791   7.277   2.278  0.2524  0.1213 -0.1511
17841W        W38121  13.307  14.044   4.357  0.1734 -0.4062 -0.1585
17842W        W38122   5.295  17.589   3.166 -0.0810 -0.3588 -0.3657
17843W        W38123  14.649   2.474   9.610  0.0355 -0.0395  0.1849
17844W        W38124   7.068  13.180   0.943  0.0231 -0.1514  0.1045
17845W        W38125  18.274   6.606   3.649  0.0995  0.1615 -0.0217
17846W        W38126   6.769   3.965   4.355  0.1707  0.0601  0.0067
17847W        W38127  14.094  12.209   2.057  0.0315  0.3559  0.2328
17848W        W38128   3.167   4.410   2.292  0.2237 -0.1941 -0.3289
17849W        W38129  19.409  11.612  11.887 -0.3193 -0.1403 -0.1464
17850W        W38130   7.835  16.520   0.785 -0.1144  0.0618 -0.0427
17851W        W38131   8.099   2.026  14.140  0.1464 -0.0410 -0.0649
17852W        W38132  17.696   4.354  11.589  0.0954  0.1182  0.0201
17853W        W38133   8.969   0.431  12.758 -0.1926 -0.1409 -0.2367
17854W        W38134  11.613   0.392  13.887  0.1063  0.0618  0.3111
17855W        W38135  12.536   9.312   4.105 -0.0620  0.0802  0.4977
17856W        W38136  13.498   5.095  13.011 -0.2770  0.1121 -0.1876
17857W        W38137   0.591  12.348  13.881  0.1322  0.3402 -0.5766
17858W        W38138   0.758  15.007  10.803  0.2807  0.4693 -0.1181
17859W        W38139   5.096   1.851  14.270 -0.3149  0.1974  0.2254
17860W        W38140   3.977  16.441  12.088 -0.0251 -0.0175  0.0529
17861W        W38141   2.869  11.628   0.232 -0.0955  0.2963 -0.2767
17862W        W38142  17.934   4.289   0.906 -0.1004 -0.1536 -0.2838
17863W        W38143   9.350   3.900   2.273 -0.2679 -0.1514  0.1999
17864W        W38144  13.845   8.756  12.659 -0.2135 -0.0494  0.0671
17865W        W38145  11.718   8.549  10.902  0.1157  0.1025 -0.4667
17866W        W38146  10.288  18.729  13.599 -0.0886  0.4092 -0.1984
17867W        W38147   7.165  12.378  11.163  0.1443  0.3214 -0.0223
17868W        W38148  18.813  13.974   9.288  0.2021  0.0391  0.1024
17869W        W38149   2.038   9.283  11.314 -0.4057 -0.0178 -0.1279
17870W        W38150   9.497  10.860   0.767  0.0316  0.0189 -0.3022
17871W        W38151  19.237   9.957  10.327 -0.1898 -0.1160  0.1875
17872W        W38152  15.458  11.198   2.112 -0.1073 -0.0336  0.2324
17873W        W38153  15.497  17.819  11.710 -0.1803  0.0205 -0.2566
17874W        W38154  13.883   9.046  11.387 -0.1721  0.0245 -0.0871
17875W        W38155  19.257  15.003   1.552  0.1235 -0.0691  0.2552
17876W        W38156   3.487   6.041   0.435 -0.0577  0.2047  0.1561
17877W        W38157  12.433  14.837   3.422 -0.1888  0.2447  0.0621
17878W        W38158   1.217   0.155  13.754  0.0240 -0.2413  0.1524
17879W        W38159   1.192   3.019   1.276 -0.0298  0.2310  0.2533
17880W        W38160  15.626   3.364  13.055  0.1851  0.0071 -0.0420
17881W        W38161   0.657  16.089   0.894 -0.2696  0.2908  0.1253
17882W        W38162   5.639   0.131  12.050  0.4465  0.1150 -0.1468
17883W        W38163  11.063  12.645  10.764  0.1289 -0.0629 -0.4371
17884W        W38164  13.812   3.968  13.673 -0.2122 -0.4064 -0.2184
17885W        W38165   9.463   6.291  12.501  0.1317  0.1987  0.0247
17886W        W38166  14.132   1.233  12.428  0.2053  0.0989  0.1015
17887W        W38167  12.852  13.699   1.516 -0.2476  0.0966  0.1302
17888W        W38168  16.287   7.304  11.456  0.3016 -0.0115  0.0754
17889W        W38169  18.344  10.233   2.693 -0.1853  0.1819  0.3570
17890W        W38170  13.447   1.031   1.798 -0.0829  0.0903 -0.0418
17891W        W38171  13.894   8.319  12.901  0.2161 -0.1147 -0.0720
17892W        W38172   2.444   2.066  14.329 -0.1357 -0.0681 -0.5054
17893W        W38173  18.881  16.494  11.269 -0.1168 -0.0265  0.3928
17894W        W38174   4.183  11.583   3.207 -0.3245 -0.1235  0.2170
17895W        W38175   8.136  10.563  12.050  0.0809  0.3780  0.0218
17896W        W38176   2.771   2.823   3.487 -0.0093 -0.3415  0.0854
17897W        W38177   9.638   2.523  13.941  0.0306  0.1578  0.1815
17898W        W38178  15.201   4.051   0.873 -0.0350  0.2619  0.1509
17899W        W38179   9.956   9.228  13.447  0.2949 -0.1208  0.0320
17900W        W38180  11.133   8.097  12.639  0.1629  0.2089  0.2912
17901W        W38181  12.516   9.871   0.758  0.0469 -0.3792 -0.1528
17902W        W38182  16.327   0.842   1.165  0.0014 -0.1725  0.1309
17903W        W38183   2.737   2.501  12.634 -0.0826  0.2387  0.0270
17904W        W38184  19.237  16.695   4.198 -0.0268 -0.4962  0.0276
17905W        W38185   3.268  12.617   0.734  0.0474 -0.3135  0.2483
17906W        W38186  11.375  14.286  11.124  0.0710 -0.1835  0.0801
17907W        W38187  13.621  10.024  10.168  0.1852  0.0450  0.0206
17908W        W38188   3.881   0.935   2.894  0.0519  0.2080 -0.0517
17909W        W38189  11.082  17.014   2.087  0.0895  0.0650 -0.2460
17910W        W38190   3.566   6.814   3.828  0.0612 -0.1669 -0.1046
17911W        W38191   9.223   3.646   4.037 -0.0796 -0.0046  0.4060
17912W        W38192  15.675   9.830   0.832  0.0633  0.1835 -0.1238
17913W        W38193  17.361   1.746   9.361 -0.0899 -0.3566  0.2939
17914W        W38194   7.519   8.415   1.239  0.1958 -0.1462 -0.0182
17915W        W38195   0.534   7.971   0.633 -0.0122  0.0284 -0.4300
17916W        W38196   8.745   1.617  12.434  0.1184 -0.1271  0.0518
17917W        W38197   5.123  14.144  11.690  0.1981 -0.2708 -0.0263
17918W        W38198   8.298  18.472   1.603 -0.0245 -0.2132 -0.1016
17919W        W38199  10.855   7.400  12.066 -0.0199  0.0912  0.0317
17920W        W38200  10.078   6.282  12.644 -0.0786  0.4131  0.0086
17921W        W38201   5.816   0.071  13.707 -0.0659  0.0487 -0.1579
17922W        W38202   2.944  14.518  13.614  0.2334 -0.1653 -0.3031
17923W        W38203   3.890  18.023  11.131 -0.1267  0.3663 -0.0660
17924W        W38204   1.610  14.837  11.732  0.0099  0.1417  0.0251
17925W        W38205  14.713  16.603  13.356  0.1148  0.0924  0.0840
17926W        W38206   3.359  14.133  12.354  0.4207  0.0842  0.2690
17927W        W38207  18.335   2.923   1.297  0.1585 -0.1289 -0.2113
17928W        W38208   0.014  14.210   2.879  0.2016  0.0966 -0.1631
17929W        W38209  14.860  13.163  14.308 -0.1383  0.0215  0.1014
17930W        W38210  11.549  12.086   2.179 -0.0268 -0.0743  0.2302
17931W        W38211   0.299   4.540  12.618  0.0072  0.0404 -0.0647
17932W        W38212  12.307   3.302  12.052  0.0280  0.1279 -0.1076
17933W        W38213   2.973  16.505  11.120  0.1343  0.0695 -0.0881
17934W        W38214   3.671   2.493   1.846  0.1187 -0.1715  0.0221
17935W        W38215   8.430   7.323  12.810 -0.2535  0.1975 -0.0568
17936W        W38216   3.605  10.663  11.446  0.0553 -0.1014 -0.0887
17937W        W38217   8.833   3.150  14.292  0.0953  0.0190 -0.0246
17938W        W38218   4.863   7.910   3.371 -0.2625  0.3666  0.1810
17939W        W38219  14.005   8.749  13.148 -0.0964 -0.0555 -0.1407
17940W        W38220  15.335  10.995   3.547 -0.1044  0.0638 -0.0532
17941W        W38221  17.608   8.238  11.004  0.2962  0.0133 -0.1530
17942W        W38222   6.983  16.758  11.198  0.0640 -0.1885 -0.1263
17943W        W38223  14.442  15.367  10.260  0.1610 -0.1077  0.0096
17944W        W38224  10.704   1.027   0.950  0.1531 -0.2097 -0.6110
17945W        W38225  13.602  16.628  12.621  0.2615  0.0592 -0.3324
17946W        W38226   1.769  15.947  12.224 -0.1702 -0.0969 -0.3353
17947W        W38227   0.789   9.845  13.360  0.2153 -0.0301  0.1438
17948W        W38228  16.825   3.842  11.140 -0.0244  0.2691  0.0992
17949W        W38229   1.436  19.150  11.172 -0.1531 -0.1155  0.1365
17950W        W38230  19.051  14.412  13.027 -0.1234 -0.0020 -0.1368
17951W        W38231   2.930   5.078   4.031 -0.0863  0.4019  0.3325
17952W        W38232  15.262  16.961  11.394 -0.0599  0.1333  0.0825
17953W        W38233   9.375   9.805   1.949  0.0694 -0.2852  0.1648
17954W        W38234   1.050  17.477  11.069  0.2375 -0.1252 -0.3286
17955W        W38235   6.177  10.840   2.836 -0.0478  0.0140 -0.0005
17956W        W38236   0.679   1.890  10.732 -0.2014 -0.0176  0.1126
17957W        W38237  14.357  16.454   4.524  0.2639 -0.3131 -0.4124
17958W        W38238   9.700  10.345  13.939  0.1675  0.1613 -0.1936
17959W        W38239   6.579   0.492   0.861  0.2874  0.2695 -0.0279
17960W        W38240   7.267  16.961   1.795  0.3734 -0.0234 -0.2251
17961W        W38241   5.146   6.035  10.846 -0.0519 -0.3263 -0.1028
17962W        W38242  19.184   5.220   2.365 -0.3373 -0.0299 -0.3882
17963W        W38243   3.969   3.120  12.809  0.2759  0.2088  0.0378
17964W        W38244   8.773  12.383   2.812  0.0566  0.2874 -0.2457
17965W        W38245  10.881   7.916  13.028  0.2223  0.1266 -0.1408
17966W        W38246   4.289  19.056   1.551 -0.1568 -0.1542 -0.1900
17967W        W38247  14.612   8.294  13.574 -0.0173  0.0425 -0.1997
17968W        W38248  14.784  17.695   5.297  0.0923  0.2934  0.3488
17969W        W38249   4.744   2.267   1.237  0.1330  0.2301 -0.1777
17970W        W38250   0.257  14.204   1.499  0.0364  0.0889  0.2155
17971W        W38251   6.009  16.369   1.239 -0.0610 -0.1541  0.0648
17972W        W38252   5.590   0.657   0.746 -0.0280  0.0190  0.1504
17973W        W38253  14.113  15.894  14.323  0.1266  0.0101 -0.0838
17974W        W38254  19.273   9.483   2.195 -0.0779  0.1561  0.0077
17975W        W38255  19.193  13.025  12.907 -0.0099 -0.0704 -0.1096
17976W        W38256  13.419   2.697   9.889  0.0999 -0.0641 -0.4557
17977W        W38257  15.360   2.830   2.471 -0.2906  0.3847 -0.0739
17978W        W38258   4.372  18.902   2.576 -0.2175 -0.0885  0.1360
17979W        W38259   1.126   0.668   2.477 -0.2048  0.1077 -0.1495
17980W        W38260  11.834   8.423  14.495 -0.1925  0.0277 -0.0615
17981W        W38261  10.454   1.451   1.763 -0.4082 -0.2049  0.2376
17982W        W38262  15.112   0.784   3.317  0.1596  0.2015 -0.0512
17983W        W38263  15.911   5.465  13.227  0.0479  0.0282 -0.1247
17984W        W38264   1.024   0.701   2.988  0.4910  0.2095  0.1402
17985W        W38265  13.242  14.294   0.078  0.5209 -0.2620  0.0194
17986W        W38266  10.383   7.724   2.089  0.0461  0.0575  0.0205
17987W        W38267   8.382  12.436   2.497 -0.1018 -0.0242 -0.0927
17988W        W38268   6.033   2.601   0.588  0.0102 -0.1382  0.0657
17989W        W38269   2.948   1.413  11.936  0.2779 -0.1802 -0.0349
17990W        W38270   0.676  19.174  11.230  0.1420  0.2428 -0.2824
17991W        W38271  10.451  13.234  13.879  0.0007  0.1253 -0.0988
17992W        W38272  10.084  18.893  11.774 -0.2946 -0.3149 -0.0068
17993W        W38273   8.628  10.443  13.078  0.2198  0.3013  0.1868
17994W        W38274  18.399  14.177   1.549 -0.0978  0.1905  0.0985
17995W        W38275   0.668  13.872   0.400  0.1207 -0.1204 -0.2267
17996W        W38276  16.883   1.839   0.945  0.1840 -0.1521  0.5282
17997W        W38277   1.262   1.718   3.809  0.2737 -0.0952  0.0151
17998W        W38278  14.139  17.275  13.161  0.0420 -0.1302  0.0933
17999W        W38279   6.087  14.818   0.557 -0.1566 -0.3973 -0.0618
18000W        W38280   7.232  15.636   1.188 -0.2115  0.2078  0.1878
18001W        W38281   4.239  11.226  10.247 -0.0181  0.0237 -0.1555
18002W        W38282  17.219  12.202   0.573  0.2931 -0.1573  0.1459
18003W        W38283  17.664   4.922  13.770 -0.0220  0.0367  0.2891
18004W        W38284  17.321  18.693   3.822  0.0652  0.0023  0.0051
18005W        W38285   2.958  11.071  10.212 -0.0440 -0.3186  0.0103
18006W        W38286   8.941   3.440  13.365  0.0932 -0.0132 -0.1472
18007W        W38287   2.090  10.015   0.955  0.0034  0.1771  0.2159
18008W        W38288   1.729  12.528  12.296  0.1341  0.1621 -0.0145
18009W        W38289   9.872   8.037  11.090 -0.0452  0.0072 -0.0868
18010W        W38290   7.377  12.856  11.176 -0.1383 -0.1219  0.0498
18011W        W38291   3.000   4.527   3.247  0.0085  0.2100 -0.2172
18012W        W38292   7.227   8.320  14.368 -0.3156  0.1183 -0.3396
18013W        W38293  16.352   1.354   1.459 -0.3840 -0.0301  0.5250
18014W        W38294   2.647   6.417   3.988  0.0280 -0.0044  0.0591
18015W        W38295  11.157   4.948  13.142 -0.0689  0.0109  0.2892
18016W        W38296   9.338   8.370  11.925  0.0917  0.1645 -0.1575
18017W        W38297   4.034   6.233  12.068 -0.0683 -0.2105  0.2367
18018W        W38298  18.885   3.829   3.922  0.0770 -0.1132 -0.1030
18019W        W38299   8.824   8.058  14.035  0.0945 -0.0589  0.3292
18020W        W38300  11.450   0.849   4.660  0.2611 -0.1833  0.2203
18021W        W38301   0.754   1.094   0.599 -0.2238  0.3278 -0.0096
18022W        W38302   7.369   8.753   0.866  0.3667 -0.0265 -0.3230
18023W        W38303   2.432  15.554  12.221  0.1205 -0.2011  0.2677
18024W        W38304  10.864   3.556   0.512  0.1536 -0.0981 -0.1374
18025W        W38305  18.688   2.676   0.905 -0.1541 -0.2464 -0.1736
18026W        W38306   0.365  17.936   3.782  0.0756  0.1730 -0.0818
18027W        W38307  10.610   6.318  12.053 -0.2132  0.0352 -0.2985
18028W        W38308  12.482   8.946  12.255  0.4335 -0.2089  0.2050
18029W        W38309   3.526   1.792   1.102  0.0293  0.2134  0.4565
18030W        W38310   6.438  18.877  11.595 -0.1949  0.1731 -0.1010
18031W        W38311  10.228   4.228  13.913 -0.1882  0.0771 -0.0347
18032W        W38312  17.396   7.102   2.486  0.0272  0.3074 -0.0335
18033W        W38313  17.059   8.100  11.795  0.3431  0.2164 -0.4315
18034W        W38314   9.097   9.068   3.093  0.0431 -0.1847  0.0802
18035W        W38315  10.405  14.498   2.566  0.1277  0.0752  0.1825
18036W        W38316   1.309   5.660  11.943  0.1879 -0.0495  0.2559
18037W        W38317  15.519  13.298   3.083 -0.3555 -0.0314  0.3262
18038W        W38318   1.539   7.369   2.671 -0.4214  0.3165  0.2020
18039W        W38319   4.884   6.423   1.737 -0.3259  0.1197  0.2625
18040W        W38320   3.329  10.288  11.740 -0.2729  0.0170  0.1930
18041W        W38321   8.063  11.575  11.969  0.3085 -0.0733  0.1509
18042W        W38322   4.831   3.164   1.678 -0.0444 -0.0303  0.1850
18043W        W38323   4.621  19.075   3.914  0.3607 -0.0861 -0.2410
18044W        W38324  16.234   6.352   3.216 -0.4104  0.2035  0.1014
18045W        W38325  16.521  17.350   1.325  0.4360  0.0011 -0.0040
18046W        W38326   9.515  16.593   0.182 -0.0819  0.1819  0.1820
18047W        W38327   7.457   5.267  13.527 -0.0459 -0.0744  0.0682
18048W        W38328   6.647  13.599   2.214  0.1006 -0.1285  0.1518
18049W        W38329   2.178  18.530   0.287 -0.0915 -0.0593 -0.0953
18050W        W38330  18.487  14.795   0.974 -0.1869  0.5485 -0.1515
18051W        W38331   4.821   8.389  14.385 -0.1842  0.5409 -0.2214
18052W        W38332  12.475   4.345  11.102 -0.0289 -0.0025  0.0282
18053W        W38333  16.904  14.124  13.945  0.0952  0.1316 -0.0228
18054W        W38334   9.552   8.102  11.536  0.2485 -0.1391 -0.3489
18055W        W38335  17.818   9.923  12.883 -0.0929 -0.0365 -0.0735
18056W        W38336  13.377   8.043  14.277 -0.1125 -0.1080  0.0896
18057W        W38337   1.419  10.562  13.440  0.0360 -0.2494 -0.1107
18058W        W38338   0.762  15.292  10.356  0.0279  0.0637  0.0293
18059W        W38339   3.527  18.858  12.860 -0.0254 -0.0889 -0.0003
18060W        W38340  12.863   6.617   2.845 -0.2654  0.1144 -0.0020
18061W        W38341  13.621  13.820   4.637  0.2700  0.2276  0.3894
18062W        W38342  18.715   2.976  13.867  0.2283  0.0434 -0.0535
18063W        W38343   7.410   1.658   2.637  0.1378  0.1764 -0.3683
18064W        W38344   6.269  11.095  13.767 -0.0924  0.1359 -0.0674
18065W        W38345   9.113  16.447  10.718  0.2078 -0.0613 -0.0288
18066W        W38346   7.707   9.997   3.649 -0.0360 -0.4103  0.0835
18067W        W38347   6.335   0.864   3.822  0.3142 -0.1002  0.0031
18068W        W38348  18.927   7.150   0.231 -0.0303  0.0604  0.0647
18069W        W38349  10.640  12.504   3.084  0.3554 -0.0415  0.2668
18070W        W38350  10.114   6.469   2.386  0.1043  0.1250 -0.1637
18071W        W38351  12.166   7.656   2.408 -0.1442 -0.4482  0.1045
18072W        W38352   3.819  15.496   2.185 -0.2087 -0.1705  0.1721
18073W        W38353  16.149   6.936   9.741  0.0627  0.2455 -0.1363
18074W        W38354   9.844  13.525   3.019 -0.0655  0.0396  0.2157
18075W        W38355   2.477   3.892  13.113  0.0816  0.1299  0.0506
18076W        W38356   2.968   3.566   0.478  0.0356  0.0419  0.6527
18077W        W38357   6.613  10.322   4.056 -0.0976  0.0405 -0.2020
18078W        W38358   1.428   6.012  12.329 -0.2079 -0.0235  0.0100
18079W        W38359  18.962  17.028  13.426  0.0698  0.0128 -0.0052
18080W        W38360  11.490   7.602  10.741  0.0764  0.2399 -0.1523
18081W        W38361   4.554   8.690  10.294  0.0885  0.1460  0.0579
18082W        W38362   5.992  12.398  12.649 -0.0044  0.0761  0.0764
18083W        W38363  16.822  10.157  10.411  0.0413  0.2076 -0.0764
18084W        W38364  12.697   3.813  11.579 -0.2938 -0.0230 -0.0335
18085W        W38365  10.420  19.017   2.174  0.0167  0.1828  0.1709
18086W        W38366   5.492  10.840  13.736 -0.0542  0.2164  0.1013
18087W        W38367   1.007  19.226  10.863 -0.2471 -0.2580 -0.0097
18088W        W38368   7.650   7.144  10.713 -0.1280 -0.0493  0.2585
18089W        W38369   5.691   9.142  14.183  0.0808 -0.1347  0.3577
18090W        W38370  15.048   4.960  10.695  0.1430  0.4560  0.0276
18091W        W38371  17.421   5.599  11.595  0.1968 -0.1662  0.2001
18092W        W38372   6.424   1.539   1.440 -0.1190  0.2383 -0.1527
18093W        W38373  15.239   0.653   4.244  0.1426 -0.0833 -0.2554
18094W        W38374   1.765   3.162   1.093  0.0477 -0.1635  0.0200
18095W        W38375   7.861   8.688   0.925 -0.1009 -0.1408 -0.1631
18096W        W38376  11.915  15.335  12.667  0.1232  0.2427 -0.1405
18097W        W38377   0.573   7.578   3.510  0.0176 -0.0150 -0.1919
18098W        W38378  18.208  11.425   2.019  0.0952  0.3594  0.0549
18099W        W38379  15.775  18.173  11.362  0.1154  0.2241  0.0662
18100W        W38380   7.963  15.654  10.500  0.0299 -0.0924 -0.2486
18101W        W38381  18.243   3.998   0.385  0.1954 -0.2810 -0.1039
18102W        W38382   1.655   1.632  13.817  0.1802  0.0560 -0.3567
18103W        W38383   5.863  13.279   3.767 -0.2744 -0.3408 -0.1264
18104W        W38384   5.228  19.340  11.739  0.2917  0.3363  0.3671
18105W        W38385   7.928  10.309  14.342 -0.1251  0.1452 -0.0673
18106W        W38386  16.070  15.469   3.106 -0.2633  0.0421  0.0120
18107W        W38387   7.552   9.140   3.704 -0.1360  0.2625 -0.0107
18108W        W38388   0.287   5.190  10.599 -0.1708 -0.1783  0.0590
18109W        W38389  12.666   1.441   3.614 -0.1512 -0.1195 -0.1197
18110W        W38390   5.144  13.022   2.132  0.1473  0.3074  0.1855
18111W        W38391   3.864   1.890  14.098 -0.2417 -0.2428 -0.0394
18112W        W38392   3.243  10.225   3.859  0.1004 -0.0599  0.0902
18113W        W38393   8.478  11.186  10.206 -0.2093 -0.0239  0.0128
18114W        W38394  12.382   8.573   4.157  0.0561  0.1480  0.2393
18115W        W38395   0.986   2.869   0.737  0.0861  0.1638 -0.1455
18116W        W38396   1.816   9.543   2.606  0.0167  0.1537 -0.3116
18117W        W38397  13.669   7.689  10.459  0.1633 -0.2361  0.1678
18118W        W38398  13.718   1.249   0.826 -0.1219 -0.0609 -0.0473
18119W        W38399  16.498  11.266  10.928  0.0832 -0.3288  0.0800
18120W        W38400   7.270  18.162   1.372 -0.0597 -0.3698  0.2070
18121W        W38401  12.630  18.472   5.451  0.0020 -0.0534 -0.1728
18122W        W38402  12.231   0.192   0.726  0.1704 -0.2696  0.0600
18123W        W38403   1.249  10.644  10.588  0.3655 -0.0823 -0.1195
18124W        W38404  19.067  16.321  12.081  0.1023  0.1195 -0.1835
18125W        W38405   0.694  19.424  11.901  0.1600 -0.2009 -0.1289
18126W        W38406  15.220  10.323   3.563 -0.1819 -0.2844 -0.0902
18127W        W38407  10.703   9.862  11.257 -0.1813 -0.1421  0.3545
18128W        W38408  19.066   4.072  13.132 -0.1035 -0.0485 -0.1362
18129W        W38409  17.656  16.763  10.729  0.1557 -0.0644 -0.0958
18130W        W38410   1.450  10.667   3.810 -0.0045 -0.0866 -0.2802
18131W        W38411   7.055   9.281   3.524  0.1925 -0.0151 -0.2719
18132W        W38412   5.560   0.454   2.334 -0.2069 -0.0159  0.0653
18133W        W38413  10.418   8.021  11.066 -0.0034 -0.0410 -0.0614
18134W        W38414   8.457  14.193  11.231  0.0758  0.0619 -0.0930
18135W        W38415  16.240   1.559  11.473  0.2082  0.0738  0.0263
18136W        W38416   3.746   7.545  12.235  0.1818 -0.0724 -0.4842
18137W        W38417  17.816   2.958   0.800  0.0268  0.0150 -0.0725
18138W        W38418   6.801   6.285  11.603  0.4906 -0.0581  0.1162
18139W        W38419  15.729   3.095  11.266 -0.1545  0.1955  0.1967
18140W        W38420  15.774   1.674   0.047  0.0444  0.1561 -0.1428
18141W        W38421  10.692  12.836  12.509 -0.0695 -0.1731 -0.0214
18142W        W38422  16.023  10.901   0.376 -0.2660 -0.1617 -0.0604
18143W        W38423   1.530  17.499   0.852  0.1113 -0.0083 -0.0818
18144W        W38424   5.532   1.066   0.971  0.0102 -0.2877  0.3561
18145W        W38425  12.875   7.892  10.698  0.0494 -0.2155  0.1586
18146W        W38426   6.991  13.977  10.650  0.0264 -0.0770  0.2250
18147W        W38427  14.652   7.276   3.196  0.0957 -0.2762 -0.2491
18148W        W38428  14.193   3.675   4.582  0.3570  0.3501 -0.0264
18149W        W38429  17.353  13.355  11.896  0.0830  0.1046 -0.1912
18150W        W38430   9.629   1.995  10.435 -0.0201  0.0943  0.0158
18151W        W38431   2.640  16.026  12.094  0.0754 -0.2438  0.1516
18152W        W38432   2.775   6.545   2.821 -0.0244  0.0275  0.0224
18153W        W38433  11.106  17.384  14.005 -0.3002  0.0082 -0.4268
18154W        W38434   7.829  13.381   4.106  0.3167  0.1118  0.0588
18155W        W38435  13.415  10.933  12.329 -0.3586  0.0369  0.5606
18156W        W38436   7.248   2.418   0.582 -0.1208 -0.0270 -0.1690
18157W        W38437   7.276   8.450   0.365  0.0582 -0.1305 -0.2427
18158W        W38438   7.684  12.020  10.541  0.1917  0.0989 -0.0918
18159W        W38439   9.967  17.147   0.913  0.0244  0.2939  0.2371
18160W        W38440   4.639  17.665  13.228  0.0400 -0.2637  0.0988
18161W        W38441   4.446  16.074  11.304 -0.0117  0.0279 -0.2452
18162W        W38442   3.404   2.895  14.110  0.0517  0.1085  0.0175
18163W        W38443  12.376   5.845  13.177 -0.0889 -0.2862 -0.2779
18164W        W38444   7.283  14.554  12.744 -0.0302 -0.0575  0.2084
18165W        W38445  12.207   0.140  11.993  0.1757  0.0247 -0.0385
18166W        W38446  18.421  19.395  13.496 -0.1989 -0.0097 -0.0623
18167W        W38447  13.693  10.945   1.147 -0.0546  0.4833  0.2329
18168W        W38448  10.525  14.518   3.465  0.0131 -0.2730 -0.0335
18169W        W38449  12.762  10.652   0.080  0.2678 -0.1242 -0.0490
18170W        W38450  13.298  14.721  10.809 -0.0829 -0.0326  0.0659
18171W        W38451  11.376  12.581   2.081  0.0453 -0.1015  0.1538
18172W        W38452   4.249  11.831  11.347 -0.3827 -0.1843 -0.1968
18173W        W38453  17.391   3.524  11.347 -0.0688  0.2964  0.0289
18174W        W38454   6.808   0.214  11.551 -0.1111  0.0561 -0.0722
18175W        W38455  11.688   9.828  13.650 -0.1755 -0.1737 -0.2989
18176W        W38456  18.753   7.882  13.331  0.3297  0.0336  0.0292
18177W        W38457  10.532   7.828  11.872 -0.1329  0.0259 -0.1108
18178W        W38458  11.838   7.195  12.414 -0.0506  0.1461 -0.0437
18179W        W38459   2.483   0.110  10.990 -0.2766 -0.3372 -0.2400
18180W        W38460   9.032   4.894  13.868 -0.3097  0.2221 -0.1128
18181W        W38461   9.315   0.317  13.996  0.1002  0.1091 -0.2138
18182W        W38462  14.698   2.051   4.352 -0.3388 -0.0752 -0.1273
18183W        W38463   5.752  16.493   9.990 -0.1962  0.1008 -0.3513
18184W        W38464  14.343   6.438  12.266 -0.0472  0.0287 -0.1550
18185W        W38465  14.638  12.793  13.131  0.2679  0.1350  0.2060
18186W        W38466   1.705  10.585  11.792 -0.3678  0.1852 -0.2984
18187W        W38467   7.276   2.379   4.057  0.1843 -0.0186  0.0664
18188W        W38468  13.521   9.414  11.448 -0.0162  0.2583  0.1071
18189W        W38469   9.665   5.011  11.481 -0.0222  0.0327  0.2505
18190W        W38470   8.837   6.724  13.309  0.3365  0.3408  0.0825
18191W        W38471   5.419   2.300   3.249 -0.2551  0.0549  0.2957
18192W        W38472   2.764  12.386  13.306 -0.0226 -0.3115 -0.0037
18193W        W38473  16.915   3.925   2.869  0.4213  0.0868  0.0523
18194W        W38474   8.413  16.698   1.807 -0.1487 -0.3476 -0.0318
18195W        W38475   5.210   3.561  13.552  0.2116  0.1987 -0.1005
18196W        W38476  14.057  18.477  14.212  0.2693 -0.0467  0.1305
18197W        W38477   8.743  17.014   2.732 -0.3892  0.0883 -0.0183
18198W        W38478  13.669   5.307   3.571  0.3310  0.1544 -0.0312
18199W        W38479  14.197   9.788  10.526  0.1337 -0.1412 -0.1364
18200W        W38480   3.615  16.819  10.604  0.1792 -0.1664 -0.0213
18201W        W38481  14.481  18.140   2.056 -0.3262 -0.1457 -0.2760
18202W        W38482   1.014  17.824  11.977  0.4945 -0.1094  0.1039
18203W        W38483  12.567  11.366  12.081 -0.0918 -0.0349  0.1591
18204W        W38484  13.606  10.342   2.990 -0.3760 -0.0804  0.2569
18205W        W38485  17.844  17.888   3.593  0.0987 -0.1968 -0.3068
18206W        W38486   7.124   1.743  10.911  0.2204 -0.3069  0.0011
18207W        W38487   0.415  10.492  10.834  0.2055  0.0770  0.2481
18208W        W38488   0.647  12.881  13.770  0.0349 -0.0425 -0.0319
18209W        W38489  15.511   3.508   2.057 -0.3683 -0.2333  0.1170
18210W        W38490  13.272  13.878  13.706  0.3354  0.0643 -0.3641
18211W        W38491  11.200   3.770  13.387 -0.0967  0.1005  0.1744
18212W        W38492  10.556   9.900  12.024  0.0946  0.0325 -0.2146
18213W        W38493   8.257  10.670  10.284  0.0149  0.0405  0.1801
18214W        W38494  12.412  12.944   0.046  0.0952  0.2629  0.1148
18215W        W38495  10.490   2.568  12.266  0.0510 -0.1935  0.0290
18216W        W38496  15.956   8.794  10.808  0.2731  0.0807  0.1064
18217W        W38497  14.305   3.193   0.094  0.0647  0.1435  0.1695
18218W        W38498   8.882   4.671   3.131  0.1365 -0.0078  0.3741
18219W        W38499  15.381  12.828   3.191 -0.1464 -0.1301 -0.1049
18220W        W38500  13.412   4.739   2.926  0.1435 -0.1128 -0.4456
18221W        W38501  15.345  17.524   1.133  0.1462 -0.2393 -0.0671
18222W        W38502  17.846  13.641  11.790  0.1303 -0.0617  0.0409
18223W        W38503   0.198  10.900  13.473  0.2168  0.0659 -0.0606
18224W        W38504   1.290  12.850  13.654 -0.1926 -0.0806  0.1452
18225W        W38505   0.395  11.108   1.951  0.1902 -0.1066  0.3209
18226W        W38506  18.692  11.253  11.409  0.0317 -0.1013  0.0828
18227W        W38507  11.201  18.729   4.002  0.0577  0.2871 -0.0018
18228W        W38508   6.204   8.104   1.238 -0.0479 -0.0309 -0.0370
18229W        W38509  13.028   1.723  11.734 -0.3352 -0.1296 -0.0318
18230W        W38510   2.713  12.547  12.766  0.1699 -0.1833  0.1181
18231W        W38511   3.106  15.830   1.964 -0.4204 -0.2349  0.0672
18232W        W38512  18.818  16.322   1.568 -0.2395  0.4387  0.0976
18233W        W38513  11.995  13.064   2.138 -0.1266  0.1879  0.0412
18234W        W38514   4.951  11.636   0.369 -0.2448 -0.1628 -0.3393
18235W        W38515  11.317  17.490  12.182 -0.0053 -0.2306 -0.0037
18236W        W38516  15.118  17.235   3.189  0.1606  0.1627  0.1673
18237W        W38517   9.568   5.824   1.602  0.0961  0.2025  0.0160
18238W        W38518  14.093  10.925  11.460 -0.1339 -0.1123 -0.3041
18239W        W38519  12.946  18.895   3.087  0.0695  0.1671  0.3201
18240W        W38520   1.014  14.708   2.024 -0.1038  0.1141  0.1040
18241W        W38521   9.570  10.065  12.158  0.1923 -0.0555 -0.1117
18242W        W38522   2.668   7.447   4.067  0.0130  0.2893  0.2254
18243W        W38523   8.011   0.214   3.939 -0.4601 -0.1403  0.0232
18244W        W38524  16.177   7.771  13.595  0.1466  0.0887 -0.1984
18245W        W38525  10.264   1.314  12.789 -0.0699  0.1149 -0.1009
18246W        W38526  12.252  15.985  11.062  0.2056 -0.1029  0.0175
18247W        W38527   6.821  14.540  12.379  0.1799  0.0319  0.1371
18248W        W38528   6.607  11.624  11.423 -0.0488 -0.1390 -0.0389
18249W        W38529   4.035  11.067  14.401 -0.0019  0.0739  0.2216
18250W        W38530  10.504   8.275  13.287 -0.1527  0.0189  0.0551
18251W        W38531   4.150  12.604   0.614 -0.0765 -0.1227 -0.0538
18252W        W38532   5.276   2.363   5.073 -0.0295 -0.1410  0.0342
18253W        W38533  11.996  10.172   3.040  0.2717 -0.1259  0.1599
18254W        W38534  11.135   8.332   2.419 -0.2513  0.1353  0.1540
18255W        W38535  18.645   6.581  12.078 -0.1132 -0.3776  0.4432
18256W        W38536   6.106  14.007  12.048 -0.1416  0.0586  0.1250
18257W        W38537  15.354  14.956   2.404  0.1051 -0.0290  0.2469
18258W        W38538   1.236  12.253   3.515  0.1552  0.3382 -0.1605
18259W        W38539   3.001  10.196  10.501 -0.0007 -0.2551  0.2231
18260W        W38540  18.887   4.028   2.085 -0.2064 -0.1441 -0.0264
18261W        W38541   5.092   3.119  10.987 -0.0879  0.0165 -0.2180
18262W        W38542   4.795  14.089  13.363 -0.0232 -0.0608 -0.1919
18263W        W38543   1.085   3.964  13.015 -0.0208 -0.1697 -0.0114
18264W        W38544  18.230   7.457   3.352 -0.4092  0.3633  0.3621
18265W        W38545   3.706   9.081   2.445  0.1015 -0.0149  0.1623
18266W        W38546  12.827  13.159  14.431  0.0060 -0.2425 -0.1799
18267W        W38547   4.329   8.560  12.925  0.2662 -0.2443  0.0606
18268W        W38548  12.183  12.026   0.261  0.0445  0.2110 -0.0861
18269W        W38549  13.273   6.696   3.137 -0.2394 -0.2478  0.2538
18270W        W38550   8.757   9.781   2.233  0.2175  0.2417  0.0858
18271W        W38551  12.823   3.123   0.433  0.3271 -0.1525 -0.0593
18272W        W38552  11.980   4.327   0.448 -0.2273  0.0998  0.1398
18273W        W38553   0.102   4.808  10.883 -0.0473 -0.0881  0.1397
18274W        W38554  12.479   9.454   1.641 -0.2848 -0.0011 -0.0559
18275W        W38555  17.965   7.852  11.175 -0.0490  0.4372 -0.1802
18276W        W38556   3.260   7.427   1.933 -0.2165 -0.2993  0.3679
18277W        W38557  10.505  13.223   2.006 -0.4424  0.1539  0.1286
18278W        W38558   9.383   2.564   2.233 -0.1513 -0.5028  0.2004
18279W        W38559   4.120  15.244  13.678 -0.0597  0.0100  0.3084
18280W        W38560   8.787  12.775  10.806  0.1402  0.1925 -0.1294
18281W        W38561  19.205  14.173  13.499  0.1677 -0.4221  0.0853
18282W        W38562  11.879   0.168   3.998  0.3756 -0.0456 -0.2187
18283W        W38563   0.532   2.575  11.935 -0.0728 -0.1128 -0.1636
18284W        W38564   4.588  11.374  13.432  0.1358  0.0087 -0.0279
18285W        W38565   1.419  17.928   1.232 -0.1262 -0.0334  0.1802
18286W        W38566   7.903  18.036   2.706 -0.1395 -0.4089  0.1376
18287W        W38567   2.632   8.312   2.120  0.0020  0.2410  0.1413
18288W        W38568  17.636  15.638   1.230 -0.1257 -0.3530 -0.1183
18289W        W38569   0.517  10.863  11.171  0.0698 -0.0563 -0.3489
18290W        W38570   3.821  10.617  12.037  0.4586 -0.0182  0.1627
18291W        W38571   9.597  12.071  14.412  0.1797 -0.0000 -0.1926
18292W        W38572  13.236   9.551  12.247 -0.0366  0.0832 -0.0222
18293W        W38573   6.816  12.325  12.428 -0.3442  0.0188  0.1861
18294W        W38574  14.500  18.910   0.753 -0.0956  0.2757 -0.1219
18295W        W38575  13.077  16.575  12.483 -0.0101  0.0445 -0.0895
18296W        W38576  13.644  12.563  12.955  0.1756 -0.5334  0.0630
18297W        W38577   7.279   6.644   1.163 -0.2876 -0.0440 -0.0898
18298W        W38578   3.808   6.424  10.581  0.1174  0.0537  0.0297
18299W        W38579   4.387   3.836   2.845 -0.0221 -0.6853  0.4890
18300W        W38580   3.055  14.086  13.815 -0.1411 -0.1000 -0.0966
18301W        W38581  12.184   8.636   3.576  0.0371  0.0264  0.1376
18302W        W38582  15.367  12.686  13.906  0.1359 -0.1282  0.0282
18303W        W38583  18.439   8.668   1.522 -0.3335  0.3395  0.3177
18304W        W38584   1.940   2.696  11.499 -0.1095 -0.2445  0.1624
18305W        W38585  15.733   1.859  10.756  0.0144  0.0847  0.1760
18306W        W38586   1.776  18.027  11.543  0.2821 -0.0313 -0.0547
18307W        W38587  16.123   0.879  12.842 -0.1660  0.1418  0.0302
18308W        W38588  19.120   4.304  14.251 -0.2572 -0.0081 -0.2605
18309W        W38589   0.836  17.182  12.745  0.0522 -0.1221 -0.0832
18310W        W38590   7.826   9.623   0.577 -0.2933 -0.0476  0.2150
18311W        W38591  19.196   6.328   3.121  0.0384  0.2051 -0.0059
18312W        W38592  16.676  15.902  12.862  0.1225 -0.0267 -0.1308
18313W        W38593   9.783   3.275  14.417  0.4326 -0.2332  0.0566
18314W        W38594  15.767   6.982   9.371  0.1520 -0.2099 -0.1089
18315W        W38595  19.258  13.263   2.879 -0.0608  0.2654 -0.3364
18316W        W38596  13.146  14.490   4.122 -0.0461 -0.3814 -0.1533
18317W        W38597   1.026   6.833   0.327 -0.2327 -0.1098  0.1540
18318W        W38598   1.068  15.373  10.776  0.0687  0.0423 -0.0337
18319W        W38599  14.612   4.286  11.341 -0.2370  0.1494  0.3059
18320W        W38600   3.946  13.016  10.625 -0.0218  0.0619 -0.2529
18321W        W38601   1.807   5.340  11.814  0.2026 -0.1466  0.3558
18322W        W38602  13.774   5.722   1.470  0.2543  0.1350 -0.2768
18323W        W38603   8.864   0.187  11.041 -0.0237 -0.1342 -0.2152
18324W        W38604   4.502   2.815  12.543 -0.0962  0.1100 -0.1344
18325W        W38605   7.877  17.395   2.215 -0.0672 -0.1689 -0.2944
18326W        W38606   0.875   5.449   4.544  0.0700 -0.1314  0.2242
18327W        W38607   8.002   2.767  11.695  0.1069  0.2266  0.0632
18328W        W38608   1.161   7.624   3.891 -0.1307 -0.0050 -0.0136
18329W        W38609  11.047   1.098   2.321 -0.4472 -0.1042 -0.0598
18330W        W38610  17.504   2.544  13.895  0.0421 -0.1829 -0.0568
18331W        W38611   5.544   2.173  12.369 -0.2090  0.0180 -0.0017
18332W        W38612  15.504   2.435  10.827  0.3643  0.0710 -0.3335
18333W        W38613   8.177  12.179   1.031  0.0785 -0.0280 -0.1494
18334W        W38614   8.279   9.633   9.513 -0.1462  0.1992  0.0518
18335W        W38615   8.036  15.085   1.057 -0.1177 -0.2213  0.1228
18336W        W38616  13.245   7.884  13.564 -0.3534 -0.1828 -0.0128
18337W        W38617  13.758   6.728   2.394  0.0342  0.2725  0.3569
18338W        W38618  19.109   0.353   9.726  0.2937 -0.1629 -0.2987
18339W        W38619   4.927   4.331  14.123  0.3767  0.1162 -0.3317
18340W        W38620  14.364  14.039  12.748 -0.1547 -0.0236  0.1643
18341W        W38621   8.296  18.752  13.112  0.2812 -0.1763 -0.3231
18342W        W38622   6.234  18.921  14.442  0.1988 -0.0619  0.0454
18343W        W38623  10.723  18.346   1.793  0.1638 -0.0423  0.1092
18344W        W38624   3.605   4.205  11.859  0.2392 -0.3666  0.1856
18345W        W38625  12.458   8.592  13.947  0.0123 -0.0809 -0.0612
18346W        W38626  17.000   4.337   3.608 -0.0931 -0.2786 -0.0584
18347W        W38627  18.261   5.709  13.604  0.5299  0.2113  0.2024
18348W        W38628  13.691   1.370  12.753 -0.2669  0.0511  0.0049
18349W        W38629  11.316  14.370   0.519  0.0613  0.0050  0.2103
18350W        W38630  14.787   4.781  13.434 -0.0791  0.0717  0.0478
18351W        W38631   8.989   6.198  10.861  0.0594 -0.0828 -0.1012
18352W        W38632  12.942  10.400  11.769 -0.2420  0.0645 -0.1085
18353W        W38633  12.536  19.407  11.556 -0.0210 -0.2717 -0.1953
18354W        W38634  16.265   5.814  12.443  0.1804  0.3958  0.0692
18355W        W38635  18.042   6.368   9.482  0.1634 -0.1225  0.3456
18356W        W38636   3.599  18.293   1.359  0.0568 -0.2687 -0.2253
18357W        W38637  18.897  14.874   1.892 -0.0853 -0.1541 -0.3467
18358W        W38638   4.047   5.882   3.482  0.2884  0.1221  0.5506
18359W        W38639  12.974  12.260   0.639  0.0514 -0.2808 -0.1820
18360W        W38640   5.223  15.940  12.228 -0.1177 -0.0886  0.3103
18361W        W38641  17.388  13.574  12.639 -0.1301 -0.1646 -0.0193
18362W        W38642   5.284   2.826  14.170 -0.1782 -0.2538  0.1077
18363W        W38643  12.081   6.257  14.121 -0.0941 -0.1408 -0.2902
18364W        W38644   5.638   5.996   2.768  0.0888 -0.0137 -0.2747
18365W        W38645   9.122   3.792   0.070 -0.2074  0.3017  0.2914
18366W        W38646  14.291   7.894   0.002  0.1033  0.3851  0.2265
18367W        W38647  19.247  15.731   0.531 -0.1585  0.1206 -0.0362
18368W        W38648  18.081  18.659  11.372 -0.0476 -0.1184  0.2829
18369W        W38649   4.818  13.834  11.258 -0.1179  0.0654  0.2121
18370W        W38650   0.260  11.539  12.772 -0.1648  0.0611 -0.0143
18371W        W38651   9.897   0.452   2.438  0.0609 -0.1831 -0.0279
18372W        W38652  13.729   9.066   0.975  0.3336 -0.0523 -0.2668
18373W        W38653  19.303  10.976   9.102 -0.3263  0.0255 -0.3135
18374W        W38654   3.412   0.589  14.412  0.2657 -0.2462  0.2473
18375W        W38655  16.243   3.974   2.431  0.0048 -0.0743 -0.0304
18376W        W38656   0.805   4.421  12.675 -0.0172 -0.1175 -0.0444
18377W        W38657  16.951   1.737   3.816 -0.1014  0.2797  0.1726
18378W        W38658   1.934   4.469   0.517  0.3249 -0.3379 -0.0621
18379W        W38659  12.060   4.784   3.606  0.1555  0.2879  0.1345
18380W        W38660  15.449  13.743   1.799 -0.1003  0.3349 -0.0901
18381W        W38661  18.100  12.762  12.308 -0.5328  0.1440 -0.0898
18382W        W38662   4.334   0.211   3.145  0.1077  0.0625  0.1582
18383W        W38663   2.373   2.189   0.327 -0.4620 -0.1216  0.2725
18384W        W38664  16.436  14.691  13.155  0.1882  0.0853 -0.0443
18385W        W38665   7.661   5.267   0.900  0.0090 -0.1432 -0.3270
18386W        W38666   7.856  15.098  11.516 -0.0924  0.0658  0.3608
18387W        W38667   0.095   0.564  12.734  0.1417  0.2093  0.2452
18388W        W38668  18.428  10.527   0.376  0.0371 -0.1822 -0.2210
18389W        W38669  13.533  18.648   3.252 -0.5419  0.0194  0.2250
18390W        W38670   5.631  13.378   1.536 -0.1384  0.0684  0.2120
18391W        W38671   7.088  11.465  12.213  0.2516  0.1761 -0.0016
18392W        W38672  14.084   6.860  14.046 -0.0648  0.5751  0.1095
18393W        W38673   6.282   5.995   1.899  0.1428 -0.2288  0.2373
18394W        W38674  17.444  14.637  10.707  0.1913  0.0099 -0.1673
18395W        W38675  15.631  18.719  11.341  0.0386  0.2720 -0.2951
18396W        W38676  13.217   4.890   4.347 -0.0172  0.1541  0.1417
18397W        W38677   5.017   8.352  12.527 -0.0278 -0.0032 -0.0328
18398W        W38678   9.474   2.835  13.116 -0.0515 -0.2485  0.2693
18399W        W38679  10.860   6.111  13.894 -0.3109 -0.1898 -0.2595
18400W        W38680  17.907   9.916  14.071  0.0587 -0.1824  0.1679
18401W        W38681  16.834   4.187   0.101 -0.1360  0.0032 -0.3973
18402W        W38682  10.552   7.306  11.711  0.1452 -0.1074  0.0354
18403W        W38683  12.805  11.408  12.538 -0.0244  0.0376  0.0079
18404W        W38684   9.296   1.666  13.116 -0.0265  0.0617 -0.2530
18405W        W38685  11.442   1.629   4.057  0.2616  0.0821  0.4050
18406W        W38686   4.885  13.573   0.178 -0.2305 -0.1110  0.0290
18407W        W38687   8.204   3.859   2.776 -0.2654 -0.1949 -0.2860
18408W        W38688  10.243   4.136  11.318  0.0943  0.0951  0.1000
18409W        W38689   1.777   9.932  14.116  0.0510 -0.2584  0.1966
18410W        W38690  12.329   0.486  11.581 -0.0076 -0.1499  0.0281
18411W        W38691   4.317  17.649   1.894  0.1261 -0.0777  0.0813
18412W        W38692   4.856   8.574  13.274 -0.1278  0.3819  0.1025
18413W        W38693  10.606  11.195   1.672  0.1661  0.2115  0.1640
18414W        W38694  13.335   9.879   1.369  0.3394  0.0805  0.1235
18415W        W38695  11.346  12.213   3.547  0.1083  0.2016  0.2555
18416W        W38696  11.007  18.650  14.346  0.0006  0.0943 -0.2604
18417W        W38697   3.148   3.160   0.145 -0.1899 -0.0987 -0.3142
18418W        W38698  18.377  14.390   0.667 -0.2378 -0.0396  0.1202
18419W        W38699   6.632   2.657  12.087  0.2179 -0.0826  0.0781
18420W        W38700   2.979   5.297  13.590 -0.3604 -0.0752  0.1007
18421W        W38701  15.742   9.423   0.501  0.2885 -0.0806  0.0203
18422W        W38702  17.271   0.535   4.008 -0.1144 -0.2179  0.0196
18423W        W38703  15.722   1.234   3.155 -0.1185 -0.3993 -0.5354
18424W        W38704   4.424   2.960  13.082 -0.1832  0.1980  0.3311
18425W        W38705  13.267  18.644   2.029 -0.1404 -0.0931  0.0321
18426W        W38706   2.789  11.370   8.981 -0.1357 -0.2373  0.1358
18427W        W38707   5.940  10.656  10.487  0.0231  0.0824 -0.2111
18428W        W38708   4.514   3.889  11.019 -0.1901 -0.0308 -0.0494
18429W        W38709  17.621   5.124  12.415 -0.0332  0.4004  0.1331
18430W        W38710  16.786  13.629  12.074 -0.3231  0.0943 -0.2010
18431W        W38711   1.139  17.405  13.166  0.3247 -0.1632  0.1595
18432W        W38712   5.440   6.803  12.433  0.0603 -0.0308 -0.1426
18433W        W38713   3.372   2.708   0.067  0.0344 -0.1373 -0.2491
18434W        W38714  10.190  10.488   4.083  0.1721 -0.0426 -0.1293
18435W        W38715   9.211   1.836   0.083  0.1758 -0.2953 -0.1118
18436W        W38716   5.022   4.990  11.505  0.3226  0.2402 -0.2502
18437W        W38717  16.890   4.173   0.653  0.4479 -0.0480 -0.1022
18438W        W38718   4.655   4.394  10.933  0.2801  0.1546  0.2230
18439W        W38719   5.280   6.071  13.540  0.1105  0.2138 -0.3368
18440W        W38720   5.754  17.935   1.701 -0.0169  0.2208  0.0558
18441W        W38721   0.514  12.302  10.707  0.0773 -0.1573  0.0835
18442W        W38722   5.896   0.097   2.627 -0.0065  0.0210  0.2719
18443W        W38723  14.432  10.889  12.786 -0.0220  0.1173  0.0996
18444W        W38724   5.336   2.874   5.052 -0.0022  0.0800  0.1899
18445W        W38725  11.962   6.891   2.848 -0.1093  0.1289  0.1307
18446W        W38726  10.136   1.973   3.445  0.1951 -0.0211  0.2408
18447W        W38727   1.321  13.527  10.340  0.1879  0.1330 -0.1186
18448W        W38728  10.022  17.708   3.368 -0.5116 -0.0428  0.2609
18449W        W38729   0.654   0.332   3.880  0.0676  0.0816  0.0309
18450W        W38730  17.201  15.723  13.483 -0.1583  0.3318 -0.0500
18451W        W38731   1.874   2.470   1.106  0.1339 -0.1960 -0.2990
18452W        W38732  17.644   2.423   3.283  0.3081 -0.1181  0.0125
18453W        W38733   1.904   2.092   2.658 -0.5031 -0.1345  0.2668
18454W        W38734   9.131  16.094  10.379 -0.0477  0.2940  0.3444
18455W        W38735   5.173  14.357  14.090  0.0694  0.3238  0.2881
18456W        W38736  19.243  10.140  14.297 -0.1037  0.0248 -0.1025
18457W        W38737   5.787   4.198  10.662 -0.1661 -0.1499 -0.0685
18458W        W38738  18.905   0.856   4.343 -0.1249  0.2659  0.0651
18459W        W38739   5.005  17.130   3.128 -0.0059 -0.0821  0.0509
18460W        W38740   0.526   6.610  11.543  0.1638  0.2064 -0.0337
18461W        W38741   6.988  10.875  10.288  0.1914 -0.2875  0.0640
18462W        W38742  10.488  11.796  12.753 -0.1027  0.2013  0.1569
18463W        W38743  15.456  11.833   0.830  0.2681 -0.1769 -0.1665
18464W        W38744  10.838   8.625  11.534 -0.0598 -0.0070  0.0927
18465W        W38745  17.883  11.805  12.342  0.4715  0.1046  0.1735
18466W        W38746   1.315   4.070  14.054  0.0359 -0.0368  0.1446
18467W        W38747  18.571   8.553   1.047  0.0365  0.1709  0.3198
18468W        W38748   2.051   0.038   3.807 -0.2552 -0.0026  0.0886
18469W        W38749   3.562   2.934   3.959  0.0862 -0.0699 -0.0928
18470W        W38750  17.403  14.202   4.269 -0.2810  0.1027 -0.0171
18471W        W38751  16.525  11.938  12.761 -0.1750  0.2035 -0.1319
18472W        W38752  12.653  12.805  12.449 -0.0619  0.0888  0.0992
18473W        W38753   0.770   8.345   1.633  0.1771  0.1545  0.2165
18474W        W38754  14.516  12.841   3.161 -0.2601 -0.0591  0.1703
18475W        W38755   2.465  17.578   1.272  0.2501  0.1025 -0.0005
18476W        W38756  12.916   9.769   4.032 -0.0221  0.0703  0.0924
18477W        W38757   6.006  19.306   1.768  0.0196  0.0337  0.0007
18478W        W38758   7.279  17.306   4.495  0.3549 -0.0669  0.1110
18479W        W38759  13.452   9.598  12.777  0.1112  0.1458 -0.3942
18480W        W38760   0.091  15.733  11.760  0.2071  0.0852 -0.0079
18481W        W38761   1.506  11.033   0.910  0.0013 -0.2248  0.1173
18482W        W38762   8.881  19.200   0.206  0.1150 -0.1430  0.0756
18483W        W38763   9.116   8.905  11.587 -0.0746  0.0043 -0.3050
18484W        W38764   2.308  11.335  14.028  0.0202  0.1090 -0.2641
18485W        W38765  13.278  18.884  11.726 -0.2191 -0.2145 -0.0272
18486W        W38766   8.678   7.631  14.397 -0.1079  0.0703 -0.2814
18487W        W38767  11.794   5.243  12.039 -0.1210  0.0997  0.1993
18488W        W38768  13.868  14.101  11.563 -0.0205 -0.0204 -0.0090
18489W        W38769  18.195   1.502   3.248  0.1448  0.1023  0.0695
18490W        W38770  12.908  11.172   1.066 -0.0378 -0.2763 -0.3740
18491W        W38771  17.861   8.366   3.103  0.3175  0.1996  0.3006
18492W        W38772  10.619   5.067  12.308  0.2756  0.1753  0.0653
18493W        W38773  18.426  18.919   5.143  0.0437 -0.1359  0.1264
18494W        W38774   4.483   2.049   3.065 -0.0903 -0.2446 -0.0543
18495W        W38775   9.450   3.749  10.029 -0.0095  0.2641  0.2180
18496W        W38776  16.104   6.455  10.514 -0.4317 -0.1950  0.1467
18497W        W38777   6.445   4.273  13.973  0.4536  0.0777  0.0805
18498W        W38778   3.894  12.800   2.959 -0.0733  0.2738  0.4036
18499W        W38779   8.972   0.824  13.095  0.2516 -0.0908 -0.4125
18500W        W38780  19.383  17.550  13.152 -0.1296  0.4313 -0.2255
18501W        W38781   8.692  10.554  13.944  0.0679  0.0214  0.0384
18502W        W38782  17.424   4.564   2.813  0.0141 -0.0541  0.2455
18503W        W38783  11.988  12.940  13.014 -0.1543  0.2495  0.1725
18504W        W38784   2.971   1.954   2.076  0.0105  0.3669 -0.0093
18505W        W38785   2.656  16.621  10.264  0.0345 -0.1253  0.7046
18506W        W38786  13.081  14.963  13.839  0.2658 -0.4061 -0.0577
18507W        W38787  17.416   9.649   1.353 -0.1520 -0.0968  0.0315
18508W        W38788  14.214  15.186   2.238  0.0145 -0.2078 -0.0288
18509W        W38789   1.216   3.716   1.091  0.1346 -0.2152  0.2041
18510W        W38790  10.369   9.254  13.116 -0.0230  0.1486  0.5166
18511W        W38791  15.817  17.461   3.406  0.0432 -0.1109 -0.1074
18512W        W38792  14.599   3.962   1.331 -0.0209  0.0101 -0.0087
18513W        W38793   7.588  18.803  13.115  0.1759  0.1721  0.2557
18514W        W38794   7.928  19.315   3.527  0.2978  0.3962  0.3062
18515W        W38795  19.141   5.971  11.015 -0.0692  0.1530 -0.1848
18516W        W38796  15.198  15.952   3.717 -0.0008 -0.0458  0.0956
18517W        W38797   8.404   9.002  14.229  0.3205  0.2310 -0.2962
18518W        W38798  12.397   7.089   3.466 -0.2861 -0.2870 -0.2800
18519W        W38799   9.020   2.978  12.007  0.0380  0.1716 -0.1750
18520W        W38800   6.558  18.065   0.586  0.3947 -0.0426  0.0196
18521W        W38801  17.642   9.285  11.129 -0.0260 -0.1577 -0.0870
18522W        W38802  11.722  11.608   3.444 -0.0363  0.1028 -0.0467
18523W        W38803   7.870  13.515   4.600 -0.3105  0.0042 -0.0229
18524W        W38804   5.153   9.360   1.037 -0.0620 -0.0867  0.1098
18525W        W38805   2.916   4.228   1.861  0.0394  0.0282  0.2564
18526W        W38806   8.056   9.312   3.082  0.3354  0.0512 -0.0194
18527W        W38807   1.300  15.883  13.314  0.1762  0.2241  0.0586
18528W        W38808   9.751   6.858  13.455 -0.1507 -0.0014  0.0748
18529W        W38809  14.742  14.500  11.253  0.2401 -0.1417  0.0437
18530W        W38810  11.004  19.384   1.545  0.1761  0.0223  0.1945
18531W        W38811   3.378  14.839  13.795 -0.3329  0.0028 -0.2134
18532W        W38812   3.354   0.795   1.675 -0.0369  0.1731  0.0162
18533W        W38813   3.161   8.733   4.728 -0.0271  0.0227 -0.0427
18534W        W38814  17.930  18.270   1.400 -0.1389 -0.3117  0.2414
18535W        W38815  10.581   7.455  12.935 -0.1970  0.1198 -0.1790
18536W        W38816  12.213  19.187   5.528  0.0613  0.3265  0.1332
18537W        W38817  11.975  16.221   1.658  0.1253 -0.0031 -0.2714
18538W        W38818   0.696   3.213   3.970  0.1632 -0.0856  0.0592
18539W        W38819   1.329   9.053  13.295 -0.0853  0.3021  0.2847
18540W        W38820   9.662   9.003   2.313 -0.1202 -0.0368 -0.0166
18541W        W38821   4.599  11.035   1.714 -0.1289 -0.0144  0.1918
18542W        W38822   8.050   1.711  10.989 -0.0721 -0.2655 -0.1902
18543W        W38823   9.063  13.102  11.686 -0.0742  0.2645  0.0053
18544W        W38824   4.038  17.002  11.485 -0.1389 -0.0271  0.1987
18545W        W38825  18.879   8.292   3.076 -0.0742 -0.2103  0.0263
18546W        W38826   9.604  14.745   1.086 -0.0863 -0.0361 -0.0993
18547W        W38827   7.733   4.031  14.330 -0.3539 -0.2687  0.0118
18548W        W38828   1.243   8.765   3.225 -0.1385 -0.0545  0.0770
18549W        W38829   5.090   9.967   3.483 -0.0750 -0.5188 -0.2075
18550W        W38830   4.664  19.415   0.756  0.1335  0.0797 -0.1072
18551W        W38831   2.540   2.051  12.221  0.0226  0.0657  0.0712
18552W        W38832  18.922   8.802   1.593 -0.0904 -0.1025  0.0662
18553W        W38833  14.249   8.413   1.846  0.0781 -0.2953  0.0828
18554W        W38834   7.627   2.328   2.611  0.0626 -0.1113  0.3562
18555W        W38835   2.407  15.120  11.990 -0.0952  0.2167  0.0818
18556W        W38836   6.182   6.958   3.644  0.1091 -0.1513 -0.0654
18557W        W38837  15.096  13.964  13.221 -0.2037  0.1508 -0.1443
18558W        W38838  14.489  12.493  12.434 -0.2717 -0.3720 -0.0512
18559W        W38839  13.379  17.671   3.546  0.0820  0.2308  0.0213
18560W        W38840  17.746   2.545  13.408 -0.1285 -0.0524  0.0130
18561W        W38841   1.965  14.773   3.641  0.0391  0.0675  0.1931
18562W        W38842   2.214   8.004  13.206  0.1164 -0.2948  0.0175
18563W        W38843   5.299  12.427   3.387  0.1214  0.0703 -0.1754
18564W        W38844  10.372   4.424   3.553 -0.0590 -0.1355  0.0350
18565W        W38845   0.739   1.486  14.337 -0.0050  0.0403  0.3268
18566W        W38846   9.459  16.513  13.413  0.2370 -0.1746  0.0361
18567W        W38847  14.917   9.251  11.751  0.1125 -0.1018 -0.0453
18568W        W38848   8.820  11.878   2.826  0.0587  0.0943  0.1258
18569W        W38849  12.849  10.122  10.566  0.1385  0.4168  0.2242
18570W        W38850   8.069   9.886  14.034 -0.1111  0.1628 -0.1790
18571W        W38851  16.555   7.385   2.328  0.1606 -0.0664 -0.1875
18572W        W38852   9.830   6.203  10.962 -0.0974 -0.1423  0.1151
18573W        W38853   8.969  16.634   2.476 -0.0817 -0.3210  0.0981
18574W        W38854  15.859   7.533  12.397  0.0761  0.1612  0.1582
18575W        W38855  16.385   7.874   3.555  0.0090  0.1194  0.3726
18576W        W38856   5.162   2.145   1.593  0.4360 -0.0342 -0.1901
18577W        W38857  11.671  10.033  11.474 -0.2235 -0.0997  0.3418
18578W        W38858  18.430   6.758  14.202  0.2066  0.1149  0.0020
18579W        W38859  14.456   0.477   9.940  0.1551  0.0454 -0.4326
18580W        W38860  11.420   4.308  11.929 -0.0146 -0.0328  0.2071
18581W        W38861   1.294   3.466  11.502  0.2905 -0.1999 -0.1049
18582W        W38862  17.702  13.227   0.359 -0.1572 -0.3658 -0.0841
18583W        W38863  18.915   0.096  14.396  0.0466 -0.1245  0.4855
18584W        W38864   1.672   1.301   2.104 -0.0307  0.2890  0.2244
18585W        W38865   5.847   1.834  10.853 -0.0921  0.2110  0.0880
18586W        W38866   1.510   2.114   4.074  0.2210 -0.2233  0.2433
18587W        W38867   2.392   9.731   2.286 -0.3419  0.3989  0.0559
18588W        W38868   5.214  19.167  10.850  0.1488 -0.0858 -0.0954
18589W        W38869   3.600  14.192  13.947 -0.0949 -0.1337  0.1729
18590W        W38870   9.322   5.195  11.752  0.0924 -0.0161 -0.2351
18591W        W38871   5.755   6.493   3.864  0.1485  0.1888  0.2170
18592W        W38872  15.687   6.239  11.147 -0.2798 -0.0554 -0.1461
18593W        W38873   2.046   4.977   2.488 -0.0713  0.2822  0.0055
18594W        W38874  15.175   8.070  11.646  0.0950  0.0778  0.1649
18595W        W38875   7.699   9.236  11.274  0.1762 -0.0967 -0.1808
18596W        W38876   1.275   8.945  10.278  0.2344 -0.3481 -0.5286
18597W        W38877   4.016  14.079   3.874  0.2648  0.1236  0.0442
18598W        W38878  10.103   1.026  12.236 -0.3543  0.0688  0.1153
18599W        W38879   3.185   5.231  11.910 -0.0038  0.0651 -0.2945
18600W        W38880   3.959   6.043   1.174 -0.2940 -0.0620  0.0347
18601W        W38881   4.388   6.085  14.425 -0.1656 -0.3721 -0.0498
18602W        W38882   7.975  18.125   4.731 -0.1223  0.1993  0.0498
18603W        W38883  14.700   6.379  11.445  0.0157 -0.0425 -0.1485
18604W        W38884   8.013  16.553  12.882  0.0465 -0.2285 -0.0245
18605W        W38885  11.101   8.839  13.433 -0.1319  0.0897 -0.0608
18606W        W38886   9.629  15.759   9.877 -0.0004 -0.0880  0.0612
18607W        W38887  19.300  19.019  11.909  0.1591 -0.6062 -0.2598
18608W        W38888   9.360   3.535  14.125 -0.1922  0.0667 -0.5101
18609W        W38889   2.207  13.118  14.255 -0.0149 -0.4504 -0.2862
18610W        W38890   2.178   9.454  11.795 -0.0136  0.3324 -0.1137
18611W        W38891   6.417  16.542   3.042  0.1737  0.1173  0.2387
18612W        W38892   7.598  13.120  14.061 -0.0049 -0.2017 -0.2103
18613W        W38893   2.496  14.404  10.908  0.1088  0.2088  0.0441
18614W        W38894  16.126  13.061  12.913  0.1539 -0.4291  0.3036
18615W        W38895   2.539  11.926   0.509 -0.4728  0.0268  0.1601
18616W        W38896   0.203   7.912   4.355 -0.1199 -0.2695 -0.1866
18617W        W38897   5.574  14.643   5.010  0.2225  0.1908  0.0458
18618W        W38898  15.055   4.558  11.369 -0.0239  0.1604 -0.0356
18619W        W38899  13.050   6.224  11.205  0.0103  0.2571 -0.0406
18620W        W38900  15.784   5.617   3.554 -0.0080 -0.2471  0.2268
18621W        W38901  19.327  15.338  12.872  0.3921  0.1287 -0.0681
18622W        W38902  13.190   9.266  10.681 -0.0531 -0.2060  0.1302
18623W        W38903   3.454  15.855   2.328 -0.0777  0.0463  0.1510
18624W        W38904   0.442   3.353   0.249 -0.1473 -0.3060 -0.1284
18625W        W38905   4.597   2.953   0.509 -0.1228  0.1539  0.1155
18626W        W38906  18.950   9.715  11.966  0.2998  0.1088  0.1377
18627W        W38907   8.504  11.292  12.171  0.1452 -0.0751 -0.2936
18628W        W38908  12.559   8.888   3.802 -0.0551 -0.2688  0.1254
18629W        W38909  13.304  17.706   2.582  0.0675  0.1052  0.1755
18630W        W38910  12.725  10.774   0.774 -0.0542  0.0760 -0.1234
18631W        W38911  17.633  17.010   3.651  0.1888  0.0102  0.0460
18632W        W38912  10.206  16.849  11.794 -0.0053  0.0677 -0.2179
18633W        W38913   9.493   5.133   5.311 -0.1534 -0.2784  0.0987
18634W        W38914  16.866  15.407  10.875 -0.1436  0.2669  0.1297
18635W        W38915  12.121  17.976   4.688 -0.3977 -0.3336  0.1914
18636W        W38916  19.386  10.866   1.236  0.0748  0.0912  0.1481
18637W        W38917   7.347   6.967   2.832 -0.0018 -0.0863 -0.0384
18638W        W38918  15.850  10.582   0.012  0.0810  0.0648 -0.0376
18639W        W38919   4.395  13.164  11.430 -0.1554 -0.1603 -0.0482
18640W        W38920  12.668  18.936   4.293  0.1786  0.0948  0.0709
18641W        W38921   2.078   3.375   1.996 -0.0500  0.0765  0.1797
18642W        W38922   6.043   8.039  11.904  0.3575 -0.2275 -0.0923
18643W        W38923  15.668  15.903  12.215 -0.2250 -0.0229  0.1818
18644W        W38924   3.633  17.073  12.870  0.2727  0.1442 -0.1120
18645W        W38925  15.889   5.463  12.628  0.0550 -0.4021 -0.2625
18646W        W38926   1.422  14.929   4.948 -0.2965 -0.1009  0.2037
18647W        W38927  10.589  10.653  11.777 -0.3663 -0.1043  0.0279
18648W        W38928  17.634  19.101   3.111 -0.0112 -0.1212 -0.1214
18649W        W38929  11.782  16.777  12.679 -0.1626  0.0654  0.2096
18650W        W38930  11.811  10.523   3.790  0.2147  0.2557  0.0835
18651W        W38931  18.606   7.123  13.258 -0.3413 -0.2533 -0.1857
18652W        W38932  19.160  16.630  11.650  0.1210  0.0048  0.1622
18653W        W38933   9.685   6.543  13.896 -0.0438 -0.0968 -0.0826
18654W        W38934  14.923   8.424  13.971  0.0609 -0.0783  0.2868
18655W        W38935  13.104   7.841   9.701 -0.1116  0.0756 -0.1316
18656W        W38936  18.522   6.356   1.920  0.4446  0.1262  0.1335
18657W        W38937   5.051   4.709   4.520  0.1733  0.1846 -0.0240
18658W        W38938   3.968  16.767   2.309 -0.0144 -0.1163 -0.2081
18659W        W38939   4.130  14.860   1.759 -0.1563  0.3578 -0.2798
18660W        W38940   2.292   0.879   3.378  0.2300 -0.1102 -0.2863
18661W        W38941   5.512  18.177  12.114 -0.1947 -0.0912 -0.4277
18662W        W38942   0.200  19.087   5.097 -0.0410  0.4212 -0.1305
18663W        W38943   3.767  15.045  10.524 -0.1860 -0.0924  0.0617
18664W        W38944  10.912   1.600   2.308 -0.0171  0.1034 -0.2400
18665W        W38945  16.128  17.272   0.863 -0.0967 -0.2073  0.1518
18666W        W38946  19.066   7.080  13.489  0.2076  0.0333  0.1415
18667W        W38947  14.212  16.249   1.829 -0.2397  0.0783 -0.0461
18668W        W38948  11.935   5.191  11.512  0.1739  0.0070  0.1313
18669W        W38949   3.958  14.199   0.331 -0.0131  0.1377  0.1468
18670W        W38950   5.647  11.274   0.287 -0.2089 -0.1819  0.2830
18671W        W38951  15.082  12.383  11.137 -0.0835  0.3800 -0.0283
18672W        W38952   9.083   7.494  10.425  0.0415  0.1830  0.0425
18673W        W38953   0.188  17.892   1.153 -0.0532  0.0796 -0.2348
18674W        W38954  13.557  14.696   0.154 -0.1230 -0.1842 -0.0621
18675W        W38955  17.682  10.000   9.375  0.0092  0.0095  0.0421
18676W        W38956   1.823   7.906  11.830 -0.1221  0.1507  0.0424
18677W        W38957  16.429   1.480   9.852 -0.0228  0.0186 -0.2255
18678W        W38958   4.168  15.016   2.904  0.2259  0.1668  0.0129
18679W        W38959   9.044   5.548  13.311  0.2458 -0.1593 -0.0987
18680W        W38960   2.164  15.105  12.494  0.2960  0.0200 -0.0655
18681W        W38961   7.539   7.204   3.689  0.0948 -0.2060 -0.0237
18682W        W38962   9.309  11.251  12.442 -0.0596 -0.0984 -0.4221
18683W        W38963  15.464  10.487  13.018 -0.1765 -0.1501 -0.0438
18684W        W38964   4.532  18.553   3.770  0.3765  0.0118 -0.0482
18685W        W38965   4.530   0.122   3.834 -0.2488  0.2934 -0.1298
18686W        W38966   2.510  16.953   3.001  0.3009 -0.0370 -0.0672
18687W        W38967   0.505   1.318  13.473 -0.0394  0.2190  0.0644
18688W        W38968   0.074   2.539  11.761  0.0271 -0.2734 -0.0935
18689W        W38969   6.368   6.847  11.075 -0.0735 -0.1890  0.0735
18690W        W38970   3.790   8.737  13.096 -0.0644 -0.0877 -0.0478
18691W        W38971  10.039   1.511  13.209 -0.2833 -0.0417 -0.2262
18692W        W38972  16.974   8.667   3.120 -0.2685 -0.0165 -0.3079
18693W        W38973   3.000  15.744   2.494 -0.0180 -0.0089  0.1288
18694W        W38974  18.235  15.666  11.796  0.0328  0.1293  0.0617
18695W        W38975   3.342   6.667   0.853 -0.1822 -0.1113 -0.0090
18696W        W38976  18.464   4.425  13.579  0.2723  0.1409  0.0523
18697W        W38977   1.624   5.706   0.812 -0.1039 -0.0047 -0.0174
18698W        W38978   1.889   6.726   1.883  0.3651 -0.1811  0.1024
18699W        W38979   3.252   1.573  10.937  0.1748  0.1351  0.0013
18700W        W38980   6.842   0.225  12.611 -0.2512 -0.0739  0.1585
18701W        W38981  13.215   5.514   3.457  0.1530 -0.2385  0.1184
18702W        W38982  13.507   6.722   9.774 -0.4182  0.2026  0.0138
18703W        W38983  18.128   4.641  12.637 -0.0224  0.0345 -0.1216
18704W        W38984  18.989  13.050   3.225 -0.1756  0.0770 -0.1770
18705W        W38985   5.141   1.142   3.858  0.1958 -0.2420  0.1615
18706W        W38986  14.354   0.878   3.438 -0.2375  0.0853  0.2060
18707W        W38987   8.532   0.250   0.924 -0.1766 -0.0005 -0.1481
18708W        W38988  15.532   8.870   3.257 -0.0517 -0.0213  0.0700
18709W        W38989  17.061  15.282   1.493  0.0710  0.0405 -0.3800
18710W        W38990  12.177   9.752  11.516 -0.0402 -0.1396 -0.1914
18711W        W38991   0.719  13.984  14.433  0.1820 -0.0118  0.2041
18712W        W38992   7.855  14.851   4.032 -0.0515  0.0283 -0.0051
18713W        W38993   9.537  10.683   3.720  0.1225 -0.1107  0.1308
18714W        W38994  12.663   2.214  12.644 -0.0622 -0.1501 -0.3887
18715W        W38995   2.752   1.983  12.723 -0.1225 -0.0118  0.1513
18716W        W38996   8.407  18.816   1.104 -0.3943  0.3985 -0.1606
18717W        W38997   6.685  11.436   0.325 -0.1514 -0.1416  0.1061
18718W        W38998   3.760  18.016  13.730 -0.2663 -0.1628 -0.0100
18719W        W38999  16.438   2.745  10.558  0.2183 -0.0336  0.0889
18720W        W39000   4.963   9.578   4.314 -0.0483  0.0615 -0.0114
18721W        W39001   3.132   6.887   2.659 -0.0148  0.1154 -0.0401
18722W        W39002   6.503   3.168  12.029 -0.1802  0.0854  0.0752
18723W        W39003   1.607  15.182  12.808 -0.1337  0.0476 -0.2111
18724W        W39004   2.477  12.316  11.186 -0.0698 -0.1717 -0.2923
18725W        W39005   3.209   4.092  10.886 -0.3323 -0.0303  0.1563
18726W        W39006   5.527  14.331  11.353  0.1983 -0.2567  0.0345
18727W        W39007  14.991  17.402   1.556 -0.3611 -0.2807 -0.1328
18728W        W39008  17.557   8.760  13.746  0.0855 -0.1943  0.1296
18729W        W39009   5.356  14.325   2.166  0.1099 -0.0589  0.0344
18730W        W39010   6.640   4.185   3.373 -0.1084 -0.0527 -0.2954
18731W        W39011  17.850  15.022   1.810 -0.1726 -0.0234 -0.2322
18732W        W39012   5.686  16.317   1.647 -0.1809 -0.1454  0.0249
18733W        W39013  19.106   8.156   2.231 -0.3629  0.0909 -0.2817
18734W        W39014   4.929  15.236   0.773 -0.0618 -0.0897  0.0181
18735W        W39015  11.887  10.597   1.498  0.0085  0.0307 -0.1926
18736W        W39016  18.613   7.215  14.313 -0.2470  0.1074  0.0008
18737W        W39017   3.850   0.561  14.165  0.0100 -0.2278  0.3474
18738W        W39018   9.300   8.675   1.416 -0.0978  0.0029  0.0203
18739W        W39019   3.143  12.321  13.014 -0.2982  0.0491  0.0137
18740W        W39020   1.512   8.458  11.092 -0.1193 -0.2732  0.1535
18741W        W39021   7.220  14.991  12.985  0.1255  0.0783 -0.1329
18742W        W39022   8.371  14.192   1.002 -0.1369 -0.3288  0.1622
18743W        W39023  16.606   1.656   4.100  0.0490  0.0141  0.0817
18744W        W39024  19.342  18.107   2.014 -0.3562  0.1787 -0.0096
18745W        W39025   6.514   2.535   3.452 -0.2415  0.0200  0.0729
18746W        W39026   3.643  14.727  11.425 -0.1570  0.0954 -0.0288
18747W        W39027  19.255   7.047   2.397  0.0441  0.4219 -0.0492
18748W        W39028   0.471  19.368   2.029 -0.2718  0.1480  0.0878
18749W        W39029   7.827   0.772   1.231 -0.2325  0.3044 -0.1392
18750W        W39030   9.342  16.384   1.909  0.2388 -0.1536 -0.0728
18751W        W39031  15.135   1.143   2.999 -0.0214 -0.2596 -0.1819
18752W        W39032  15.326   2.740   2.971 -0.2084 -0.3369 -0.2763
18753W        W39033  16.233  15.324   2.196 -0.0585  0.3156 -0.0538
18754W        W39034   0.457  13.757   1.777  0.1872  0.0131  0.0712
18755W        W39035  11.529   1.882  14.217 -0.0559  0.0445  0.0829
18756W        W39036  16.226   8.362   2.030 -0.3488 -0.2440 -0.0342
18757W        W39037  12.663  15.405  13.042 -0.1828  0.0642  0.0005
18758W        W39038   5.273   1.191  13.984 -0.1406  0.0241 -0.0467
18759W        W39039  17.214  19.291   1.026 -0.1129 -0.0361  0.0298
18760W        W39040  15.037   7.457   0.340 -0.0186 -0.0326  0.4220
18761W        W39041   1.938   2.971   3.590 -0.0882  0.0281 -0.1545
18762W        W39042  12.600   6.594   1.032 -0.2098 -0.1047  0.0852
18763W        W39043  19.281  16.640   1.586 -0.0446 -0.0661  0.1284
18764W        W39044   5.441   4.890   1.162 -0.5488  0.0277  0.1388
18765W        W39045   6.525   1.517  12.832 -0.1357 -0.1166  0.0735
18766W        W39046   4.799   3.798  14.479 -0.2237  0.2153 -0.2317
18767W        W39047  17.505  18.172   1.836  0.2243  0.0006 -0.3589
18768W        W39048  10.736  15.476   3.060  0.0488 -0.1018  0.0971
18769W        W39049  18.871  15.590  13.546  0.0802 -0.0187  0.1615
18770W        W39050   3.503   2.530  10.981 -0.0126 -0.1442 -0.2365
18771W        W39051  12.320   3.901  14.170  0.0626 -0.2367  0.0750
18772W        W39052  10.679  14.693   2.138  0.1209  0.2130 -0.2437
18773W        W39053  12.601   1.755  12.817  0.2849 -0.1062  0.0165
18774W        W39054   3.271  13.849  10.338  0.1549  0.0812  0.0351
18775W        W39055   5.027  17.460  13.713 -0.1171  0.2662 -0.0546
18776W        W39056   3.856  19.215   1.759 -0.3084 -0.2660 -0.1824
18777W        W39057  13.883   2.940  13.823 -0.1763 -0.2749 -0.3563
18778W        W39058  10.357  18.415   0.342  0.0834  0.0776 -0.1771
18779W        W39059  12.082   0.962  10.804 -0.1147 -0.0101  0.0686
18780W        W39060  14.689  15.084  12.850 -0.1825 -0.0765  0.2553
18781W        W39061  16.636  19.172  12.843  0.2295 -0.0593 -0.0220
18782W        W39062   5.515  17.382  13.450  0.0945  0.1053 -0.1865
18783W        W39063   4.215  15.717   1.014  0.1244 -0.0835  0.0262
18784W        W39064  10.085  11.657  13.916 -0.2423 -0.0586 -0.1429
18785W        W39065  12.073   3.446   3.678  0.3610 -0.3150  0.0944
18786W        W39066  12.863  10.118  13.091  0.2107  0.0164 -0.1255
18787W        W39067  17.449  18.908  12.601  0.0721  0.2645  0.0343
18788W        W39068  12.624   7.052   1.824  0.3440  0.0096  0.1365
18789W        W39069   9.569  17.186  10.960 -0.3196  0.0723  0.1615
18790W        W39070  12.182   0.553   1.638  0.3078 -0.0794 -0.0461
18791W        W39071   0.774  13.038   4.568 -0.0195  0.4413  0.3461
18792W        W39072  16.083   7.207   2.046 -0.0581 -0.0810 -0.0677
18793W        W39073   6.928  18.187   3.222  0.1391  0.0003  0.0949
18794W        W39074  19.282  16.892   9.946 -0.0140  0.2651  0.1655
18795W        W39075  16.462   2.430  12.068  0.2338 -0.2898  0.1051
18796W        W39076  18.232   9.717   0.026 -0.1419 -0.1141 -0.2207
18797W        W39077  13.196  11.167  11.854 -0.3262  0.0060  0.1565
18798W        W39078   1.687  16.685  11.037  0.2353 -0.0151  0.2154
18799W        W39079  18.436   1.046  14.355 -0.1978  0.4312 -0.0669
18800W        W39080   6.861  14.829   1.450  0.2605 -0.0794 -0.0059
18801W        W39081   4.882   0.695  12.281 -0.0053  0.0303  0.0127
18802W        W39082  10.250   9.024   3.687 -0.0505 -0.2342 -0.3176
18803W        W39083   2.758  18.652  14.221  0.0575  0.1304  0.0919
18804W        W39084  17.427  13.317  10.779 -0.1641  0.1278  0.1011
18805W        W39085   5.988   5.543  12.360  0.1999 -0.0379 -0.0610
18806W        W39086   6.634   7.371  12.356 -0.1363  0.0346  0.0187
18807W        W39087  17.126   3.724   0.775  0.0678  0.1659 -0.0983
18808W        W39088  11.973   0.531  12.269 -0.1118 -0.0129  0.3862
18809W        W39089   7.472   0.623  10.028 -0.1773 -0.1291  0.0743
18810W        W39090   0.930   1.935   4.190 -0.1065  0.2523 -0.1669
18811W        W39091   7.143  12.615  11.616 -0.0657 -0.0086 -0.0470
18812W        W39092   3.925  18.880  11.623 -0.0428 -0.1290 -0.0992
18813W        W39093  12.153  12.223  11.908  0.1829  0.0669  0.1982
18814W        W39094  15.371   2.107   2.147 -0.0567 -0.2269  0.0566
18815W        W39095   0.366   5.397  12.717  0.0821  0.1981  0.0754
18816W        W39096  18.156  15.956  14.226 -0.1566  0.2415  0.0759
18817W        W39097   1.937   7.556   1.307  0.1160 -0.1134 -0.0319
18818W        W39098   8.887   8.582  11.886 -0.4263  0.0085 -0.1028
18819W        W39099   7.205   2.923  14.377 -0.3907  0.2770 -0.1153
18820W        W39100   2.014   0.061   1.748 -0.0267  0.1219  0.0686
18821W        W39101   5.148   5.475   1.530  0.2066  0.1958 -0.0483
18822W        W39102   1.088  15.078   3.389 -0.1781 -0.1538 -0.1779
18823W        W39103   9.411  13.583   2.282  0.1359 -0.1105 -0.0719
18824W        W39104   5.510  12.383   4.136  0.0508 -0.0058 -0.1804
18825W        W39105  17.937  13.538   3.317  0.0406  0.3223  0.1225
18826W        W39106   7.588  14.028   3.231 -0.1058  0.0645 -0.0854
18827W        W39107  12.668   7.807  11.815 -0.2850  0.2841 -0.0679
18828W        W39108   6.766  14.413   1.176  0.4735  0.2088  0.0854
18829W        W39109  17.331   3.879  12.472  0.0658  0.2530  0.2225
18830W        W39110  10.243   8.217   2.972  0.1365  0.0290  0.0065
18831W        W39111   2.267  14.162   1.640 -0.1423  0.1288 -0.1442
18832W        W39112  10.512   1.399   4.193 -0.1500 -0.6090  0.1001
18833W        W39113   8.327  12.741  13.669 -0.5162  0.1805  0.1965
18834W        W39114   9.900  11.020   2.306  0.3612 -0.2361  0.0934
18835W        W39115  15.236  16.874  13.986 -0.1372  0.0302 -0.0025
18836W        W39116  13.332  10.717   3.117  0.5150  0.1261  0.1961
18837W        W39117   8.233   6.457   9.598 -0.0558 -0.3050  0.4158
18838W        W39118   3.948  16.759  10.945 -0.2386  0.0522  0.0565
18839W        W39119  16.667   5.928  10.264  0.3628  0.0407  0.2321
18840W        W39120  11.025   1.784  14.092  0.2351 -0.2507  0.1009
18841W        W39121   5.505   7.139   0.568 -0.0095 -0.0488 -0.1050
18842W        W39122   0.182  13.105  13.527  0.2160  0.1349 -0.0387
18843W        W39123   1.606   6.316  10.284  0.1603 -0.2466  0.0765
18844W        W39124  10.565   4.826  14.452  0.1595  0.1160  0.0368
18845W        W39125  15.821  15.101   4.232 -0.2471  0.0279  0.1560
18846W        W39126   3.684   2.823   0.650 -0.3813 -0.1505 -0.0755
18847W        W39127  16.025   7.273   0.967 -0.2052 -0.0779  0.2934
18848W        W39128   9.983   0.863  10.715 -0.1104 -0.0248  0.1485
18849W        W39129   2.531  10.906   1.537  0.3255 -0.1946  0.0333
18850W        W39130   7.017   4.027  12.812  0.0959 -0.2534  0.1442
18851W        W39131  12.250   4.403   0.916 -0.0674  0.1974 -0.0840
18852W        W39132   6.215  10.443  10.872  0.1447 -0.1132 -0.1246
18853W        W39133   2.175   6.160   0.390 -0.0600  0.0400  0.1569
18854W        W39134  15.518   4.369  11.024 -0.0076  0.2823  0.0478
18855W        W39135   3.665  12.698   4.352 -0.3793  0.2830 -0.0112
18856W        W39136  11.003  13.724  13.184  0.0570  0.2369 -0.1177
18857W        W39137  13.884  13.337  13.212  0.2881  0.0082 -0.2997
18858W        W39138  18.356   6.526  11.311 -0.1222  0.1476 -0.1101
18859W        W39139   9.195  13.101  10.888 -0.1731 -0.0572 -0.0117
18860W        W39140   2.827   7.489   2.594  0.0036 -0.2315 -0.2897
18861W        W39141   0.013  16.950  13.805 -0.0402 -0.1484  0.2161
18862W        W39142   9.448   2.054  11.652 -0.3485 -0.0424 -0.0285
18863W        W39143  15.909  15.434   2.550  0.1200  0.0282 -0.2206
18864W        W39144   4.843  11.232  11.531  0.0588  0.0545  0.2278
18865W        W39145  16.719   1.684   0.058 -0.3351 -0.0361  0.1902
18866W        W39146  10.086  11.907  13.087 -0.0428 -0.0925 -0.4692
18867W        W39147  18.443   1.365  13.890  0.3928 -0.0152 -0.0512
18868W        W39148   9.438   6.342   2.650 -0.2191 -0.3920 -0.1604
18869W        W39149   3.427  15.484   1.904  0.2937  0.1577 -0.0862
18870W        W39150   6.197  17.842  12.331  0.1171 -0.0639  0.3146
18871W        W39151  17.518   0.355  12.619  0.2004  0.2153  0.1763
18872W        W39152  18.472  18.319   1.862 -0.0333  0.1337  0.1291
18873W        W39153   1.944   0.226  12.646 -0.0049 -0.0064  0.0022
18874W        W39154   3.374   4.243  14.047  0.2007 -0.1166 -0.3423
18875W        W39155   7.555  11.065   0.700  0.0599 -0.0619  0.0962
18876W        W39156   8.254  10.680  13.456  0.1516 -0.1228  0.2014
18877W        W39157  16.014   6.299   3.721  0.0187  0.2112 -0.1115
18878W        W39158  12.630  11.450   4.008  0.2699 -0.1045 -0.3626
18879W        W39159  16.680  11.226  13.488  0.1031  0.1053  0.0898
18880W        W39160   2.498  18.307  13.948  0.0760  0.1775  0.0806
18881W        W39161  18.458  12.721  13.176 -0.2322 -0.0316 -0.1049
18882W        W39162  12.821  16.062   4.266  0.0635 -0.0875 -0.2065
18883W        W39163   3.692   7.150  12.946 -0.1081  0.1138 -0.1811
18884W        W39164  16.729  18.974   0.110  0.1109 -0.2504 -0.0389
18885W        W39165  14.882   5.144  12.454  0.1091 -0.4969  0.1723
18886W        W39166   8.987  15.569   0.949  0.1130  0.1956  0.1383
18887W        W39167  12.023  13.123  12.501 -0.0437  0.0506  0.0510
18888W        W39168   0.118   6.172  12.130  0.2363 -0.0563 -0.0699
18889W        W39169   7.120   3.560  13.914  0.0614 -0.1868  0.1374
18890W        W39170   8.731   4.125   0.065  0.0025 -0.0440  0.4095
18891W        W39171  16.828  13.892  10.765  0.1407 -0.1107 -0.0496
18892W        W39172  15.555  14.348   3.583 -0.4468 -0.3278 -0.2836
18893W        W39173  10.522   7.203   2.019 -0.2535  0.0858 -0.0057
18894W        W39174   6.036   4.512   1.820 -0.0767 -0.2955  0.0316
18895W        W39175   9.696  10.194   2.536  0.0436  0.0081  0.2325
18896W        W39176   7.175   4.427  11.750  0.2956 -0.1800 -0.1645
18897W        W39177   7.767  11.767   2.018  0.0506 -0.0901 -0.2670
18898W        W39178  12.733  10.659  12.857 -0.0382 -0.1266  0.0582
18899W        W39179   9.849  13.167  11.817  0.1938 -0.0629 -0.1100
18900W        W39180  10.987   6.624  12.245  0.1662  0.4009  0.0353
18901W        W39181  18.703  14.313  10.917  0.1582  0.4802 -0.2019
18902W        W39182   5.186  17.419   0.069 -0.0581 -0.1894  0.0193
18903W        W39183  15.955  15.764  11.191 -0.2395  0.2917 -0.1083
18904W        W39184   1.840   4.186   2.646  0.2870  0.0797  0.1776
18905W        W39185  16.275  13.311  11.460 -0.0395  0.2074  0.1704
18906W        W39186   5.329  15.806   2.859 -0.3076 -0.0266  0.0138
18907W        W39187  18.520   8.801  11.212 -0.0470  0.0540  0.0268
18908W        W39188  10.801   6.568  11.664  0.0917 -0.0423  0.1067
18909W        W39189   3.879   0.348  13.745 -0.0445  0.1247 -0.1713
18910W        W39190  12.639   0.302   3.270 -0.1155  0.0527 -0.0436
18911W        W39191   2.790  18.283   1.931 -0.1651  0.0554  0.0585
18912W        W39192   4.536  11.011  14.338 -0.1892  0.1098 -0.1230
18913W        W39193   8.995  18.566  10.816 -0.1360  0.0149  0.0205
18914W        W39194  19.260  18.062  12.599  0.0400 -0.0564 -0.1309
18915W        W39195  14.997  15.144  14.159  0.1431  0.2631 -0.0832
18916W        W39196   4.321  17.834   2.457  0.2721 -0.0961 -0.1673
18917W        W39197   1.317  18.953   3.497 -0.3620  0.1081 -0.0694
18918W        W39198   5.313  12.465  11.542  0.2098  0.0376  0.5007
18919W        W39199  14.006   4.864  10.661  0.0340 -0.0116  0.0535
18920W        W39200   3.068   2.465  11.756 -0.2837  0.0342 -0.2766
18921W        W39201  14.422  19.407   1.391  0.2274  0.1014 -0.0755
18922W        W39202   0.798   2.160  11.292  0.2731 -0.1189  0.0171
18923W        W39203  18.987   5.448  11.082 -0.1887 -0.1036  0.0035
18924W        W39204  12.380   6.604   0.236  0.0015 -0.1689 -0.1423
18925W        W39205  12.530   5.053  12.293  0.0801 -0.2849 -0.0959
18926W        W39206   3.862   0.633  11.924 -0.1096 -0.1374 -0.0065
18927W        W39207  17.164  12.305  10.341  0.1579 -0.0334 -0.1657
18928W        W39208  14.967   1.098  12.953  0.0684  0.1596  0.0885
18929W        W39209  14.618  10.109  11.524 -0.2138 -0.1822  0.0805
18930W        W39210   4.589  13.810   1.000  0.0194  0.1412  0.2522
18931W        W39211   3.593   0.448   1.214  0.3132  0.2919  0.0339
18932W        W39212   2.605   9.379   1.924  0.0456  0.0558 -0.1696
18933W        W39213  16.940   9.275   3.347  0.5029 -0.1451  0.0607
18934W        W39214  16.082   9.929  13.964 -0.0408 -0.0840 -0.1779
18935W        W39215   1.711  15.958   4.248  0.1926 -0.2416  0.1563
18936W        W39216   7.889   3.391  13.775 -0.3570 -0.0699  0.1728
18937W        W39217   8.739   0.760   2.316  0.1915 -0.1121 -0.0940
18938W        W39218  10.061   5.342  13.069 -0.0391  0.0655 -0.6031
18939W        W39219  16.537  11.584  11.360  0.2278  0.0320  0.2074
18940W        W39220  18.118  13.100  13.955 -0.3179  0.0062  0.0084
18941W        W39221  12.160  10.927   9.517 -0.3590  0.3129  0.2114
18942W        W39222   2.050  16.313  14.327 -0.0336  0.2256 -0.1868
18943W        W39223  11.429  10.456  10.500 -0.1957 -0.3178 -0.1374
18944W        W39224   8.122   0.541   4.279  0.1370  0.1895 -0.2227
18945W        W39225  15.992   5.975  12.887 -0.2414 -0.0484 -0.1868
18946W        W39226   8.585   1.421  10.345  0.1850  0.1257  0.0706
18947W        W39227   5.977  10.067   3.897 -0.0520 -0.1857  0.3478
18948W        W39228  16.923  13.624  11.602 -0.0421 -0.0794 -0.0265
18949W        W39229   2.453  17.711  10.928  0.1881  0.0137  0.1423
18950W        W39230   7.150  12.032  10.552 -0.0721  0.2003  0.0251
18951W        W39231   0.056   3.456  11.528 -0.0596 -0.0296 -0.0450
18952W        W39232   0.057  17.716  10.657  0.0901  0.0614 -0.2711
18953W        W39233  13.234   9.930   2.674 -0.1208 -0.0089 -0.1082
18954W        W39234  11.047   2.715   1.886 -0.2187 -0.1764 -0.0323
18955W        W39235  17.465  17.949   1.324 -0.3286 -0.1241  0.0553
18956W        W39236  12.416  13.122  12.798  0.0941 -0.2650  0.0209
18957W        W39237   1.713   4.653   2.338 -0.1703 -0.0492 -0.2108
18958W        W39238   1.889   7.780  14.348  0.1500  0.3045  0.1683
18959W        W39239  19.236   3.815   2.450  0.0370  0.1036 -0.1841
18960W        W39240   7.234   2.626  14.017 -0.0093 -0.1295 -0.0336
18961W        W39241  18.914  18.554   0.160  0.0268  0.0417 -0.0142
18962W        W39242  10.927   9.520   3.450  0.0535 -0.1281  0.1810
18963W        W39243  13.589   2.435  13.783  0.2649  0.0110  0.3721
18964W        W39244   2.418  10.200   9.641 -0.1976 -0.0249  0.1068
18965W        W39245  16.143   5.322   1.765 -0.1788  0.2374  0.0423
18966W        W39246   1.898  11.105   3.641  0.0174 -0.0649  0.0653
18967W        W39247  13.735   1.181   5.607 -0.2364 -0.1015  0.1114
18968W        W39248  12.308  10.009  10.559 -0.1519  0.0254 -0.1375
18969W        W39249  15.693  13.834  12.683  0.0445  0.0697 -0.4632
18970W        W39250  14.124   4.826   1.727 -0.2000 -0.3785  0.1212
18971W        W39251  15.425   8.244  13.587  0.3543 -0.0162  0.0510
18972W        W39252  15.213  15.757   1.296  0.0436  0.2377 -0.1206
18973W        W39253   3.184  18.830  11.004  0.2169  0.1638 -0.0391
18974W        W39254  17.260   3.383  13.845 -0.0424 -0.1884 -0.2687
18975W        W39255   2.695   4.442   2.454 -0.1204  0.1662  0.0908
18976W        W39256   8.598   5.363  14.336  0.1488  0.3649 -0.3905
18977W        W39257  15.912   8.051  13.957 -0.1609 -0.1103  0.3657
18978W        W39258  12.140  13.306   2.961 -0.2659 -0.1288 -0.1395
18979W        W39259   8.184   9.421  11.014 -0.2087 -0.1755  0.2865
18980W        W39260   3.261  18.421  11.770 -0.0690  0.0251 -0.2220
18981W        W39261  13.414  13.026  12.782 -0.0650 -0.1985 -0.0677
18982W        W39262   6.147  14.085   3.216 -0.2031  0.0092 -0.0595
18983W        W39263   6.580   5.454   0.905  0.1756 -0.1994 -0.1146
18984W        W39264   1.752  15.151  11.289 -0.0797  0.1624  0.4042
18985W        W39265   5.146   1.108   2.502  0.2706  0.0631  0.0833
18986W        W39266   9.461  12.957  13.952 -0.2750  0.0317 -0.1377
18987W        W39267   8.062  10.899   0.001 -0.0405  0.1647 -0.2975
18988W        W39268   5.910  11.770   3.682  0.0132 -0.1103 -0.3348
18989W        W39269  14.559  11.956   2.708 -0.1171  0.1546 -0.0900
18990W        W39270  11.137  10.003   2.944 -0.1932 -0.1362  0.0908
18991W        W39271  10.238   8.172   9.441  0.4305  0.4508  0.0867
18992W        W39272   2.728  18.802   4.106 -0.1060  0.0340  0.0584
18993W        W39273  11.641   6.104  14.407  0.2096 -0.0476  0.1404
18994W        W39274   4.939   9.927   3.933 -0.2057 -0.2322  0.1039
18995W        W39275   4.604   1.869  11.142 -0.5078  0.2427  0.0008
18996W        W39276  12.187  15.527   0.917  0.1386 -0.1047  0.1300
18997W        W39277  17.410   5.435  13.053 -0.0696 -0.0612 -0.1138
18998W        W39278   0.541   7.002  14.159 -0.0854 -0.1331  0.2461
18999W        W39279   5.293   0.011  13.991 -0.3844  0.0152  0.0539
19000W        W39280   6.037  18.588   2.449  0.1255 -0.1313 -0.2122
19001W        W39281   9.694  16.222   0.493 -0.3089  0.1668  0.1431
19002W        W39282   3.882  17.736  10.733  0.0711  0.1037 -0.0939
19003W        W39283   1.187  13.611   0.021 -0.0938 -0.2062 -0.1138
19004W        W39284   8.950  18.917  14.149 -0.2329  0.2649  0.3248
19005W        W39285   6.185   1.163   1.802  0.1548  0.0029  0.2297
19006W        W39286  17.992   2.533   1.073 -0.2102  0.2680 -0.0028
19007W        W39287  16.144  17.897   3.238 -0.1412 -0.0785  0.0726
19008W        W39288   9.455   1.665  11.300 -0.3511 -0.1655  0.1048
19009W        W39289  14.855   0.130   2.573 -0.0570  0.1149  0.3495
19010W        W39290  12.265   7.298   2.761 -0.0996  0.0911 -0.1450
19011W        W39291   5.181  18.670  13.520 -0.0676 -0.1709  0.1180
19012W        W39292  13.861  14.183  10.375 -0.0002  0.1377  0.0171
19013W        W39293   0.287   2.989  13.740  0.1431  0.0655 -0.2453
19014W        W39294  11.669   9.250   1.995 -0.1033  0.0130 -0.0503
19015W        W39295  19.049   9.254  12.936  0.0042  0.0695 -0.0742
19016W        W39296  12.078  16.971   2.838  0.0328 -0.2893  0.1253
19017W        W39297   1.695   9.579  12.100 -0.0752 -0.3313  0.0515
19018W        W39298  17.932   0.823  11.918  0.1586  0.0604  0.2398
19019W        W39299   6.787   5.572  10.513 -0.0487 -0.1838 -0.2828
19020W        W39300  14.778   0.900  13.482  0.1653  0.0087 -0.3328
19021W        W39301  17.755   9.692  13.586 -0.2484  0.2335 -0.0474
19022W        W39302   3.831   0.381   4.046 -0.0916 -0.2036  0.4871
19023W        W39303  18.370  17.348  13.440 -0.1530 -0.2480  0.0876
19024W        W39304  16.123  15.673   3.712 -0.0110 -0.1561  0.0212
19025W        W39305   7.413  14.065   0.755  0.1769 -0.2704 -0.2876
19026W        W39306  17.624   5.879   1.177  0.1484 -0.0070  0.2837
19027W        W39307  10.823  10.425   2.963 -0.1732 -0.2454  0.0048
19028W        W39308   6.705   2.651   4.940 -0.0283  0.0129  0.2706
19029W        W39309   3.086  18.281  12.284  0.0012  0.0244  0.0548
19030W        W39310   8.561   3.869   1.349  0.0646  0.0330 -0.1484
19031W        W39311  13.652  18.709  13.454  0.0866 -0.1812  0.0982
19032W        W39312   9.143   8.986  14.179  0.4546  0.0058 -0.1301
19033W        W39313  16.085  14.086  12.437 -0.1249  0.2180 -0.2610
19034W        W39314  12.250  17.163  11.521 -0.3408  0.1922  0.0507
19035W        W39315   4.741   0.053  13.291 -0.1248  0.0844  0.0421
19036W        W39316  11.656   3.933   0.254 -0.0416  0.2334  0.0560
19037W        W39317  13.985  14.715  12.859 -0.0220 -0.1807 -0.1608
19038W        W39318   6.840  15.485   0.920  0.0124 -0.1247  0.1168
19039W        W39319  10.155  14.726   2.203  0.2477 -0.2279  0.0820
19040W        W39320   2.468  12.796  13.207 -0.1769  0.0519 -0.0124
19041W        W39321   4.379  14.922  11.143  0.2429  0.0231 -0.0040
19042W        W39322   8.025  14.905   3.458  0.3821 -0.2727 -0.1313
19043W        W39323  15.078  14.672  10.884 -0.3095 -0.2532 -0.4259
19044W        W39324   3.332   8.519   1.616  0.0121  0.2623 -0.2802
19045W        W39325   0.724   9.438  11.738  0.2312 -0.2779 -0.2841
19046W        W39326   7.709  15.722  12.443  0.1282 -0.1694  0.0352
19047W        W39327  14.581   9.576   4.625 -0.0231 -0.1726  0.2472
19048W        W39328   5.407   0.503  11.030  0.0386 -0.0886  0.1445
19049W        W39329   2.170  15.944   4.357 -0.0362 -0.1189 -0.2658
19050W        W39330  13.426  13.517   0.873  0.0763 -0.1136 -0.1202
19051W        W39331  17.589   2.459  12.401 -0.0614  0.1524  0.0164
19052W        W39332   1.032   9.475   0.924 -0.1385  0.2543 -0.0957
19053W        W39333   6.820   8.504   0.226 -0.3633 -0.1149  0.3461
19054W        W39334   5.386  12.500   0.599  0.0502  0.2993  0.0775
19055W        W39335  10.523  18.301  13.731  0.1065  0.1816  0.2167
19056W        W39336   1.937  11.338  12.193 -0.3386  0.3060 -0.1375
19057W        W39337   2.259  18.763  14.209 -0.3168 -0.1281 -0.1189
19058W        W39338  17.508   4.743  12.011  0.2396  0.1692 -0.2255
19059W        W39339   7.252  16.371   0.071 -0.0939 -0.0578 -0.0051
19060W        W39340  18.338   5.596   1.024  0.0994 -0.1129  0.3588
19061W        W39341  15.415   3.009  13.435 -0.2562  0.0740  0.0877
19062W        W39342   7.508   7.246   1.685  0.0119 -0.0655  0.2562
19063W        W39343  13.797   3.142   1.765  0.0511 -0.2318 -0.1348
19064W        W39344  18.026   0.350   0.636 -0.0372  0.3210  0.1429
19065W        W39345   2.175  10.161  14.429 -0.3728 -0.2256 -0.2331
19066W        W39346   5.557   4.437  12.035 -0.0774  0.0567 -0.1546
19067W        W39347   0.789   6.222   1.122 -0.3140 -0.1511  0.3530
19068W        W39348   6.267   0.376   4.035  0.0758 -0.4602 -0.2202
19069W        W39349   5.835   2.473   1.827 -0.3544 -0.0217  0.1466
19070W        W39350  16.796   5.268  12.227  0.0770 -0.0781  0.0968
19071W        W39351  13.314  13.403   3.646  0.2985 -0.1087  0.0327
19072W        W39352  12.957   6.441  12.567  0.0926 -0.3335  0.0408
19073W        W39353  12.304  15.186   1.743  0.1291  0.0205 -0.1188
19074W        W39354   2.414   4.126  11.758 -0.1067 -0.0221  0.1623
19075W        W39355   7.001  14.644  13.800 -0.1100  0.0740  0.1055
19076W        W39356   4.790  10.979   0.883 -0.0534 -0.0678  0.4501
19077W        W39357   8.361   9.322  12.359 -0.1628 -0.1459 -0.1054
19078W        W39358   3.543   1.716   4.210  0.1358  0.0757 -0.0808
19079W        W39359   5.972   6.819   1.709 -0.1447 -0.2571  0.3224
19080W        W39360   8.609  10.245   0.236 -0.0381  0.0000 -0.0927
19081W        W39361   1.371   6.002  14.452 -0.2051 -0.1526  0.1056
19082W        W39362   9.729  19.014   3.875 -0.0026  0.3146  0.2346
19083W        W39363  16.897   1.115   3.078 -0.2112 -0.1303 -0.1299
19084W        W39364  10.338  18.330  12.595 -0.0605  0.0953 -0.0862
19085W        W39365  11.215   1.779   0.086 -0.2494 -0.2203 -0.2802
19086W        W39366   7.786  14.989   1.912  0.1718  0.0651 -0.0096
19087W        W39367  11.955   1.661  13.700  0.3883  0.0252  0.0332
19088W        W39368  17.720   5.380   2.383 -0.3005  0.0961  0.0236
19089W        W39369  17.907   4.057   3.405  0.3387  0.2580 -0.0032
19090W        W39370  15.653   8.102  11.710  0.0339 -0.0718  0.3386
19091W        W39371   7.448   0.946  11.818  0.1930 -0.1270  0.2134
19092W        W39372   9.640  11.635   3.300  0.2080 -0.0130  0.1125
19093W        W39373   7.464   8.196   0.768 -0.1247  0.0111 -0.3005
19094W        W39374   9.460   9.381  13.338  0.0833 -0.1542  0.0553
19095W        W39375  12.438  11.070   3.235  0.1192 -0.1863  0.3370
19096W        W39376  15.460  16.312   9.947 -0.0113  0.0844 -0.2421
19097W        W39377   5.628   9.062  12.458 -0.2229  0.0032 -0.0884
19098W        W39378  18.096  19.009   0.196 -0.2762 -0.1455  0.2496
19099W        W39379  12.020   6.446  12.673 -0.2638 -0.1027 -0.1459
19100W        W39380  17.673  17.080   2.743  0.0103  0.3351  0.1167
19101W        W39381   3.897  11.307  11.932 -0.0019  0.2843 -0.2326
19102W        W39382  11.298   3.326   0.631 -0.2431  0.1693  0.0836
19103W        W39383  13.371  12.193  11.814 -0.1642  0.1531  0.1646
19104W        W39384   2.370  14.646   3.902  0.0539  0.1234  0.2365
19105W        W39385   9.211  11.448   0.374  0.1191 -0.1624 -0.0992
19106W        W39386   0.841   8.143  12.398  0.0777  0.0380  0.1445
19107W        W39387   6.834   1.854   2.876 -0.1135 -0.0717 -0.1565
19108W        W39388   6.088   0.451  12.295  0.2321 -0.2110 -0.0691
19109W        W39389  10.394  17.672   0.056 -0.1951  0.3815  0.0804
19110W        W39390   7.391   1.459  11.431  0.2137 -0.0674 -0.2687
19111W        W39391  15.013  10.513  12.431 -0.1059 -0.1626  0.2036
19112W        W39392  19.176  15.358   0.943  0.0025  0.0992 -0.4304
19113W        W39393  14.950   0.294  11.909 -0.1006 -0.0555 -0.1853
19114W        W39394   0.006   1.441   1.908 -0.1598 -0.5235 -0.0358
19115W        W39395  15.783   1.469  11.692 -0.0763  0.2001  0.3767
19116W        W39396  16.213   9.495   2.954  0.1302 -0.0775 -0.0732
19117W        W39397  18.817  12.901  13.469  0.1767 -0.1968 -0.2826
19118W        W39398   9.585   0.625  11.525 -0.1328  0.0261  0.1023
19119W        W39399  16.176   8.301  10.869 -0.1127  0.1094 -0.1499
19120W        W39400   2.452   4.446  13.829 -0.0914  0.0316  0.0804
19121W        W39401   4.684   2.014   1.684  0.0383 -0.1517 -0.2928
19122W        W39402  15.943   0.859   4.444 -0.4326  0.0374  0.0767
19123W        W39403   6.383   7.884   9.749  0.1048  0.1920  0.0205
19124W        W39404   1.748  11.146   1.693 -0.0522  0.0672  0.0764
19125W        W39405   4.053  13.574   4.706 -0.0355 -0.0968  0.0618
19126W        W39406   4.473  11.071  12.511 -0.0684  0.1731 -0.2410
19127W        W39407  19.140   0.504   2.092  0.0170 -0.0248 -0.2338
19128W        W39408  16.803   3.831   1.657  0.0719 -0.0990  0.0117
19129W        W39409   6.194   9.144   3.632  0.2353 -0.2221 -0.3178
19130W        W39410   2.997  18.238  13.825  0.1050  0.0191 -0.2853
19131W        W39411   9.103   9.272  11.188 -0.1383  0.0638 -0.1224
19132W        W39412  15.944  17.962  14.298 -0.1429  0.0714  0.1548
19133W        W39413   9.601   6.594  12.822  0.1458 -0.1232 -0.1787
19134W        W39414  15.013  12.423  13.375  0.1577  0.1262  0.0059
19135W        W39415  16.641  13.368   2.298 -0.0584 -0.1611  0.0117
19136W        W39416  14.516   3.736   4.188 -0.2522  0.1277  0.0677
19137W        W39417  17.073   8.792   4.180 -0.0792 -0.1301 -0.1641
19138W        W39418  13.036  11.174   3.201 -0.2199  0.0714 -0.0164
19139W        W39419   9.077   7.595   2.762 -0.5809  0.2581 -0.0343
19140W        W39420   3.350  10.685   1.058 -0.0682 -0.1273  0.0002
19141W        W39421  13.722   1.595   2.005  0.0054 -0.0069  0.1952
19142W        W39422   8.358   8.494  11.994  0.1079  0.2263  0.1461
19143W        W39423   7.129   2.925   1.878  0.0670 -0.3389  0.2459
19144W        W39424   6.991  14.069  11.360  0.0601  0.1498  0.2281
19145W        W39425   7.597   3.251   0.003  0.0678  0.0022  0.0419
19146W        W39426   0.393   7.979   3.886  0.1783 -0.3203  0.0572
19147W        W39427  13.022  13.105  11.436 -0.0786 -0.0426 -0.2036
19148W        W39428   6.553  17.442   2.638  0.2660  0.0928  0.0715
19149W        W39429   6.880  13.227  14.055 -0.2371 -0.1907 -0.0301
19150W        W39430  13.528  16.943   9.979 -0.4565  0.1755 -0.2001
19151W        W39431  12.148  18.061  11.198 -0.0385 -0.1863 -0.0426
19152W        W39432  15.741  13.962  14.459  0.1431  0.0719 -0.0726
19153W        W39433   1.501  13.859   8.810 -0.0358 -0.0491 -0.0317
19154W        W39434   9.123  14.676   0.909  0.0495 -0.0856  0.0312
19155W        W39435  15.044   3.923  14.425  0.0631 -0.0612  0.3242
19156W        W39436   5.942  17.162   3.766 -0.1608 -0.2022 -0.1300
19157W        W39437   6.208   4.059   9.908  0.3948 -0.1262  0.2045
19158W        W39438   2.874  14.781  10.857  0.1280  0.0374  0.0617
19159W        W39439  11.884  16.681   3.279  0.2206 -0.2067  0.2176
19160W        W39440   9.954   8.314  13.825  0.0186  0.0170 -0.2723
19161W        W39441   5.922  15.228   9.727 -0.2776 -0.0558  0.0907
19162W        W39442   4.277  16.496  13.683  0.0979 -0.5075 -0.2171
19163W        W39443  18.511  17.000  10.546  0.1931 -0.3216 -0.0390
19164W        W39444  17.601  14.862  14.052 -0.0972 -0.0992 -0.1764
19165W        W39445  17.651  16.335   1.980  0.0716 -0.2151  0.0113
19166W        W39446   0.374  10.794   1.458 -0.0514  0.1461  0.2220
19167W        W39447   4.399  13.319   0.092  0.0730 -0.0519 -0.3699
19168W        W39448  18.444   2.915  12.584  0.1261  0.0302 -0.1276
19169W        W39449  19.186  16.890   1.139  0.0214 -0.2501  0.2261
19170W        W39450   9.859   7.891   0.952 -0.1263 -0.1588  0.1076
19171W        W39451   1.804  16.186   9.783  0.1645  0.1061 -0.1953
19172W        W39452  11.242  11.474   2.513 -0.3327 -0.3921  0.2726
19173W        W39453  10.580  12.959   2.794  0.2716 -0.1275 -0.2465
19174W        W39454  11.000  11.861  12.633 -0.1562 -0.1270  0.4485
19175W        W39455  18.712  14.197   2.341  0.1560  0.3016 -0.4886
19176W        W39456  16.940   5.415  13.628 -0.2836 -0.1391 -0.0233
19177W        W39457  19.114  18.325  14.322 -0.2544  0.0311 -0.0438
19178W        W39458   1.946  17.063  13.552 -0.1847  0.1586 -0.0080
19179W        W39459  16.654   2.261   1.258 -0.3775 -0.1184  0.1185
19180W        W39460  11.397  16.330  12.386 -0.0571 -0.0961 -0.1569
19181W        W39461  18.492   5.319  13.823  0.1071  0.2459 -0.2761
19182W        W39462  10.757   0.784   3.553  0.1468  0.0832  0.1920
19183W        W39463  15.591  16.744  13.663 -0.2859 -0.1404  0.1294
19184W        W39464  18.272   3.290  13.911  0.1600 -0.0566 -0.3752
19185W        W39465  14.736   8.277  11.045  0.1695 -0.2040 -0.0096
19186W        W39466  15.223   7.081   3.370  0.3701 -0.0119  0.1235
19187W        W39467  14.916  11.894   1.020  0.2315  0.1531 -0.1216
19188W        W39468  17.608   1.808  12.222 -0.0419  0.1452 -0.2744
19189W        W39469  18.762  18.844   0.513  0.0123 -0.4894  0.1849
19190W        W39470   7.518  17.361  11.858  0.3016  0.0409 -0.1871
19191W        W39471   6.085   5.876  11.266 -0.2962 -0.0740  0.2701
19192W        W39472   0.082  16.829   5.209  0.0071 -0.1586  0.0542
19193W        W39473   7.222  17.581  13.661  0.2898 -0.2506  0.0848
19194W        W39474   8.544  12.863  14.133 -0.1483 -0.0507 -0.0541
19195W        W39475  11.458  12.181   0.745 -0.2297  0.2499  0.1365
19196W        W39476  12.699  11.423   3.004 -0.2688 -0.2014 -0.0079
19197W        W39477   5.204   8.086   1.494  0.1974 -0.0819  0.1288
19198W        W39478   6.226  17.186  13.706 -0.0223 -0.1292  0.0251
19199W        W39479   6.249  18.640   3.548  0.3664 -0.0893 -0.0615
19200W        W39480   0.248  10.413  12.748 -0.1877  0.0086  0.2803
19201W        W39481  12.765  11.019   1.561  0.1623 -0.0664  0.0059
19202W        W39482  10.663  14.686  11.676 -0.1124 -0.0072 -0.0475
19203W        W39483   3.586  17.602   1.558  0.0553  0.3071  0.1359
19204W        W39484  15.611   5.369  10.830  0.2544  0.1043  0.0891
19205W        W39485   6.538  15.953   2.914  0.0522  0.1508 -0.2222
19206W        W39486  15.700  19.424   3.466  0.0548 -0.1290  0.0471
19207W        W39487   5.348  13.874  13.883 -0.2068 -0.1139 -0.0770
19208W        W39488   5.276  12.430   1.505 -0.2428  0.0560  0.1246
19209W        W39489   7.135  14.797  11.877 -0.3270 -0.0659  0.1131
19210W        W39490  14.375  15.073   1.349 -0.1309  0.0580 -0.4125
19211W        W39491   5.955  14.730   9.596 -0.0254  0.2012  0.1091
19212W        W39492  17.759  14.348  13.984 -0.2217 -0.0549  0.4038
19213W        W39493  10.695   8.644   0.967 -0.0159  0.0201 -0.1005
19214W        W39494   3.417  13.327   0.311  0.0455 -0.5490 -0.1760
19215W        W39495  11.990   0.424  10.707  0.0429 -0.0727 -0.2617
19216W        W39496  17.693  12.990  14.174  0.1361  0.2503  0.2759
19217W        W39497   0.077  13.189  12.527  0.0133  0.1417 -0.1567
19218W        W39498   4.906   7.666   1.055  0.2547 -0.3381  0.0277
19219W        W39499   9.555   7.790   2.566 -0.1350  0.2064 -0.0317
19220W        W39500  16.413   4.394   0.388 -0.1464 -0.0198  0.1998
19221W        W39501   7.414   3.522  13.546  0.2499  0.3449 -0.0351
19222W        W39502  18.150   7.200  12.577  0.3915 -0.0259 -0.0530
19223W        W39503  12.485   8.529   4.647 -0.0425  0.0616  0.0006
19224W        W39504   8.245  16.381  12.099 -0.0298  0.0046  0.0531
19225W        W39505   1.506   9.254  13.821  0.3043  0.1184 -0.2025
19226W        W39506   1.535   2.548  11.173  0.4471 -0.1547  0.2027
19227W        W39507   9.721   5.822  14.190 -0.0008 -0.0431 -0.2546
19228W        W39508  17.856   0.935  13.245  0.1109  0.1291  0.0831
19229W        W39509  10.825   7.538   2.876 -0.0065  0.0559 -0.4152
19230W        W39510   6.152   5.938  11.995  0.0385  0.1116 -0.0738
19231W        W39511  12.433   3.132   2.115  0.0594 -0.0197 -0.1258
19232W        W39512   6.005  15.326   3.931 -0.0033  0.2184  0.0875
19233W        W39513   7.979   6.643  13.433 -0.0725 -0.0076  0.0973
19234W        W39514  15.606  13.676  10.674  0.3365 -0.0229 -0.0818
19235W        W39515   9.384   3.455   2.533  0.1618 -0.0115 -0.1531
19236W        W39516   7.276   9.932   1.370  0.2515  0.1308  0.3893
19237W        W39517  13.408  12.482   1.534  0.0696  0.0978  0.1283
19238W        W39518  16.349   4.991   2.103 -0.1347  0.1603  0.1468
19239W        W39519  13.462   8.426  12.571  0.0631  0.2821  0.0356
19240W        W39520   9.783  12.613   0.119 -0.1504  0.5864 -0.2048
19241W        W39521   5.341  10.597  12.215  0.2318  0.2370  0.0461
19242W        W39522   8.275   7.332  14.400 -0.0544 -0.0244 -0.0144
19243W        W39523   9.077  18.861  12.972 -0.1260  0.2159 -0.3032
19244W        W39524   7.922  10.803  10.593 -0.0418 -0.3306  0.0136
19245W        W39525   9.645  17.914   0.228  0.3005  0.0983  0.0176
19246W        W39526   3.876  14.842  13.862  0.1437  0.1282 -0.1667
19247W        W39527   3.548   6.330   3.944 -0.2149 -0.0378 -0.2568
19248W        W39528   8.505  15.577  12.198 -0.0984 -0.1410  0.2169
19249W        W39529   7.726   7.703   1.736  0.1528  0.1147  0.2402
19250W        W39530  12.014  11.669  12.941  0.0082 -0.1435  0.2625
19251W        W39531  11.692  18.998  11.662  0.1805 -0.0627  0.3559
19252W        W39532  15.382  11.971  14.343 -0.1320  0.4821  0.0425
19253W        W39533   3.880   2.169   3.639 -0.0343  0.0855  0.1186
19254W        W39534  12.146  18.541   2.458 -0.1576 -0.0776 -0.2348
19255W        W39535   7.224  14.545  11.316 -0.2731  0.1508  0.0806
19256W        W39536   4.575  13.632   3.360 -0.2242  0.1553  0.0744
19257W        W39537  12.583   2.834  11.490  0.1271 -0.4065  0.0799
19258W        W39538   4.765  17.518  12.246  0.1726  0.1181 -0.4606
19259W        W39539   7.515   6.014   2.400  0.1706 -0.2722  0.1064
19260W        W39540   6.673  13.031   2.666  0.0828  0.0876  0.0083
19261W        W39541   0.571  11.629  11.812  0.2769  0.2622 -0.4363
19262W        W39542   3.888  16.266   3.540 -0.3049  0.0185 -0.1969
19263W        W39543   3.409   8.711  14.142 -0.0442  0.3977  0.2311
19264W        W39544   4.026  11.273  11.220 -0.1467 -0.0377  0.0536
19265W        W39545  17.063   1.859  10.150 -0.4137 -0.3735  0.0882
19266W        W39546   6.667  17.303   1.019  0.1387 -0.1762  0.2481
19267W        W39547   3.552  19.295  13.739  0.0150  0.0472  0.1624
19268W        W39548   7.542   7.405  14.255 -0.0449  0.0276 -0.4692
19269W        W39549  19.406  12.123   2.946 -0.0153 -0.0593  0.0646
19270W        W39550  12.261  16.045  13.764  0.3234 -0.0056 -0.1514
19271W        W39551  16.629  17.143  13.882  0.1877 -0.2801  0.4119
19272W        W39552  12.202  18.418   3.035 -0.2641 -0.2268  0.2380
19273W        W39553   5.235   7.970   5.330  0.0765  0.0562 -0.0002
19274W        W39554  17.540   5.522  13.989 -0.2322  0.2174 -0.1005
19275W        W39555   3.005  13.816   4.272 -0.5429 -0.0723 -0.0152
19276W        W39556   0.044  14.331  11.993  0.0847 -0.0446  0.0197
19277W        W39557   0.362  15.954  12.603  0.1732 -0.0372  0.2751
19278W        W39558   4.664   5.251  11.193  0.0521  0.0176 -0.1884
19279W        W39559   3.982  19.400   2.219 -0.1560  0.1231  0.1742
19280W        W39560   8.680  16.495   2.866  0.1263 -0.2741 -0.0331
19281W        W39561   6.536  17.994  10.640  0.0899  0.0110  0.2183
19282W        W39562   0.893  17.946  13.888  0.2085  0.1752 -0.0582
19283W        W39563  15.724   6.000  12.470  0.2547 -0.0152  0.3909
19284W        W39564  18.278  16.265   3.479 -0.1566  0.0240  0.3641
19285W        W39565   0.306  17.919  11.110 -0.1596 -0.1410  0.2955
19286W        W39566  17.166  15.792  12.875 -0.2975  0.1600  0.0993
19287W        W39567   8.178   7.729  13.400  0.3328  0.2056 -0.0429
19288W        W39568   3.388   8.482   3.010  0.1610 -0.1046 -0.2048
19289W        W39569  14.967  12.322  12.525  0.1446 -0.1595 -0.1344
19290W        W39570  15.966   7.969   2.237 -0.3539 -0.2058  0.2338
19291W        W39571   3.020  18.394  10.772 -0.1124  0.0211  0.1132
19292W        W39572   2.468  14.089   1.169 -0.2746 -0.1854 -0.0735
19293W        W39573   8.591  13.607   3.835  0.2520 -0.0057  0.1571
19294W        W39574   8.659   9.840  10.769 -0.3016 -0.1543 -0.1067
19295W        W39575   2.303   5.269  10.916 -0.1723  0.3050  0.0908
19296W        W39576   0.115   7.530   2.359 -0.1690 -0.3153 -0.0643
19297W        W39577  18.395   9.618   1.890  0.5120 -0.1175  0.1853
19298W        W39578  15.996   1.216   0.023 -0.2264 -0.0060 -0.0523
19299W        W39579   4.193   7.395   4.354  0.3200 -0.2550  0.0208
19300W        W39580   9.792  12.528   0.934  0.0340  0.0559 -0.0213
19301W        W39581   0.371  15.751   0.585 -0.1607 -0.0524 -0.1218
19302W        W39582  13.876   2.282   3.002  0.3430  0.3871  0.1273
19303W        W39583  16.044  13.948   0.551 -0.3200 -0.1943 -0.0286
19304W        W39584  11.927   0.074   1.145  0.1525  0.0303  0.3695
19305W        W39585   5.818   9.139   4.090  0.1194  0.1702  0.2048
19306W        W39586  16.026  11.940   3.507 -0.3881  0.1835 -0.1664
19307W        W39587  19.082   6.477  12.881  0.2017  0.4625 -0.1236
19308W        W39588  15.511   9.966   3.254  0.0208  0.3539 -0.0389
19309W        W39589   9.402  17.559  11.827  0.1264 -0.1303  0.0937
19310W        W39590   0.998   4.326  11.641  0.2981  0.1524  0.0173
19311W        W39591   0.113  19.172   1.208  0.0466 -0.0854 -0.0118
19312W        W39592  15.026  15.368   1.701  0.0622  0.0004 -0.0635
19313W        W39593  17.743   0.753   2.407 -0.1742  0.1915  0.0340
19314W        W39594   0.837   6.527  11.091  0.1219  0.5776  0.1309
19315W        W39595   4.053  12.495  13.383  0.3654 -0.0272 -0.1818
19316W        W39596  16.539   7.150  12.866 -0.2354 -0.1144 -0.0698
19317W        W39597  14.394  12.930  13.545 -0.1818 -0.0939  0.2160
19318W        W39598  10.134   6.725  14.069  0.2089 -0.0527  0.1034
19319W        W39599   7.104   2.563  11.908 -0.4419 -0.2546  0.0934
19320W        W39600  12.250  14.742  12.030 -0.1180 -0.0889  0.2151
19321W        W39601  13.500   9.336   0.117  0.3405 -0.1668 -0.0475
19322W        W39602   0.205  11.040  10.182 -0.3311 -0.0742 -0.0789
19323W        W39603   2.419   7.048   0.133  0.0841 -0.0107 -0.0328
19324W        W39604  13.826   4.746  13.243 -0.2848 -0.2405 -0.1400
19325W        W39605  18.053   3.467   2.112 -0.2428 -0.2509  0.0100
19326W        W39606   9.103   8.663   0.950  0.1293 -0.4628 -0.0721
19327W        W39607  12.582  10.985  11.719 -0.0244 -0.1793  0.1091
19328W        W39608   5.191   5.619   2.584  0.1857 -0.4071 -0.0891
19329W        W39609  14.321   6.726   1.644  0.3650  0.1667  0.2503
19330W        W39610   8.582   6.546   1.468  0.0476 -0.1020  0.0200
19331W        W39611  10.950  10.324  11.118  0.2931  0.2958  0.1602
19332W        W39612   0.072   1.679   0.899 -0.3760  0.1399 -0.3888
19333W        W39613  11.047   8.950   3.150 -0.2059 -0.2629  0.0330
19334W        W39614  14.872   1.575   0.199  0.0709 -0.2520  0.0128
19335W        W39615  16.823  19.077   1.044  0.1964 -0.1942 -0.3417
19336W        W39616   0.757   0.190  14.443  0.0813 -0.1442  0.2246
19337W        W39617   6.615  16.885  13.886  0.1216 -0.2940  0.4231
19338W        W39618   8.818   7.347  12.531  0.1232 -0.3478 -0.1716
19339W        W39619   0.038  18.609   2.012  0.1952 -0.2544 -0.1981
19340W        W39620  13.966   4.876  12.423  0.0566  0.0560  0.0985
19341W        W39621   5.707  11.726   2.799 -0.0488  0.0469 -0.0855
19342W        W39622   7.035   2.849   0.771 -0.3335 -0.3142 -0.0682
19343W        W39623   2.087   6.281  10.954 -0.1254 -0.0679  0.4960
19344W        W39624   0.157  14.284  14.244 -0.1814 -0.2533 -0.1505
19345W        W39625   5.616  17.906  13.031 -0.0966  0.1538  0.3192
19346W        W39626  10.865   5.892  13.033  0.3835 -0.0990 -0.0476
19347W        W39627  18.500   3.899   1.273 -0.2534 -0.1027  0.1356
19348W        W39628   4.945   9.593  13.779  0.0132 -0.3711 -0.0898
19349W        W39629  15.243  12.322   0.847 -0.1206 -0.1406 -0.0315
19350W        W39630   4.687  10.592  10.950  0.0797  0.1737 -0.2068
19351W        W39631   0.372   7.341  12.540 -0.0353 -0.0419  0.0998
19352W        W39632   8.187  14.254   1.991 -0.0994  0.0196 -0.2267
19353W        W39633  10.567  18.595  10.542 -0.0321 -0.1333 -0.0968
19354W        W39634   9.592  13.612  13.273  0.2970 -0.0206  0.2093
19355W        W39635   0.671   5.706   1.001 -0.0492  0.0988 -0.0212
19356W        W39636   4.583   7.238   1.303 -0.0106 -0.0490  0.3662
19357W        W39637   4.606   4.705   9.461  0.1741  0.0987 -0.4627
19358W        W39638  15.855  12.732   1.119 -0.0597  0.0068  0.1065
19359W        W39639  15.186  12.561   1.661 -0.1476 -0.0242  0.2439
19360W        W39640   7.050  14.963   2.416 -0.1222  0.1527 -0.0106
19361W        W39641   1.658  16.208   1.655 -0.2364 -0.3932 -0.1071
19362W        W39642   4.673   4.019   0.491 -0.0509 -0.1293 -0.1341
19363W        W39643  19.144  17.156   5.035 -0.0293  0.0485  0.0355
19364W        W39644   3.674  18.154   2.595 -0.0791 -0.0779 -0.1207
19365W        W39645  13.081  12.634   4.382  0.0337 -0.1605 -0.1353
19366W        W39646   1.227   2.084  12.091  0.0403 -0.1944  0.0689
19367W        W39647   3.732   4.437   3.916  0.1649  0.1481  0.0962
19368W        W39648  10.272   0.429   1.435 -0.2257  0.2256 -0.0938
19369W        W39649   2.927   5.967  11.094 -0.1909 -0.0454  0.3164
19370W        W39650  10.495  12.475   3.716 -0.1490  0.1210 -0.0490
19371W        W39651   1.603  12.208  10.085 -0.0307 -0.0113 -0.3775
19372W        W39652   6.057  17.399  11.023  0.0173 -0.1048 -0.1880
19373W        W39653   7.560   5.978  13.827 -0.1166  0.0344  0.2312
19374W        W39654  12.933   8.673   0.455  0.4036  0.0563 -0.1366
19375W        W39655   7.682   5.727   0.048  0.2604  0.0481  0.0289
19376W        W39656  13.438  13.494  11.485 -0.1273  0.0073  0.2302
19377W        W39657  17.897  19.326   2.723 -0.1556 -0.1877  0.2852
19378W        W39658  12.745  15.655   0.072  0.0627 -0.1035 -0.0876
19379W        W39659  12.492  18.236  12.391 -0.0340 -0.0111 -0.1528
19380W        W39660  13.546   7.909   1.687  0.4417  0.0570 -0.0135
19381W        W39661  19.374  17.274   3.219  0.4818  0.2311  0.1006
19382W        W39662   5.904  14.985  13.188  0.1838 -0.0501  0.0331
19383W        W39663   7.429   0.001   2.293 -0.1633 -0.0774  0.0524
19384W        W39664   0.868   9.533   1.875 -0.2545  0.2950  0.1421
19385W        W39665  17.507   6.904  11.998 -0.1468 -0.1489  0.0290
19386W        W39666   8.678   1.612  11.948 -0.0887  0.2068  0.0957
19387W        W39667   7.484  12.770   1.145  0.1451  0.2732  0.5592
19388W        W39668   2.888  12.531   1.699  0.0113 -0.0652  0.1906
19389W        W39669   0.775  13.058   2.371 -0.1918  0.2511 -0.0508
19390W        W39670  14.340  14.102  13.776  0.1550 -0.2110  0.0338
19391W        W39671  10.212   4.696  11.382  0.0461 -0.3101 -0.0690
19392W        W39672  11.365  13.048   1.794 -0.1845  0.2054 -0.0398
19393W        W39673   6.672   2.338   4.543  0.1527 -0.2208  0.0290
19394W        W39674  10.708  17.507   2.111 -0.0815 -0.0125  0.0086
19395W        W39675  17.758   8.739  11.071 -0.3790 -0.1067 -0.4465
19396W        W39676   1.532   9.435  11.099  0.1990  0.0110  0.1167
19397W        W39677   5.206  11.539   2.068 -0.0242 -0.1198  0.1062
19398W        W39678  15.084   8.236  14.493  0.0892  0.0518  0.0751
19399W        W39679  17.871  17.317  11.479 -0.2554 -0.2445  0.0553
19400W        W39680  13.080   4.255   3.046 -0.1227  0.1124  0.1024
19401W        W39681  14.185   3.862  12.907  0.0679 -0.0501 -0.3501
19402W        W39682  18.282   2.213   2.194 -0.2037 -0.0476  0.0283
19403W        W39683  16.978  13.820   2.548  0.2339 -0.0494 -0.2749
19404W        W39684   4.749   2.670   0.920  0.0505 -0.0372 -0.1639
19405W        W39685  16.502   8.679   3.305 -0.1750 -0.4011  0.2730
19406W        W39686   0.096   4.100  13.982 -0.0824 -0.0496 -0.1673
19407W        W39687  17.683  15.637   4.007 -0.2476 -0.1282 -0.1392
19408W        W39688   5.785   2.689  11.599  0.3590  0.0471 -0.0700
19409W        W39689  11.785   5.954   0.404  0.0777  0.0799  0.0239
19410W        W39690  10.358  16.473   2.411  0.0844  0.0344  0.1932
19411W        W39691   6.565   4.466   1.999 -0.1304 -0.1292 -0.1357
19412W        W39692  14.647   1.559  12.847  0.1976  0.0039 -0.1956
19413W        W39693   4.359  16.955   3.646  0.0047  0.0270  0.0683
19414W        W39694   7.469   4.194  12.087  0.2422 -0.2642  0.2058
19415W        W39695  10.572  11.676  14.043  0.0771 -0.0279  0.0691
19416W        W39696  12.469  11.327  11.347  0.3803 -0.1964  0.1836
19417W        W39697   7.020  12.271   2.917  0.2553 -0.2300  0.1909
19418W        W39698   0.079  10.070  12.383  0.0873  0.1172  0.1856
19419W        W39699  18.855   5.832  11.392 -0.0028 -0.1656 -0.0649
19420W        W39700  18.519  16.199  13.002  0.1554 -0.1610  0.1513
19421W        W39701  13.892   3.574   0.735 -0.3394 -0.2107 -0.2746
19422W        W39702  12.773  11.559   4.975  0.0554 -0.0837 -0.1995
19423W        W39703   2.287   6.984  10.425 -0.0189 -0.0555 -0.3277
19424W        W39704   1.724   8.637   3.078  0.2098  0.1107  0.1521
19425W        W39705   9.876   1.456   1.175  0.2273  0.5218 -0.0814
19426W        W39706   9.793   7.446   1.174  0.1163  0.1474  0.0244
19427W        W39707   2.359  14.204  10.048  0.1354  0.0621  0.2263
19428W        W39708  18.445  17.247   1.959  0.2246  0.1473  0.0526
19429W        W39709  11.770  13.976   1.694  0.0850 -0.1871 -0.1877
19430W        W39710   5.083  11.238   0.059 -0.3392 -0.0299  0.1341
19431W        W39711   4.653   6.514  12.231 -0.2391  0.0364  0.2467
19432W        W39712   6.712   7.195  11.811 -0.1491 -0.0966 -0.1317
19433W        W39713   3.459  18.456  13.689 -0.3195 -0.0841 -0.0104
19434W        W39714  18.375  18.521  11.758 -0.0793 -0.0330 -0.3382
19435W        W39715  15.730   8.402   0.900  0.0113  0.0449 -0.1347
19436W        W39716  13.313  13.861   1.330 -0.1169  0.1754 -0.0119
19437W        W39717  16.872   5.413  14.126  0.2382 -0.1939 -0.0356
19438W        W39718   7.373   6.298   3.267  0.0475 -0.0698  0.3418
19439W        W39719  10.387   0.014  12.042 -0.0279 -0.0209  0.0536
19440W        W39720   9.128   2.134  14.049 -0.1962  0.2453  0.1185
19441W        W39721   2.498   8.451  13.753  0.0320 -0.3630  0.0997
19442W        W39722   4.379   1.311  12.822  0.0698 -0.3120 -0.1219
19443W        W39723  11.494   0.420  12.298  0.3427 -0.3331 -0.1857
19444W        W39724  13.699  10.452   2.033 -0.0860  0.0884  0.0869
19445W        W39725   7.149   5.220  10.564  0.0906 -0.0900 -0.1746
19446W        W39726   5.799   2.486   2.876 -0.1001  0.1668  0.1721
19447W        W39727  14.214   0.049  11.220  0.2571  0.2260  0.2834
19448W        W39728   6.962  18.902   0.892 -0.1895 -0.2824  0.2039
19449W        W39729   4.942   6.436   4.039  0.1507  0.1269  0.3773
19450W        W39730   1.583  11.287  14.170  0.0915  0.1554 -0.2427
19451W        W39731   8.089   4.464  11.067  0.1003  0.1246 -0.0359
19452W        W39732   5.022  11.013  13.593  0.2603 -0.0260 -0.0502
19453W        W39733  18.312   5.588   0.529  0.0816  0.2220 -0.1721
19454W        W39734   6.125  17.695  10.543  0.2147 -0.1206 -0.0435
19455W        W39735   1.345  11.513  13.122 -0.0892  0.0539  0.1477
19456W        W39736  15.148  11.549  11.821  0.1265  0.6074 -0.0272
19457W        W39737  11.440   4.782  12.790  0.0779  0.1201  0.0072
19458W        W39738   3.464   8.551  12.746  0.0308 -0.0448 -0.2250
19459W        W39739   4.746  13.371   9.690 -0.2902  0.1113 -0.1524
19460W        W39740  10.773   2.896   1.464 -0.4570 -0.0761  0.0816
19461W        W39741   1.312  17.458  12.723 -0.1378  0.0754 -0.1374
19462W        W39742  17.107   2.331   1.573 -0.1960  0.1280 -0.1115
19463W        W39743  19.192  11.720  10.567 -0.1282 -0.0052 -0.1555
19464W        W39744  11.284  14.435   0.990 -0.1160  0.2163 -0.2851
19465W        W39745  14.142   2.836  12.890  0.2172 -0.4232 -0.5944
19466W        W39746   8.586   6.187   0.153  0.0562 -0.0965  0.1651
19467W        W39747  18.687   0.409   2.332 -0.0500 -0.1286 -0.1255
19468W        W39748   0.453  19.006  12.048 -0.1959  0.1182 -0.3997
19469W        W39749   2.875  16.275   1.162 -0.1906 -0.1584  0.0884
19470W        W39750  17.609  11.533   2.734 -0.0646  0.1176 -0.0820
19471W        W39751  15.304  16.649  11.891  0.1197  0.1641 -0.2399
19472W        W39752   0.187  13.442   1.487  0.0404 -0.2973  0.2041
19473W        W39753   2.160   1.517   2.045  0.0267  0.0344 -0.3227
19474W        W39754   9.646   9.673   2.554  0.1773 -0.1070  0.0297
19475W        W39755   5.148   3.204   3.631  0.0356 -0.1556 -0.1143
19476W        W39756   1.509  16.477  10.124  0.2282  0.2035  0.2856
19477W        W39757  11.179   2.240   3.582  0.2038 -0.1620 -0.1125
19478W        W39758   3.495   4.211   1.036  0.0973  0.0877  0.0801
19479W        W39759  17.985   8.753   3.896  0.0791  0.3546  0.1631
19480W        W39760   9.409  17.409   0.729 -0.1982 -0.1304 -0.0520
19481W        W39761   4.323   7.253   4.784 -0.0808  0.0803 -0.2551
19482W        W39762  14.032  18.997  14.048 -0.0343 -0.0691  0.2332
19483W        W39763   3.358  14.508  12.740 -0.0659  0.1867 -0.3508
19484W        W39764   8.597  15.227  10.907  0.0886 -0.3463 -0.1083
19485W        W39765   2.350  11.384   0.353 -0.3176 -0.0486 -0.2908
19486W        W39766  10.063  13.419  13.469 -0.3022 -0.1573  0.0247
19487W        W39767  18.045   2.921   2.008  0.0059 -0.0662  0.0083
19488W        W39768   0.561  18.032   0.770  0.0467 -0.0257  0.1707
19489W        W39769   6.127  16.859  14.047 -0.1395 -0.1281  0.2038
19490W        W39770   5.320  19.059   0.417 -0.0969  0.0372  0.2215
19491W        W39771  12.787  17.367  11.729  0.0641  0.0436  0.0981
19492W        W39772   1.142  18.689   2.432  0.1337  0.1325 -0.1378
19493W        W39773  19.086  19.335  12.858 -0.0749  0.0724  0.1071
19494W        W39774   0.508  15.433  10.788  0.1749 -0.0227  0.0147
19495W        W39775  18.276   4.711  13.159 -0.2727  0.1600  0.2496
19496W        W39776  12.142   0.374  13.896 -0.0204  0.1232 -0.1773
19497W        W39777   8.592   7.943  11.419  0.3094 -0.0138 -0.0183
19498W        W39778  15.721  19.305  12.995  0.2151 -0.1164  0.0513
19499W        W39779  16.964   0.943   0.037 -0.0607  0.0354 -0.0280
19500W        W39780   7.976   7.575  12.428 -0.4117  0.0390 -0.2498
19501W        W39781  14.948  15.675   3.424  0.0265  0.1578 -0.0546
19502W        W39782   3.001   9.445  12.589  0.2032 -0.3602 -0.0134
19503W        W39783   1.535   7.562   3.577  0.0072  0.1635  0.0017
19504W        W39784   0.278   8.559  10.530 -0.1924 -0.1440  0.3442
19505W        W39785   4.792  15.597  13.908  0.0976  0.0053 -0.2492
19506W        W39786  15.834   6.702   0.021  0.1193 -0.1879  0.0397
19507W        W39787   6.106  18.735  11.928 -0.0304  0.0709  0.2681
19508W        W39788  13.758   3.568  10.979 -0.4153  0.1649  0.0663
19509W        W39789   7.322   6.432  13.867  0.0045 -0.1698 -0.2658
19510W        W39790   1.417   4.914   1.952 -0.1391  0.1174 -0.1812
19511W        W39791  13.037  14.614  13.034  0.2172 -0.0713 -0.0051
19512W        W39792   8.222   4.264  13.658 -0.1261 -0.0462 -0.0214
19513W        W39793   0.221  16.914  10.946  0.1044 -0.4069  0.2431
19514W        W39794   7.503   1.844  13.975 -0.0360  0.3727 -0.1472
19515W        W39795   0.311   8.063   1.703 -0.0226 -0.1331 -0.2242
19516W        W39796   6.291   9.397  11.238 -0.0908 -0.0352 -0.1960
19517W        W39797   6.021   4.828   0.316 -0.2800  0.1154 -0.2614
19518W        W39798  16.388   2.369  11.548  0.0746 -0.0387 -0.1662
19519W        W39799  18.683  14.664  11.783  0.1114  0.0347  0.2951
19520W        W39800  14.501  10.279   2.344  0.2986  0.1795 -0.1042
19521W        W39801   6.415  17.860  11.138 -0.2569 -0.0976 -0.0343
19522W        W39802  10.224   6.791   2.775 -0.0717  0.0839 -0.0690
19523W        W39803  13.841   6.646   2.926  0.1738 -0.1213  0.0729
19524W        W39804  17.261  15.887   3.644  0.0463 -0.0011  0.2675
19525W        W39805  10.352  12.520  12.207 -0.1601 -0.1138 -0.0938
19526W        W39806  10.064  12.759  13.228  0.2577 -0.0490 -0.0398
19527W        W39807  13.903  19.420   3.548  0.3556  0.2048  0.1073
19528W        W39808   0.540   8.261  13.536 -0.3577  0.2236 -0.1888
19529W        W39809  16.914   1.721   4.857 -0.0034  0.0128  0.0878
19530W        W39810  19.022  17.773   2.254  0.1568 -0.3447 -0.2705
19531W        W39811   4.678   1.297   0.778 -0.1382  0.3766 -0.1297
19532W        W39812   6.785   9.215  12.563 -0.2330  0.2462  0.0338
19533W        W39813   0.708   2.524  12.811  0.1325  0.2197 -0.3840
19534W        W39814   1.973   5.040   3.517 -0.0923  0.0958 -0.1384
19535W        W39815  12.163  11.341  11.770 -0.0711 -0.1447 -0.2755
19536W        W39816   9.262  15.137  11.791 -0.0982 -0.0506 -0.2526
19537W        W39817   1.520  10.346  12.199  0.3123  0.0714  0.3069
19538W        W39818  12.122  14.683   0.151 -0.0510  0.0078 -0.0497
19539W        W39819  16.901  16.709   2.400  0.1017 -0.2121 -0.2196
19540W        W39820   4.139  18.969   0.066  0.0284 -0.0747  0.0726
19541W        W39821   7.872   8.334   3.325 -0.0936  0.1821  0.1591
19542W        W39822  14.319   6.006   0.617 -0.0746 -0.1114  0.2436
19543W        W39823   3.284  17.930   0.046  0.0303  0.0187 -0.0675
19544W        W39824   6.464   4.337   4.861  0.2238  0.3662  0.0540
19545W        W39825   2.295  18.238   1.904 -0.4174  0.1815 -0.1248
19546W        W39826   6.491  10.237  12.754  0.2685  0.0937 -0.0106
19547W        W39827  19.329   1.401  12.166 -0.0504 -0.1709 -0.4352
19548W        W39828  18.791  15.175   0.660 -0.0937 -0.0417  0.2687
19549W        W39829   7.725  10.298  12.266  0.0591  0.1464  0.0949
19550W        W39830   5.972  14.944   2.839 -0.1474 -0.1208 -0.0920
19551W        W39831   2.989   3.026  13.686  0.4411 -0.2247  0.0192
19552W        W39832   6.299   2.797  13.738  0.1410 -0.2834  0.6331
19553W        W39833   0.180  14.832  12.065  0.0744 -0.1136 -0.0522
19554W        W39834   2.794  18.604  12.550  0.0128 -0.0367  0.0399
19555W        W39835  11.178   6.240   1.167 -0.0087 -0.0011 -0.0332
19556W        W39836  17.545   8.226   1.287  0.0712 -0.0523  0.2001
19557W        W39837  18.800   6.456  13.879 -0.0059  0.0702 -0.0755
19558W        W39838  18.920  16.007   9.686 -0.1838  0.2737 -0.2737
19559W        W39839  17.761  12.947   3.507 -0.1614  0.2715 -0.0405
19560W        W39840   5.592  12.373   2.186 -0.1980 -0.1182  0.1781
19561W        W39841   8.768   6.896  12.316 -0.1639 -0.1227  0.0636
19562W        W39842  18.258   7.514   2.866 -0.0378 -0.2127  0.1197
19563W        W39843  17.803   1.137   1.514 -0.2082  0.3808  0.0488
19564W        W39844  13.619  18.171   2.811  0.2798  0.0735  0.2204
19565W        W39845   2.021   0.834  13.818 -0.1718  0.0348  0.0957
19566W        W39846   3.395  17.984  14.044 -0.0528  0.2242 -0.0599
19567W        W39847   2.419  10.599   0.270 -0.3253  0.1779  0.1708
19568W        W39848  13.707   0.024  11.126  0.0944 -0.4429  0.0091
19569W        W39849   5.416  12.037  14.127 -0.0159 -0.2886  0.0341
19570W        W39850   4.327  11.598   1.041 -0.0075 -0.0783 -0.0294
19571W        W39851  10.362   6.805   0.006  0.1762  0.0544 -0.2510
19572W        W39852  15.179   6.188   0.789  0.0959  0.1417  0.1862
19573W        W39853  11.803  16.471  10.428 -0.1424  0.0234 -0.1359
19574W        W39854   2.323   2.210  12.618 -0.0607 -0.0807 -0.1531
19575W        W39855   5.654  15.249  11.867 -0.0851 -0.0427  0.1352
19576W        W39856  16.657   6.287   0.182  0.1303  0.1326  0.0526
19577W        W39857   9.114  13.684  10.741 -0.2256  0.1676 -0.0107
19578W        W39858  12.186   5.933   0.001 -0.2441  0.1014 -0.0080
19579W        W39859  14.985  18.591   0.636  0.1300 -0.4536  0.2020
19580W        W39860   1.747   6.876   0.774  0.1253  0.2598 -0.1951
19581W        W39861  15.393  14.263  14.021  0.1086 -0.0768  0.1324
19582W        W39862   8.330   3.806   0.251  0.0489  0.0116  0.1804
19583W        W39863  10.927  15.187   1.157  0.2976  0.0980 -0.1425
19584W        W39864   1.746   0.150  11.330  0.3157 -0.0487  0.1897
19585W        W39865  16.471   4.570   0.873 -0.0217 -0.1800 -0.3975
19586W        W39866  15.399  11.915  12.685  0.1287  0.2895  0.0333
19587W        W39867   8.532  11.555  10.702 -0.3843 -0.0803 -0.3753
19588W        W39868   8.693   7.159   0.173 -0.2867  0.0778 -0.1958
19589W        W39869  17.713   7.396   2.157 -0.0447  0.2269  0.1136
19590W        W39870  17.521   3.772   3.900  0.1066 -0.5178 -0.0740
19591W        W39871  18.160  14.782   2.264  0.3143  0.1559  0.0215
19592W        W39872   4.505   8.639  13.578  0.0537  0.1081 -0.2860
19593W        W39873   4.257  12.659   2.534  0.0074  0.0009 -0.0281
19594W        W39874   1.970  17.622  10.844  0.2415 -0.1681  0.0639
19595W        W39875   2.082   2.216  13.985 -0.1141 -0.0410 -0.0998
19596W        W39876   2.814  12.779   2.313 -0.0903  0.0472  0.1503
19597W        W39877   8.653  17.140   1.680  0.0084  0.1393  0.2120
19598W        W39878  12.781   0.836  11.231 -0.2944  0.3165 -0.2049
19599W        W39879   0.689   0.377   2.755  0.0848  0.0298  0.0620
19600W        W39880  14.429  15.839  11.025  0.0951  0.0412  0.0783
19601W        W39881  14.237  15.802   3.417  0.0591  0.0748 -0.0005
19602W        W39882  13.222   7.110  11.935  0.0698  0.2017  0.0563
19603W        W39883  17.025  16.614  11.361 -0.0826 -0.2293 -0.2314
19604W        W39884   4.796   4.495  13.507  0.1994 -0.0623 -0.0971
19605W        W39885  16.577   9.589   2.219  0.0496 -0.0837 -0.0211
19606W        W39886   4.914   7.706   1.629 -0.1207 -0.1615  0.1143
19607W        W39887   8.285  14.894  11.394  0.1581 -0.1538  0.0209
19608W        W39888   8.836  11.562   2.411 -0.0685  0.1267 -0.0565
19609W        W39889  14.298  18.373  12.013 -0.1682 -0.0352  0.0777
19610W        W39890  17.198   9.943   1.018  0.1226  0.2037  0.0627
19611W        W39891   2.133   6.393  13.986 -0.1493  0.1398 -0.0240
19612W        W39892   7.612  17.350   1.770  0.2091  0.1222  0.1139
19613W        W39893   7.636   7.705   0.777 -0.1580  0.0319  0.0820
19614W        W39894  17.605  11.445   1.750 -0.0388  0.2501 -0.1420
19615W        W39895   3.810  13.856  11.192  0.0345 -0.1981  0.0588
19616W        W39896  17.902  17.646  12.118  0.0988  0.2164  0.2936
19617W        W39897  12.283  13.838   1.582 -0.0814 -0.2923 -0.1431
19618W        W39898   2.516   1.149  11.895  0.2288 -0.1631  0.0824
19619W        W39899  18.529  12.794  14.099 -0.2102 -0.2504 -0.0674
19620W        W39900   8.820   7.474   1.553  0.1339  0.1403 -0.0882
19621W        W39901   0.222  16.551   0.260 -0.0186  0.0104 -0.0887
19622W        W39902   1.248  12.929  11.833 -0.2269 -0.0736  0.2327
19623W        W39903   6.209  15.669  13.825  0.1467 -0.1109  0.2774
19624W        W39904  16.162  15.959   2.285 -0.0866 -0.1914 -0.4959
19625W        W39905   5.248  12.526  10.634  0.0774 -0.1036 -0.0396
19626W        W39906  16.523   3.403  11.013 -0.1488 -0.1013  0.0757
19627W        W39907  16.578   0.346   2.450  0.1119 -0.2357 -0.0462
19628W        W39908   8.225  12.262   3.166  0.0528 -0.2967  0.1645
19629W        W39909   6.143  10.899  11.528  0.0036  0.1816 -0.1267
19630W        W39910   6.613   3.829  13.773 -0.4067 -0.0763 -0.1080
19631W        W39911  13.226   6.031  14.443 -0.1415 -0.0529 -0.0933
19632W        W39912   7.772  11.272  13.409  0.0707 -0.0281 -0.1442
19633W        W39913   1.133   9.336   9.021 -0.2090 -0.0400  0.2046
19634W        W39914   2.368  11.742  14.395  0.0652 -0.0408  0.1439
19635W        W39915  15.026  10.478  14.420 -0.0002 -0.0465 -0.0537
19636W        W39916  17.060   6.464  11.992 -0.0930  0.1635  0.0405
19637W        W39917   2.604   7.420  12.117  0.3916  0.0239 -0.1722
19638W        W39918  12.376  17.410  13.600 -0.1991 -0.1184  0.2036
19639W        W39919  11.484   5.116  12.406  0.3634 -0.0486  0.0854
19640W        W39920   9.477   8.301   2.379 -0.3730  0.3511 -0.1717
19641W        W39921   6.165  12.840  10.528 -0.1386  0.0077  0.0067
19642W        W39922  17.596  11.844   0.796 -0.1960 -0.1734 -0.1211
19643W        W39923   7.408   6.176  10.532 -0.2568  0.1527 -0.0589
19644W        W39924   7.886   9.537   3.554  0.0544  0.1252 -0.3329
19645W        W39925  14.749  15.827   1.649  0.2146  0.2453 -0.2459
19646W        W39926   5.817   6.341   1.709  0.3375  0.0762  0.0016
19647W        W39927  10.741   5.933   3.178  0.0744 -0.1123 -0.3845
19648W        W39928  16.785  11.511   2.315 -0.5805 -0.3165 -0.0984
19649W        W39929  12.128   5.910   1.937  0.1654  0.1972  0.1086
19650W        W39930  10.669   7.040  12.507  0.3345 -0.1253  0.0836
19651W        W39931  16.192   5.482   1.188  0.2199  0.2839 -0.1898
19652W        W39932   1.253   7.150  12.828 -0.1242 -0.1835  0.0112
19653W        W39933  14.541  10.105   0.552  0.0857  0.0511  0.3955
19654W        W39934  12.171   9.930   2.317  0.0277 -0.0901 -0.0518
19655W        W39935   8.787  14.651  12.484 -0.0260  0.2003  0.2910
19656W        W39936   9.563  13.127   2.515  0.1376 -0.1023  0.2259
19657W        W39937   2.987   7.368  10.894  0.1344 -0.2062 -0.0121
19658W        W39938  14.823   6.674  12.277  0.0996 -0.1642 -0.1933
19659W        W39939   3.653   9.908  11.764  0.1067 -0.2029 -0.0157
19660W        W39940   2.385   2.845   4.427  0.1905 -0.1099 -0.3867
19661W        W39941  17.138  13.602   2.983  0.3833 -0.0444  0.1784
19662W        W39942  14.998  10.251   2.141  0.1565 -0.1152 -0.0051
19663W        W39943   5.387  17.653   3.683  0.1419  0.1567  0.2122
19664W        W39944  13.674   3.552   2.681  0.1400  0.2508  0.1784
19665W        W39945   7.437  10.985   2.063 -0.0253 -0.0283 -0.1569
19666W        W39946   0.719  16.654  11.148 -0.0504 -0.1133 -0.0532
19667W        W39947  10.628  12.191   0.512 -0.1424  0.0214  0.0186
19668W        W39948  16.319  12.912   1.547  0.1153 -0.0837  0.3030
19669W        W39949  11.550   1.491  12.454  0.0778 -0.0767  0.3394
19670W        W39950  14.773   8.732  12.353  0.2689 -0.1039  0.2127
19671W        W39951  19.382   4.369  12.214 -0.2762  0.0351 -0.1099
19672W        W39952   9.741   2.505  13.417 -0.0142  0.1015 -0.1008
19673W        W39953   3.714  11.404   2.846 -0.2691 -0.3310 -0.0069
19674W        W39954   5.676  14.068  13.520  0.0561 -0.1418 -0.0954
19675W        W39955   5.171  12.122   2.216 -0.1257  0.2091 -0.1059
19676W        W39956   1.316   5.957   2.271 -0.2317 -0.0908 -0.0592
19677W        W39957   2.588   7.933   2.726  0.1011 -0.2124  0.1322
19678W        W39958   1.077  13.950   3.501  0.3101 -0.0897  0.2367
19679W        W39959  12.182   6.444  11.395 -0.1336  0.1083 -0.3386
19680W        W39960   4.050   5.805  12.420 -0.1347 -0.2714 -0.1742
19681W        W39961  15.550   5.317   3.212 -0.2219 -0.2805 -0.2595
19682W        W39962  15.303   8.869  13.662 -0.1571  0.0412 -0.0558
19683W        W39963   9.075  18.619   0.009 -0.1641 -0.1053 -0.1690
19684W        W39964   1.611   3.501   2.059 -0.1193  0.1300 -0.1786
19685W        W39965  12.062   4.573  13.656  0.1081  0.1371  0.1578
19686W        W39966  15.830  11.094  10.657 -0.1130 -0.1402  0.3436
19687W        W39967   0.942   1.121  13.398  0.2905  0.0347 -0.2695
19688W        W39968  18.147  14.158  11.046  0.0493  0.0606 -0.0563
19689W        W39969   6.925  18.544   0.480 -0.2301  0.2409 -0.0492
19690W        W39970   5.015  14.246   1.436  0.0212  0.3921 -0.2166
19691W        W39971   7.027   0.660  14.138 -0.2671  0.1172  0.1108
19692W        W39972   2.116   2.149  13.066 -0.3721  0.1689 -0.1098
19693W        W39973  19.088   6.548   2.572 -0.0042  0.2491  0.0705
19694W        W39974   9.907   5.326   1.222  0.0577 -0.1452 -0.0940
19695W        W39975  18.196  14.305   2.491 -0.0695  0.2147  0.1371
19696W        W39976  17.133   5.197  11.370  0.1418 -0.1474 -0.1598
19697W        W39977   7.303   7.815   2.475 -0.1932 -0.0654  0.2687
19698W        W39978  15.761   5.971  13.317 -0.0750  0.0655 -0.0166
19699W        W39979  13.624  13.892   9.449  0.2270 -0.0872  0.1879
19700W        W39980   3.393  12.423  11.476  0.0199 -0.2714 -0.1295
19701W        W39981   1.447   0.896  13.303  0.1247 -0.1507  0.1136
19702W        W39982   8.087   5.957   1.415  0.6622  0.0815  0.0145
19703W        W39983  14.792   6.012   0.554  0.0005  0.2084 -0.0363
19704W        W39984   5.599  16.255   2.651 -0.2909 -0.1045  0.0277
19705W        W39985  16.367  16.820   2.044 -0.0344  0.0701 -0.1528
19706W        W39986  15.681  17.491   2.547  0.0691 -0.0043 -0.2301
19707W        W39987   9.746  10.314  10.514  0.0805  0.0095  0.0384
19708W        W39988   5.547   9.297  11.987 -0.0487  0.0192 -0.1238
19709W        W39989  17.413   8.574   0.872 -0.1658 -0.1369 -0.0220
19710W        W39990  12.920  16.733  11.187  0.0104  0.1090  0.0588
19711W        W39991   3.758  11.416   1.815  0.1651  0.0646  0.0512
19712W        W39992   1.247  16.754   4.422  0.0489 -0.0431 -0.0051
19713W        W39993  17.815   8.659  10.580 -0.0135  0.3814  0.0940
19714W        W39994  17.172   3.458  12.747 -0.0069  0.0282 -0.1326
19715W        W39995  18.079   7.920   3.173 -0.2839  0.0201 -0.1708
19716W        W39996  19.103  10.717  10.729  0.2711 -0.0302  0.0263
19717W        W39997   6.156  10.403  10.109  0.3396  0.3531 -0.4354
19718W        W39998   9.803   8.523  11.381 -0.0823 -0.1487 -0.1892
19719W        W39999  17.988  10.701   0.188 -0.1493 -0.0064 -0.2913
19720W        W40000  11.875   9.117  13.049 -0.0256 -0.1186 -0.0856
19721W        W40001   3.448   2.784  13.453  0.3204 -0.2040  0.0522
19722W        W40002   6.951   1.038  14.441  0.0524  0.0636 -0.0003
19723W        W40003  12.397  15.200  11.843  0.4432  0.0856  0.0729
19724W        W40004   0.730   2.974  12.599  0.3598 -0.2921  0.3885
19725W        W40005  15.050  17.842  11.521  0.1793  0.0380  0.2982
19726W        W40006  18.789  10.824  12.971  0.2548 -0.0921 -0.2420
19727W        W40007  15.421   6.284  11.612  0.1780  0.0478  0.3241
19728W        W40008   3.203  13.495   3.705  0.3109  0.2298 -0.0770
19729W        W40009  15.931  10.291   4.111 -0.0183  0.0386  0.5115
19730W        W40010  13.632   1.861   0.517  0.1170 -0.3765 -0.2074
19731W        W40011   4.104  18.501   0.398  0.0796  0.1218  0.2915
19732W        W40012   6.164  15.962  11.338  0.0607 -0.0333 -0.2331
19733W        W40013  17.077   6.225   3.537 -0.1409  0.0952 -0.2060
19734W        W40014   0.892  14.040   0.950 -0.1218 -0.0962  0.2359
19735W        W40015  16.828  17.126  11.399  0.2506  0.0194 -0.1535
19736W        W40016   2.393   9.192  10.619 -0.2270 -0.0960 -0.0720
19737W        W40017   5.448   3.767  12.350 -0.0118  0.1664  0.2994
19738W        W40018   2.402  19.006  10.826 -0.1856 -0.2284 -0.3692
19739W        W40019  16.656   9.625  12.584 -0.2791 -0.1589 -0.3922
19740W        W40020   5.844  16.878  10.783 -0.0357 -0.0338 -0.1237
19741W        W40021   4.652  11.028  10.051 -0.1427 -0.0651 -0.0158
19742W        W40022   1.306   6.556  14.415 -0.1603  0.0913  0.0022
19743W        W40023  19.392   7.090   4.176 -0.2068 -0.0792  0.1531
19744W        W40024  14.118  10.295  13.890  0.1332 -0.0608  0.0273
19745W        W40025   9.086  17.294   3.005 -0.2376 -0.1910 -0.3491
19746W        W40026  12.095   0.895  11.859 -0.2269  0.3035  0.1088
19747W        W40027   3.921   3.668   3.097 -0.1837 -0.0940 -0.2545
19748W        W40028   7.151  13.911   4.231  0.1552 -0.1416  0.0296
19749W        W40029  15.409   7.710   1.608  0.0575  0.1216  0.0949
19750W        W40030   4.665   6.083  12.979  0.0098  0.2503 -0.0740
19751W        W40031  10.770   1.931  13.448  0.2713 -0.3590  0.3442
19752W        W40032  14.719   0.111   2.051  0.1535 -0.2388 -0.1823
19753W        W40033  15.236   5.894  13.239  0.4830 -0.1692 -0.1490
19754W        W40034   2.276  12.081  12.579  0.3249  0.0110 -0.0912
19755W        W40035   9.102  14.719  11.533  0.3180  0.1659 -0.0935
19756W        W40036  12.610  11.615  10.763  0.0302  0.1132 -0.3069
19757W        W40037   3.911   6.368  10.113  0.0812  0.1124  0.1113
19758W        W40038  14.222  15.631   2.031  0.1073  0.3750  0.1815
19759W        W40039   4.468   0.552   3.458 -0.0386 -0.1109 -0.1664
19760W        W40040  15.150  11.035  13.929  0.2810  0.1001  0.0972
19761W        W40041   1.063   2.685  11.010 -0.1052 -0.0034  0.4706
19762W        W40042  16.769   4.230   1.209 -0.0347 -0.1300 -0.2433
19763W        W40043   4.628  10.900   0.323  0.0279 -0.1715  0.3423
19764W        W40044   4.561  16.366  14.055  0.3059  0.4387 -0.0379
19765W        W40045   2.121   4.219  13.527 -0.1479  0.5358  0.0685
19766W        W40046   0.741   4.020  13.401  0.1194 -0.2209  0.0831
19767W        W40047  18.589   2.510  13.289  0.1536  0.0394 -0.2135
19768W        W40048  15.801  11.598  10.704 -0.2146  0.0909 -0.0415
19769W        W40049   9.480  18.328  10.137  0.1137 -0.1131  0.1190
19770W        W40050  12.679  17.119   2.108 -0.3770  0.1919 -0.0218
19771W        W40051   4.919  14.592  12.523 -0.0320  0.1394  0.0634
19772W        W40052   7.368   6.565   0.160  0.1595  0.0011 -0.2218
19773W        W40053  15.189   1.464   4.730  0.1153 -0.1858  0.1858
19774W        W40054  19.257  16.404   1.130  0.3422 -0.2107 -0.0367
19775W        W40055  14.459  13.232   2.776 -0.1733  0.1298  0.0275
19776W        W40056   2.842  14.468  11.445 -0.2638  0.1498  0.5181
19777W        W40057  15.790   6.632   2.510  0.1821  0.1269  0.1820
19778W        W40058  13.883   5.271  11.967 -0.5016  0.0970 -0.3317
19779W        W40059   6.040  11.634  13.637  0.0347 -0.0858 -0.0023
19780W        W40060   0.064  11.243   1.599  0.0808  0.0584  0.2389
19781W        W40061   9.328  10.460   0.040 -0.1622  0.1813  0.0554
19782W        W40062  17.466  14.017  14.253  0.1507  0.2944 -0.2145
19783W        W40063   2.492   8.801   0.229  0.1897  0.1792 -0.3013
19784W        W40064  13.252   3.497   1.820 -0.0416  0.0461  0.1297
19785W        W40065  15.871   0.974   1.836 -0.0706  0.1241 -0.0566
19786W        W40066   9.957  18.820   1.298 -0.1586 -0.1552 -0.0685
19787W        W40067   6.583   7.577   0.069  0.2587 -0.1215  0.0004
19788W        W40068  16.957   8.166   2.299 -0.2826 -0.2051 -0.2045
19789W        W40069  17.940  14.032  14.368  0.0135 -0.1143  0.1406
19790W        W40070   6.508  18.799  14.087  0.3589 -0.4401 -0.0194
19791W        W40071  11.057   9.675   1.530  0.1779  0.0855  0.0279
19792W        W40072  13.265  14.529  13.909  0.3048  0.1873  0.0224
19793W        W40073  16.961  12.525  13.691 -0.1364  0.1364 -0.0032
19794W        W40074   7.552  10.544  12.787  0.2302  0.1623 -0.0794
19795W        W40075   7.427   9.302  14.372 -0.0945  0.1307 -0.2195
19796W        W40076   9.548   2.781   3.297  0.1119  0.2446 -0.0090
19797W        W40077   6.784  17.170   3.546 -0.0250 -0.2084  0.1572
19798W        W40078  11.703  13.923  11.049  0.0006  0.1561  0.1028
19799W        W40079  15.983   5.058  10.897  0.3589 -0.2953 -0.0499
19800W        W40080  17.942   7.614  14.011  0.2667 -0.1442  0.0834
19801W        W40081   8.432  18.519   2.995 -0.1710  0.0154 -0.4425
19802W        W40082  13.946  11.452   3.107 -0.1723 -0.1511  0.1199
19803W        W40083   7.985  11.690  12.549 -0.1645 -0.1653  0.0024
19804W        W40084   6.554   3.578  10.751 -0.1174  0.2521 -0.0802
19805W        W40085  16.952  10.781   2.638 -0.0771 -0.3718  0.1606
19806W        W40086   2.457  12.500  11.697 -0.0585 -0.0013  0.0264
19807W        W40087  19.323  11.020   0.340  0.0497 -0.3726  0.0437
19808W        W40088   3.381   2.708   2.266  0.2328 -0.4115  0.0114
19809W        W40089   3.300   1.042  14.200  0.0593 -0.0155  0.0816
19810W        W40090   8.012  12.312  13.989  0.2865 -0.0213  0.1025
19811W        W40091  17.699   5.807  13.616 -0.1434  0.0373 -0.2705
19812W        W40092  12.128  12.889   3.667 -0.1065  0.1558 -0.0083
19813W        W40093  18.332   9.019   1.992 -0.2451 -0.0231 -0.0074
19814W        W40094  15.862  10.306  12.225 -0.0573  0.0208 -0.2104
19815W        W40095  10.417  10.077  12.827 -0.2118 -0.1689  0.1609
19816W        W40096   9.193   2.642   1.738  0.3444  0.0427 -0.0604
19817W        W40097   2.898  14.804   3.669  0.0001  0.1786  0.0789
19818W        W40098   5.693  14.800   3.703 -0.0522  0.0189  0.3971
19819W        W40099  14.881  18.467  12.931  0.2068 -0.1056 -0.2937
19820W        W40100   0.424  15.192  12.900 -0.0661 -0.1106 -0.0264
19821W        W40101  17.782  18.402   2.513  0.0324  0.1674  0.1356
19822W        W40102   9.361  15.814  11.148 -0.0326  0.2102 -0.1680
19823W        W40103  17.925   9.998  11.919  0.1225 -0.0957  0.2862
19824W        W40104  16.320  12.843  13.897 -0.4303 -0.1601  0.2330
19825W        W40105   1.408  14.134  11.068  0.1233  0.2137 -0.0186
19826W        W40106   7.141  15.764  13.720 -0.0583 -0.1093  0.0264
19827W        W40107  12.428   9.908   1.262  0.0101 -0.0114  0.1222
19828W        W40108  16.525  12.744  12.754  0.2230 -0.0860  0.1517
19829W        W40109  16.012   2.186  12.156 -0.1700 -0.2151  0.0306
19830W        W40110   4.651   6.415   1.241  0.0025  0.0722  0.0068
19831W        W40111  12.803  14.317   0.582 -0.3012 -0.2176  0.0885
19832W        W40112   0.643  10.559   0.372  0.0126  0.0311 -0.0289
19833W        W40113  11.452  13.981   1.280 -0.0074  0.0980 -0.3820
19834W        W40114  19.225   1.169   0.841 -0.2551  0.0939 -0.0799
19835W        W40115  15.823   4.978  11.346  0.0062 -0.0537  0.0146
19836W        W40116  14.180   8.104   0.979 -0.0017  0.1049 -0.2960
19837W        W40117  12.724   3.659   0.367  0.1401 -0.2286  0.1508
19838W        W40118   2.877  14.013   0.797 -0.1940 -0.1779  0.0608
19839W        W40119  15.113   7.600  13.009 -0.1607 -0.1713 -0.1428
19840W        W40120  15.838   2.583   1.242 -0.0105 -0.0982  0.0213
19841W        W40121   1.611   1.936   3.069 -0.1440 -0.1459 -0.3645
19842W        W40122  14.445   0.282   2.765 -0.0287 -0.3859  0.2350
19843W        W40123   9.611   9.701  10.978 -0.0835  0.0761 -0.2371
19844W        W40124   3.723  18.766   4.189  0.0308 -0.0293 -0.0239
19845W        W40125  15.570  16.933   9.931  0.1731 -0.0193  0.0358
19846W        W40126   9.663  18.288   1.057  0.2213 -0.0150  0.1119
19847W        W40127   2.204  16.205  12.062 -0.0404  0.0793  0.0607
19848W        W40128   6.165  14.791   3.900  0.1195  0.2317 -0.0913
19849W        W40129  13.291   3.859  11.336  0.0816 -0.1607  0.0215
19850W        W40130   9.312  10.355  12.633  0.1995 -0.1767 -0.0133
19851W        W40131  11.275   0.886   2.781  0.0395  0.1292  0.0874
19852W        W40132  17.835   9.016  11.516  0.0363 -0.0083  0.0202
19853W        W40133   7.884  11.903   2.970 -0.1032 -0.0362 -0.0672
19854W        W40134  13.574  15.342  12.076  0.0866  0.2850  0.0328
19855W        W40135  12.077   6.825   1.915  0.1145  0.3343  0.2783
19856W        W40136  14.450   6.097   2.398  0.3261 -0.3205  0.1870
19857W        W40137  11.420  18.011   4.152  0.1454 -0.0777  0.0803
19858W        W40138   5.065   1.525  13.571  0.4995 -0.2254  0.0252
19859W        W40139  18.617  17.843   0.621 -0.1718  0.1638  0.1637
19860W        W40140  15.777  12.259  11.670 -0.0289 -0.1451 -0.1911
19861W        W40141   9.125  15.366   0.504 -0.0374 -0.1129  0.2446
19862W        W40142  11.007  17.762   4.048 -0.0167  0.2304 -0.0277
19863W        W40143   9.747   4.376   4.202 -0.1565  0.1256 -0.0535
19864W        W40144  10.108   2.184  13.314  0.1066 -0.0241  0.0807
19865W        W40145   0.415   7.554  11.113 -0.1353 -0.4027 -0.0025
19866W        W40146  10.580  10.935   0.084  0.0739 -0.1040 -0.2316
19867W        W40147   1.176  12.974   3.156 -0.0771 -0.1942  0.1421
19868W        W40148  17.894   7.177   2.731 -0.0924  0.1575  0.0965
19869W        W40149  16.607   3.381   0.764  0.0907 -0.0123 -0.0889
19870W        W40150  16.820  15.449  14.222  0.2563  0.0556 -0.0335
19871W        W40151  14.983  17.290  11.108  0.0907 -0.0134 -0.1336
19872W        W40152  10.024   2.963   3.109  0.0770  0.0840 -0.1384
19873W        W40153  11.815  10.918  11.736 -0.2352  0.2649 -0.1669
19874W        W40154  13.826   8.122   0.618 -0.4028 -0.2133  0.2213
19875W        W40155  16.321   8.379  13.919 -0.2537 -0.1928 -0.0091
19876W        W40156  11.277   7.060   1.167 -0.0297 -0.2214  0.0009
19877W        W40157  18.325  10.088  10.825 -0.5518  0.2037 -0.2124
19878W        W40158   8.562  12.871  11.839 -0.2191  0.2472 -0.1121
19879W        W40159   5.809  13.086  10.279  0.1069  0.0691 -0.1385
19880W        W40160  12.169  18.676   3.517 -0.1017 -0.2455 -0.1667
19881W        W40161   7.536  15.091  11.947  0.1510  0.1586 -0.1788
19882W        W40162  14.354  18.817   4.264  0.0872  0.1173  0.0797
19883W        W40163   1.332  12.360  13.779  0.0921  0.0981  0.2409
19884W        W40164   0.110   2.772   0.241  0.0903  0.0670 -0.0236
19885W        W40165   0.195   3.541  12.679  0.0716 -0.0682 -0.1045
19886W        W40166   3.520   9.559   2.526  0.0751  0.0159 -0.1001
19887W        W40167   0.449  12.221   1.134 -0.1211  0.3676  0.0668
19888W        W40168   1.314  10.207  12.717  0.1001  0.0867 -0.0961
19889W        W40169  14.193   4.825   1.114 -0.0776 -0.1318  0.0434
19890W        W40170   3.953  14.245  12.914  0.1575 -0.0173  0.0159
19891W        W40171  15.563   5.357  11.800 -0.1978  0.1709 -0.0178
19892W        W40172  10.497   5.657  11.883 -0.0304 -0.0358 -0.0117
19893W        W40173   4.670   9.378   0.402  0.2447  0.3672  0.0076
19894W        W40174   6.882   8.032  12.031 -0.1335  0.0647  0.0859
19895W        W40175  14.467  11.525   3.265 -0.0496 -0.0472  0.0740
19896W        W40176   9.327  12.679   2.823 -0.1618  0.0734  0.2466
19897W        W40177   5.732  15.102  11.141  0.0166 -0.0031 -0.0343
19898W        W40178  16.854  12.034   2.242  0.0160  0.2387 -0.0737
19899W        W40179  18.561   8.426  10.146  0.3940 -0.0308 -0.1125
19900W        W40180  19.191  15.216   0.258 -0.2734 -0.3017  0.2050
19901W        W40181   6.510  13.337  11.598  0.1856 -0.0172  0.0146
19902W        W40182  10.993  18.631   5.667  0.2054  0.1373 -0.0767
19903W        W40183  14.586  10.042   3.955 -0.0374 -0.0405 -0.2206
19904W        W40184  15.301   3.461  10.920  0.0837 -0.0144  0.0827
19905W        W40185   4.146  15.277   3.386  0.0027 -0.0368 -0.1594
19906W        W40186   9.489   5.918   3.537  0.1542 -0.0452 -0.1384
19907W        W40187   8.706   2.105   4.321 -0.0838 -0.3056 -0.0188
19908W        W40188   3.088  19.065   0.839  0.1190 -0.1435 -0.1552
19909W        W40189  18.030   8.306  12.977  0.0102 -0.5093  0.0482
19910W        W40190  19.065   6.735   0.971 -0.0871  0.1670 -0.0667
19911W        W40191   7.554  16.660   2.490  0.4197 -0.1928 -0.1548
19912W        W40192  11.416  11.556   2.009  0.1485 -0.3245 -0.0823
19913W        W40193   2.435   9.891  14.108  0.0420 -0.0459  0.3378
19914W        W40194   4.388  14.995   1.011 -0.1743 -0.0521  0.0726
19915W        W40195  18.058   3.415  13.153 -0.1331  0.0618 -0.1631
19916W        W40196  15.426   4.034  11.459 -0.0901 -0.1362  0.2118
19917W        W40197   6.337  13.913  14.260  0.0243  0.1760  0.1137
19918W        W40198   0.369   1.807  13.951  0.0475 -0.1775 -0.0949
19919W        W40199   4.899   6.969   3.234  0.2858  0.1924  0.1958
19920W        W40200   8.899  10.225  14.361 -0.1588 -0.1409 -0.0481
19921W        W40201  12.351   0.630  10.425 -0.1467 -0.0867  0.6805
19922W        W40202  15.510  10.747  12.470 -0.2658  0.0580  0.0850
19923W        W40203   1.671  13.066  14.427 -0.1459 -0.1042 -0.0056
19924W        W40204   9.300  16.490  12.873  0.1527 -0.0901 -0.4173
19925W        W40205   8.040   7.801   3.607  0.2067  0.1155 -0.1911
19926W        W40206   8.250  13.244   3.672  0.0740  0.2452 -0.3567
19927W        W40207   0.104   0.065  10.505 -0.0737  0.1485  0.2121
19928W        W40208   6.460  17.019   3.921 -0.0128 -0.1204  0.1332
19929W        W40209  17.835   8.512   2.633  0.1460 -0.2533  0.0613
19930W        W40210  11.224  13.256  13.277  0.1016  0.2826 -0.1845
19931W        W40211   4.358  15.538   2.937 -0.0347  0.0605  0.1201
19932W        W40212  14.556  12.012   9.655 -0.0797 -0.3184  0.0133
19933W        W40213  17.568   6.641  13.776 -0.1910 -0.0382 -0.1160
19934W        W40214   4.068   8.027  11.587 -0.0797  0.3197 -0.1307
19935W        W40215   0.131   7.541   3.972 -0.4214 -0.3272  0.2755
19936W        W40216   8.269   2.078   4.137 -0.0712 -0.0760  0.1365
19937W        W40217  18.852   0.700   0.781 -0.0888  0.0367 -0.0435
19938W        W40218   9.387   7.505   0.335 -0.2114  0.1138  0.2817
19939W        W40219   6.877  17.836  13.418 -0.0426 -0.1301 -0.3166
19940W        W40220  18.563  10.269  11.249 -0.2580 -0.1351  0.1238
19941W        W40221   5.681  14.448  11.839  0.0534 -0.1035 -0.0256
19942W        W40222   4.196   9.848  13.713 -0.0508 -0.2687 -0.1138
19943W        W40223   1.201  12.958   2.636  0.0697  0.1816 -0.1332
19944W        W40224  12.299  12.959   1.738  0.0302 -0.0512  0.1267
19945W        W40225   6.696   9.614   1.664  0.0437  0.2994  0.1917
19946W        W40226   3.580  14.932  12.651 -0.0682  0.0477  0.1789
19947W        W40227   3.879   6.006   2.051 -0.0007  0.2433 -0.2978
19948W        W40228   2.432   5.288   0.267  0.0092  0.0080  0.1044
19949W        W40229   8.731  18.108   0.023 -0.1170  0.0598 -0.2496
19950W        W40230  15.334   1.196   5.184  0.0102 -0.3424 -0.0942
19951W        W40231   3.067   3.793  13.216 -0.0089 -0.3591 -0.3976
19952W        W40232   6.994   1.557  13.875  0.0650  0.2029 -0.0084
19953W        W40233   1.322  16.212   3.366 -0.2117  0.1724 -0.4066
19954W        W40234  18.030  11.979   1.703  0.0297  0.1087 -0.2156
19955W        W40235   2.905   1.122   2.269 -0.1423  0.2930  0.1763
19956W        W40236  11.960   9.105   2.978 -0.1590 -0.0332 -0.1673
19957W        W40237  16.348  18.297   1.866  0.1209  0.0471 -0.1011
19958W        W40238  12.488  13.832  13.241  0.3062  0.1669  0.0627
19959W        W40239   2.602  15.659   2.185 -0.0458  0.1185  0.0193
19960W        W40240   7.912   8.868   2.773 -0.0502  0.1720 -0.1375
19961W        W40241   1.069   5.526   4.111  0.0384 -0.0961  0.0292
19962W        W40242  16.184   1.949  14.355 -0.1283  0.0914 -0.0626
19963W        W40243   9.276   6.835   1.031  0.2454 -0.1684  0.0100
19964W        W40244   1.764   8.933  10.092 -0.1926  0.2750 -0.0043
19965W        W40245   9.999  14.047  14.141 -0.2003  0.0059 -0.3572
19966W        W40246  19.269  13.943   1.608 -0.2507 -0.2420 -0.0694
19967W        W40247   8.594   3.222   3.276 -0.0411 -0.0005 -0.0931
19968W        W40248  17.668   1.183   3.600  0.2168  0.0684  0.0547
19969W        W40249   4.347   1.585   1.657 -0.0214  0.1026 -0.2775
19970W        W40250  13.270  15.541   2.238  0.1393  0.0866 -0.1611
19971W        W40251  16.770  13.411  13.274 -0.0480 -0.1593  0.0065
19972W        W40252  10.540  19.188   1.651 -0.2265  0.1223 -0.2041
19973W        W40253  11.624  16.939  13.511 -0.0456  0.2101 -0.0842
19974W        W40254   4.745  11.567   1.883 -0.1288 -0.2549  0.2068
19975W        W40255   6.957   9.776   3.262  0.0093 -0.0750  0.0244
19976W        W40256   4.182   5.271   0.147 -0.2417 -0.0944  0.0463
19977W        W40257   0.575   8.987  11.642  0.1827  0.0627  0.2557
19978W        W40258  10.772  18.956   4.218 -0.1272  0.0537  0.1642
19979W        W40259   3.156  12.402  13.614 -0.0468 -0.0903  0.0864
19980W        W40260  11.195  13.241  14.448  0.1523 -0.1492 -0.3323
19981W        W40261  13.580   6.742   1.831 -0.0855 -0.1527 -0.3237
19982W        W40262  19.250  12.500   1.610 -0.0374  0.1595 -0.2027
19983W        W40263  11.159  16.308  14.189 -0.1343  0.0599 -0.1315
19984W        W40264   9.031   7.787   1.891  0.1153 -0.1008 -0.2661
19985W        W40265   2.105   8.730  10.437  0.1077  0.2080 -0.0820
19986W        W40266  11.547   8.362   0.468  0.1527 -0.1927 -0.1142
19987W        W40267   3.873  19.112   2.657 -0.1657  0.0207 -0.0830
19988W        W40268   1.711   0.366   0.108 -0.1815  0.2368  0.1771
19989W        W40269  19.029  19.228   1.382 -0.0624  0.0822  0.0312
19990W        W40270   4.050   2.541  11.491  0.2666 -0.0703 -0.1583
19991W        W40271  19.391   0.990   1.318 -0.2176 -0.0529  0.1023
19992W        W40272   2.591  18.692  11.647  0.0663 -0.0674 -0.4108
19993W        W40273   0.011   5.545  10.936  0.1551 -0.2658  0.0176
19994W        W40274  13.167   6.516  14.166  0.0236 -0.2693 -0.0851
19995W        W40275  17.792  16.901  12.113  0.1982 -0.0838  0.0858
19996W        W40276   7.206   7.525   0.426  0.0964 -0.1200 -0.0679
19997W        W40277   1.484   3.917   3.816  0.1090 -0.2559  0.0283
19998W        W40278  12.058  15.905  12.583 -0.0200 -0.1761  0.1402
19999W        W40279  10.676   0.837   2.999 -0.1563 -0.0667 -0.1319
20000W        W40280   5.399   6.935   1.066  0.0078  0.2220  0.2226
20001W        W40281   3.679   9.976  12.866  0.3315 -0.0335 -0.0782
20002W        W40282   9.675  18.366  11.864  0.0283  0.0410  0.2024
20003W        W40283  19.339   4.786  14.184  0.1843  0.1345  0.0367
20004W        W40284  19.327  10.063  11.877 -0.0490  0.3427  0.0812
20005W        W40285   7.223  13.183  13.697 -0.0301 -0.0807  0.2438
20006W        W40286  13.259   7.499  14.186  0.1172 -0.2253 -0.0815
20007W        W40287  17.364  17.086  11.474  0.0187 -0.0927  0.1053
20008W        W40288   0.964   1.395   2.800  0.1349  0.0904 -0.2882
20009W        W40289   6.446   6.667  14.168 -0.0798 -0.0107 -0.0492
20010W        W40290  14.633  11.934   3.504  0.0684 -0.1412 -0.0920
20011W        W40291   0.893   1.612  13.259  0.0956  0.0332 -0.1314
20012W        W40292   9.427  13.136  11.356 -0.3453 -0.2076 -0.1161
20013W        W40293   6.964   9.852  10.519  0.0522 -0.1498  0.1841
20014W        W40294  14.681  18.925   3.904  0.1925  0.1459 -0.0460
20015W        W40295  12.611   4.657  11.944 -0.0070 -0.0839 -0.2831
20016W        W40296  12.014   1.142  13.564 -0.0427 -0.0572  0.0013
20017W        W40297  11.728  17.373  10.982  0.3229 -0.0446  0.3027
20018W        W40298  13.749  15.889   3.353 -0.0278 -0.0125 -0.1352
20019W        W40299  18.579   5.327   4.074 -0.1198  0.1059  0.3369
20020W        W40300  13.899  16.807   2.473 -0.3447  0.4994  0.1770
20021W        W40301   7.410   3.284   3.835 -0.3548 -0.0799  0.0724
20022W        W40302  13.099  11.019  13.193 -0.4508 -0.1695  0.1244
20023W        W40303   7.280   2.270  11.055 -0.2827 -0.0929  0.3528
20024W        W40304   6.851   5.887   1.066  0.2461 -0.0338 -0.1155
20025W        W40305   8.096   4.925   4.089  0.1938  0.0276  0.1490
20026W        W40306  11.809   4.483   2.736 -0.0426 -0.0080  0.2621
20027W        W40307   2.545   4.891   2.346  0.1149  0.2801 -0.2575
20028W        W40308   5.755   6.207  12.126  0.1786  0.1137 -0.0341
20029W        W40309   0.438  16.823  13.492 -0.2682 -0.0062  0.2147
20030W        W40310   1.598   5.588  14.355 -0.2365  0.2803 -0.0299
20031W        W40311  18.631  14.692   2.513  0.0320 -0.0321 -0.0482
20032W        W40312   2.966   3.187  14.183  0.1330  0.2342 -0.2570
20033W        W40313  14.935   7.443   3.614  0.1826  0.1860  0.0472
20034W        W40314   5.031  18.554  11.197  0.1368 -0.2723 -0.0191
20035W        W40315   1.091   7.884  11.620  0.3191  0.0813 -0.1362
20036W        W40316   6.134  16.231   2.736 -0.2128  0.2909  0.1124
20037W        W40317  15.434   9.772   0.310 -0.0709  0.0028  0.2270
20038W        W40318  11.468   8.117   3.178  0.0974  0.4082  0.1284
20039W        W40319   5.693  11.348   3.414 -0.1060  0.3406 -0.0453
20040W        W40320   9.902   9.997  12.592 -0.1593 -0.2953 -0.1265
20041W        W40321  10.069   4.347   1.248  0.1954  0.0373 -0.0653
20042W        W40322   9.695   8.239   9.167 -0.1421 -0.0760 -0.1638
20043W        W40323  14.969   5.539   0.509 -0.1439  0.0436  0.4218
20044W        W40324   8.914  15.328  13.108  0.1844  0.0344  0.1097
20045W        W40325  13.633   3.538   1.527  0.1232 -0.2381 -0.0029
20046W        W40326   3.000   0.517   2.887  0.3857 -0.0704  0.1403
20047W        W40327  12.582   3.718   0.917  0.0861  0.1331 -0.0351
20048W        W40328   5.989  17.953   3.329 -0.1051 -0.2600  0.1229
20049W        W40329  12.550  17.644   2.824 -0.1703 -0.0110 -0.1867
20050W        W40330  15.886   1.710   1.390  0.0869 -0.1421 -0.2832
20051W        W40331   5.688  10.868   2.544 -0.4366  0.0964 -0.0592
20052W        W40332   6.146  11.762   2.402 -0.0893  0.0395  0.0403
20053W        W40333  15.994   4.885   2.499  0.0683 -0.1786  0.0044
20054W        W40334  13.465  13.057   1.033 -0.0670 -0.1114  0.2901
20055W        W40335   8.032   3.973   4.114 -0.2718 -0.2426  0.0517
20056W        W40336  14.952  13.181   1.165 -0.0672  0.2247 -0.0524
20057W        W40337   8.324   8.580   1.063 -0.0452  0.1573 -0.1447
20058W        W40338  12.015   6.934   0.338  0.3644  0.0931 -0.0526
20059W        W40339   8.546   7.490   3.702  0.4118  0.0303 -0.1592
20060W        W40340   6.559  11.955   9.580 -0.1428 -0.0475 -0.1303
20061W        W40341   4.420   5.097   3.951 -0.0871 -0.0022 -0.2421
20062W        W40342  13.106  12.772  14.238 -0.3418 -0.0774  0.0824
20063W        W40343  19.017  15.043  14.227 -0.0937 -0.0169 -0.3632
20064W        W40344  17.454  14.153   2.485  0.0207  0.0729 -0.3101
20065W        W40345  16.581  11.319   3.192  0.2920  0.3922  0.1575
20066W        W40346   9.970   8.915   2.707  0.0038  0.1113  0.1392
20067W        W40347  16.983   6.442   0.688 -0.3679 -0.2947  0.1185
20068W        W40348   8.717  13.956  12.191  0.0871  0.1357 -0.4410
20069W        W40349  12.189  15.283   3.603 -0.0334  0.0688 -0.2100
20070W        W40350   8.926  12.088   3.645 -0.0985  0.0433  0.2182
20071W        W40351   3.205   4.302  11.462  0.0110 -0.0328  0.3843
20072W        W40352   2.558  19.166  14.393 -0.1164 -0.1122  0.1003
20073W        W40353  16.887  13.051   1.496  0.0644  0.3552 -0.4644
20074W        W40354   2.000  18.739  10.805 -0.0936 -0.0209 -0.0930
20075W        W40355  13.288  12.430   0.140  0.1070  0.1202  0.0202
20076W        W40356   6.945   2.213   3.184  0.2261  0.0897  0.1333
20077W        W40357   4.416  15.533  13.497 -0.0617 -0.5167 -0.0884
20078W        W40358  15.157  18.630  13.316  0.1407  0.1580  0.2514
20079W        W40359   9.390   6.178  13.848 -0.3766  0.1363  0.1384
20080W        W40360  15.350  16.199   2.774 -0.3737  0.1865 -0.1381
20081W        W40361   9.812   5.595   0.591 -0.0070 -0.0604 -0.1176
20082W        W40362   3.175   4.822  11.552  0.1221 -0.1040  0.0913
20083W        W40363   4.978   4.540  11.665 -0.3823 -0.4314 -0.1791
20084W        W40364  11.925   8.060  10.678 -0.0756  0.0483  0.0650
20085W        W40365   9.973  13.078   2.125  0.3460 -0.2546 -0.3292
20086W        W40366  15.161   3.480  13.290  0.3178 -0.0359  0.0229
20087W        W40367   5.712   4.536   3.326  0.1419  0.2849  0.2217
20088W        W40368   4.768  12.905   9.992  0.0246  0.1960 -0.1877
20089W        W40369  10.268  11.001   3.376  0.0400  0.0791  0.2030
20090W        W40370   6.454  10.812  13.425  0.0215  0.2857 -0.1516
20091W        W40371   2.159   3.842   1.171  0.5617  0.0232 -0.1225
20092W        W40372  13.177  17.079   1.808  0.0423  0.1211 -0.0095
20093W        W40373   9.714  14.037   5.066 -0.0213  0.1051 -0.3702
20094W        W40374  12.014  10.123  13.981  0.0076  0.0339  0.0937
20095W        W40375   5.319   5.057   1.658  0.2630 -0.0583  0.1013
20096W        W40376   8.658   1.357   9.839 -0.3004 -0.0652 -0.1458
20097W        W40377  16.326  14.514  11.076 -0.0982  0.2399 -0.4790
20098W        W40378   4.933  10.923   1.371 -0.0387 -0.1916  0.4011
20099W        W40379   2.361   3.300   1.074 -0.0264  0.1123  0.1137
20100W        W40380   7.183  12.135   1.716  0.1582 -0.1585  0.1517
20101W        W40381  17.300   0.796   2.784  0.0853  0.1667  0.1845
20102W        W40382   2.630   8.284   0.358  0.2699 -0.0364  0.1179
20103W        W40383   8.457  10.319  11.607  0.0152 -0.1466 -0.1047
20104W        W40384  15.898  13.549   1.878 -0.2891 -0.0810 -0.1509
20105W        W40385   6.544  10.597   3.374 -0.2725  0.2969  0.0229
20106W        W40386   9.101   4.838   1.678  0.0335 -0.1492  0.0815
20107W        W40387   2.872  11.630  11.999  0.0585 -0.1142  0.2983
20108W        W40388   5.134   5.167   2.850  0.1249  0.1719  0.1162
20109W        W40389   5.875  13.438   0.651 -0.0639  0.0693 -0.0607
20110W        W40390   0.814  13.234  10.430 -0.1346 -0.4186 -0.1409
20111W        W40391  13.034   2.448   3.340  0.1855 -0.0998  0.0967
20112W        W40392  18.327  19.402   3.114 -0.0107 -0.1116  0.0847
20113W        W40393   7.574  14.838   2.372 -0.1015 -0.3969 -0.4121
20114W        W40394  15.208  11.815   3.424  0.0646 -0.1228  0.3197
20115W        W40395   9.148  11.768   3.217  0.1321 -0.0968  0.0200
20116W        W40396  10.306  13.191  12.591  0.2536 -0.0674 -0.1034
20117W        W40397  10.560   6.361  14.358  0.2801 -0.1134  0.1369
20118W        W40398   3.405   5.247   3.978 -0.2754 -0.0479 -0.4650
20119W        W40399   7.023  12.811  10.193 -0.1410  0.2770 -0.1913
20120W        W40400  15.024  11.066  11.647 -0.0041  0.1979 -0.0160
20121W        W40401   3.701   8.044  10.147  0.2731 -0.0390 -0.2052
20122W        W40402  13.229  15.423   1.758 -0.1398 -0.3742 -0.1452
20123W        W40403   3.129   3.385   4.658 -0.2553 -0.1616 -0.0189
20124W        W40404   3.253   8.173   3.907  0.2964  0.2893  0.3942
20125W        W40405  14.696   1.373  11.240 -0.1548  0.3447  0.1640
20126W        W40406  16.424  14.824  11.519  0.0396  0.2571  0.3095
20127W        W40407  13.505   8.784   3.297 -0.0810  0.2738  0.0972
20128W        W40408   2.492  10.230   0.723 -0.0184  0.1181 -0.1670
20129W        W40409   2.411  14.035  12.763  0.0187 -0.1922 -0.2646
20130W        W40410  18.244  17.916  10.848 -0.0569 -0.0773  0.1041
20131W        W40411  12.517   5.959   4.437 -0.1243 -0.1701 -0.0649
20132W        W40412   3.380   4.509   4.496  0.3180  0.1224 -0.1923
20133W        W40413  12.954   5.935  11.528  0.0205  0.0713  0.0000
20134W        W40414  14.226  17.394   9.713 -0.3307  0.1903  0.4127
20135W        W40415  13.619  11.698   0.602  0.1891  0.0379  0.0106
20136W        W40416  17.433   8.922  10.785 -0.1678 -0.2590 -0.0673
20137W        W40417  15.038  15.485  14.487  0.2330 -0.1158 -0.0412
20138W        W40418  11.453  14.104  12.946 -0.2755  0.0440 -0.3807
20139W        W40419  15.549  11.497   0.279  0.2134  0.0007  0.0294
20140W        W40420  15.870  10.082   1.286  0.1750 -0.1100  0.0462
20141W        W40421   4.324   1.881   2.019  0.1764 -0.0353 -0.0019
20142W        W40422  15.040   7.610   3.087  0.0156 -0.0462 -0.0277
20143W        W40423   8.674  16.610  10.567  0.0295 -0.2203 -0.0022
20144W        W40424   8.204   8.762   2.347 -0.2250 -0.2372  0.1552
20145W        W40425   7.032   2.009  12.120  0.0569  0.2741  0.0354
20146W        W40426  11.731   3.846  11.026 -0.2513  0.0712 -0.1039
20147W        W40427   8.930  10.716  12.652  0.1432  0.1241 -0.0561
20148W        W40428  14.058   2.305   3.570  0.1372 -0.0700 -0.0595
20149W        W40429   8.813   2.308   1.651  0.0710  0.2121 -0.0415
20150W        W40430  16.823   1.904  14.139  0.0276 -0.1430  0.2164
20151W        W40431   3.474   7.692   0.033  0.1219 -0.2027 -0.1762
20152W        W40432   5.451  15.756  13.348 -0.0982 -0.0618 -0.3568
20153W        W40433   9.037  14.944  11.021 -0.0986  0.1458 -0.1184
20154W        W40434   5.450  15.749   3.638  0.2191 -0.1451 -0.2171
20155W        W40435   8.601  12.048  10.660  0.5116  0.2741  0.0545
20156W        W40436  15.444  12.032   9.922  0.1059 -0.1967 -0.2584
20157W        W40437  14.994  18.718   2.515 -0.2390 -0.0387  0.0028
20158W        W40438  13.934  19.418  13.840  0.2329 -0.2647  0.3186
20159W        W40439   8.460   2.815   0.615 -0.0173  0.2176 -0.2964
20160W        W40440   8.233  13.491   2.892  0.0495 -0.0731 -0.2615
20161W        W40441   6.894  18.830   2.086  0.0535 -0.1837 -0.2030
20162W        W40442  10.479   7.006  13.780  0.0302 -0.2638 -0.2462
20163W        W40443  16.100   2.215   2.083 -0.1863  0.1253 -0.0187
20164W        W40444  12.860  13.649   3.505 -0.1458  0.0636  0.1461
20165W        W40445  14.662  11.659  12.173  0.1981 -0.0097 -0.1026
20166W        W40446  17.525   0.345   2.069 -0.3777  0.4177  0.1020
20167W        W40447   4.834   1.429   1.295 -0.0613  0.0089  0.0564
20168W        W40448   5.554   1.453  13.698  0.1954  0.1763  0.2467
20169W        W40449  14.531  14.356   2.528  0.1576  0.3486 -0.0520
20170W        W40450   5.923  18.215  11.840  0.0019 -0.0960  0.0947
20171W        W40451   0.773   4.856  11.751 -0.0322  0.0432 -0.2134
20172W        W40452   9.337  10.669   3.233  0.0751 -0.0146 -0.1504
20173W        W40453  15.450  12.481  12.419  0.0374 -0.2510 -0.1790
20174W        W40454   9.160  16.946   1.284 -0.1023 -0.1856  0.0678
20175W        W40455  18.098   1.970  11.373 -0.0542 -0.0703 -0.1912
20176W        W40456   0.259   2.981  11.857 -0.2681  0.1721  0.0598
20177W        W40457  18.132  15.801   1.171  0.2416 -0.0385  0.4204
20178W        W40458   0.575  18.699   2.016 -0.0304 -0.0176  0.0334
20179W        W40459  12.885  17.946  11.486  0.2588  0.2136  0.1134
20180W        W40460   2.319   3.766   4.195  0.0326 -0.2967  0.2468
20181W        W40461   9.998   6.584   1.346 -0.0899  0.0011  0.1178
20182W        W40462  18.065   9.412   2.938 -0.0790 -0.1281 -0.0514
20183W        W40463   1.532  18.771   5.057 -0.0254  0.1941  0.2677
20184W        W40464  12.815   0.947  13.081  0.0278  0.1762 -0.0873
20185W        W40465  11.946   2.764   2.918 -0.0911 -0.4760 -0.1499
20186W        W40466   5.257   8.086   0.646 -0.0331 -0.0124 -0.1850
20187W        W40467  11.452  10.110   4.038 -0.0396 -0.0599  0.0142
20188W        W40468   3.515  13.308   2.307  0.2226 -0.3490  0.0959
20189W        W40469  15.517   0.585   1.612 -0.1015  0.2157  0.3355
20190W        W40470  14.276   4.568  13.379  0.0508 -0.1289  0.0631
20191W        W40471  17.193   3.731  13.393 -0.1251 -0.0560  0.2377
20192W        W40472   6.720  15.625  14.128  0.1705  0.0717  0.0345
20193W        W40473  10.726  18.700   4.856 -0.2585 -0.2646 -0.1557
20194W        W40474   0.353   1.536  12.516 -0.1318 -0.1103 -0.2414
20195W        W40475   2.446   0.114  14.022 -0.2395  0.0572  0.0401
20196W        W40476  16.252  12.682   3.341  0.0103 -0.0502 -0.0167
20197W        W40477  16.091  13.120  12.347 -0.0263  0.0810  0.0553
20198W        W40478  13.043  13.820  13.197  0.0767  0.2069 -0.1251
20199W        W40479  18.065   5.428  12.432 -0.0470  0.0012  0.2423
20200W        W40480  11.430   6.584  13.555 -0.0802  0.0139 -0.1571
20201W        W40481   4.394   2.498   2.742 -0.0410  0.1304  0.0806
20202W        W40482  17.400  11.970  11.175  0.3692  0.0008 -0.3301
20203W        W40483  18.105  17.620   2.537 -0.0747 -0.0565  0.0758
20204W        W40484  10.066  18.513   0.789 -0.0628 -0.0626  0.0935
20205W        W40485  11.613   5.372   3.119 -0.1028  0.1885  0.1238
20206W        W40486   1.181  11.838   0.413  0.0705 -0.2069  0.0021
20207W        W40487   3.564   9.738  14.257  0.1222  0.4394 -0.0990
20208W        W40488  12.504   2.068  14.310  0.4638  0.0517 -0.1136
20209W        W40489   7.853   9.287   2.349 -0.1097  0.0210  0.1673
20210W        W40490  15.572   2.572  13.260 -0.3200  0.0540  0.1408
20211W        W40491   1.312   3.603  14.482  0.0616 -0.1278  0.1733
20212W        W40492   6.872   2.469   1.100  0.1060  0.0599 -0.0032
20213W        W40493  19.130   5.167  13.412 -0.0955  0.0264  0.2678
20214W        W40494  12.691  15.884  14.040  0.0029 -0.0637 -0.2061
20215W        W40495   8.787   9.376   0.571 -0.1178 -0.2138 -0.1415
20216W        W40496   0.285  16.213   1.265 -0.0732 -0.0055 -0.0759
20217W        W40497   2.018   8.415  11.774  0.0190 -0.1026 -0.3172
20218W        W40498  18.234  18.882   1.869  0.1074 -0.0549  0.1192
20219W        W40499   6.652   0.854  12.934  0.2538 -0.0881  0.1439
20220W        W40500  18.220   9.444  10.384  0.1065 -0.1017 -0.0756
20221W        W40501  14.254  11.873  12.908 -0.0698  0.0683 -0.2566
20222W        W40502   6.024   9.109  10.988  0.2523  0.1797 -0.3851
20223W        W40503   1.748   3.160  11.545  0.2878  0.0201 -0.2568
20224W        W40504  18.027   7.235  14.404  0.0342 -0.0703  0.0373
20225W        W40505   4.549   9.399   2.422 -0.1846 -0.0206 -0.0797
20226W        W40506   2.954  11.108   2.419 -0.1810 -0.2154  0.0236
20227W        W40507  15.819   7.556   4.040 -0.0447  0.0574 -0.0653
20228W        W40508   1.530  14.687   0.896  0.1405  0.0458 -0.1325
20229W        W40509  11.680  13.453   0.441  0.2008  0.1154 -0.0013
20230W        W40510   5.559   0.295  12.999 -0.0231  0.1242  0.0634
20231W        W40511   5.415  14.378   0.579 -0.0889 -0.0765 -0.1900
20232W        W40512  11.079  15.460   1.938  0.1533 -0.0388 -0.3157
20233W        W40513   7.797  15.352  13.829  0.1806  0.0279  0.1666
20234W        W40514   8.207  18.811  13.594  0.1297 -0.3538  0.2854
20235W        W40515  17.910   6.722  14.224  0.0305 -0.0876  0.0386
20236W        W40516  17.988  12.106  11.112 -0.0211 -0.0017  0.0079
20237W        W40517  19.182  15.103  11.215 -0.3056 -0.0669 -0.1708
20238W        W40518  14.202  16.788  14.195 -0.1582 -0.1673  0.0042
20239W        W40519   6.208  15.376  12.054 -0.4882 -0.1868  0.0961
20240W        W40520   6.680  18.569  14.485  0.1435 -0.1220  0.0204
20241W        W40521   2.318   9.379   1.506 -0.0035  0.0647 -0.1123
20242W        W40522  16.885   9.946   2.133 -0.2193  0.2136 -0.1403
20243W        W40523  10.454  16.900  13.578  0.0184  0.2073 -0.1017
20244W        W40524  10.439   2.654  12.781 -0.2618  0.1724 -0.0819
20245W        W40525   2.116  14.992  14.142  0.1161 -0.0015 -0.2456
20246W        W40526   8.472  14.249  10.643 -0.1021 -0.2865 -0.3205
20247W        W40527  10.609   0.025   1.198 -0.2164 -0.3210  0.0924
20248W        W40528  15.852   2.800   0.129 -0.0562  0.1944  0.0774
20249W        W40529   8.118  17.133   3.018 -0.0947  0.0500 -0.0935
20250W        W40530   2.975  17.060   1.703  0.1194  0.0760  0.2336
20251W        W40531   7.383  14.730   1.435  0.0292 -0.0290 -0.0003
20252W        W40532  11.912  11.970  13.777  0.2601 -0.1951  0.0014
20253W        W40533  12.605   4.898   0.896  0.0797 -0.0820  0.2763
20254W        W40534   2.240   1.652  11.270 -0.3326  0.0083  0.1514
20255W        W40535   7.191  10.139  13.722  0.1282 -0.0338 -0.3410
20256W        W40536   4.462  14.414   3.586 -0.0660 -0.0513  0.1305
20257W        W40537   3.582   6.507   2.996  0.0105 -0.0406 -0.1729
20258W        W40538  19.023   3.063   1.143  0.4683  0.0558 -0.2658
20259W        W40539   5.370  13.722   2.750 -0.0907  0.2552 -0.1844
20260W        W40540   6.397  12.645  13.638 -0.2864 -0.3862 -0.1253
20261W        W40541   8.952  10.102  13.872 -0.1583  0.0863 -0.1615
20262W        W40542   6.993  13.603  11.522 -0.1600 -0.0448 -0.0308
20263W        W40543  12.614   9.474  13.825  0.0822  0.1296  0.0072
20264W        W40544  11.619  11.603  14.067 -0.1904  0.1641 -0.0728
20265W        W40545  16.556  13.274  12.859  0.0935  0.1832 -0.1388
20266W        W40546  17.806   3.154   3.395  0.2006 -0.0262 -0.0540
20267W        W40547  11.467   5.785  13.082 -0.5145 -0.1359  0.0809
20268W        W40548   0.174   5.022   2.601  0.2268 -0.0450 -0.0191
20269W        W40549  10.380   5.976   0.200 -0.4204  0.1179  0.3943
20270W        W40550   2.722   2.558  10.419 -0.4020 -0.0929 -0.0175
20271W        W40551   6.699  17.958  12.465  0.1100 -0.1382 -0.0704
20272W        W40552   8.134   2.027   1.386  0.1683 -0.0412 -0.0812
20273W        W40553   1.047  17.829   0.818  0.0261  0.0938 -0.0598
20274W        W40554  17.587   5.914  13.093 -0.1782 -0.1916 -0.1519
20275W        W40555  19.046  15.083   3.356 -0.0909 -0.1270  0.2456
20276W        W40556  10.314  14.822  12.390  0.0951 -0.0795  0.0005
20277W        W40557   0.091  11.935   3.946 -0.1261  0.0149  0.1395
20278W        W40558   4.089  13.987   2.894  0.0004 -0.0041 -0.2476
20279W        W40559  15.784  18.524   1.951 -0.1034  0.1289 -0.1287
20280W        W40560   3.105  18.568   3.868 -0.2451  0.1648 -0.0606
20281W        W40561   0.164  15.382  14.170 -0.2668 -0.3057 -0.0839
20282W        W40562   6.661   9.891   2.573 -0.1575 -0.0783  0.2558
20283W        W40563  12.017  19.421  11.573  0.1662  0.0642  0.0539
20284W        W40564  18.279   8.052   2.646 -0.0234 -0.1652 -0.3116
20285W        W40565  17.023   2.528   2.495  0.2241 -0.0848 -0.1875
20286W        W40566   0.461   6.089   0.776  0.1568 -0.2277 -0.0493
20287W        W40567   8.057  16.846  12.479  0.0886  0.1370 -0.0370
20288W        W40568   5.649   8.923   1.973  0.2319  0.3580 -0.1678
20289W        W40569   3.986  17.341  12.742 -0.0120  0.0861 -0.0179
20290W        W40570   8.770   8.701   1.372 -0.1084 -0.2043  0.0230
20291W        W40571   0.419  12.991  10.561 -0.3098  0.0824 -0.2232
20292W        W40572   9.118   8.016  13.186 -0.0361  0.2825  0.1721
20293W        W40573  19.187  18.904  13.721  0.1910 -0.1856 -0.1068
20294W        W40574  13.096  15.949   2.569 -0.3176  0.1542  0.3452
20295W        W40575  13.294  15.999   1.686  0.0738  0.1462  0.0133
20296W        W40576   5.178   4.305   4.272  0.0338 -0.1246  0.1851
20297W        W40577  14.879   2.856   3.647  0.3806  0.2452  0.2005
20298W        W40578  15.614   4.138   0.555  0.2311  0.0571 -0.3020
20299W        W40579  12.361   4.826  12.703  0.0990  0.1443  0.0751
20300W        W40580   9.490   5.084  14.020 -0.1459 -0.1670  0.0891
20301W        W40581  11.817  17.175  13.066  0.3826  0.3335 -0.2923
20302W        W40582  10.740   0.340   1.734  0.0023 -0.3609 -0.0085
20303W        W40583  12.906  17.428  12.692  0.2125  0.0187 -0.1162
20304W        W40584  12.691  12.757   1.928 -0.2940 -0.0711  0.0247
20305W        W40585  14.391   9.469   0.454  0.1070 -0.1741  0.0403
20306W        W40586  13.209  14.288   3.566  0.1468 -0.0547 -0.2938
20307W        W40587   0.475  13.509   0.080 -0.2658  0.1172 -0.3761
20308W        W40588  10.395  14.434   1.158  0.4090  0.1276 -0.0760
20309W        W40589  11.407   0.206   1.201 -0.2118 -0.1930 -0.0829
20310W        W40590  15.487  17.712  12.612 -0.0041 -0.1518 -0.2169
20311W        W40591  17.246   2.133  12.241 -0.1946 -0.1740  0.0702
20312W        W40592   3.306   8.747  11.050  0.1873 -0.1730 -0.3842
20313W        W40593  11.733  16.583   3.724 -0.0676 -0.1395  0.1281
20314W        W40594  13.824   9.843   2.968 -0.0902 -0.2634  0.2495
20315W        W40595  10.298  18.414  13.091  0.1225 -0.2264 -0.1992
20316W        W40596   2.256   3.319   9.870 -0.0541 -0.0965 -0.2240
20317W        W40597  16.934   1.107  10.543 -0.0797  0.1652  0.3400
20318W        W40598  13.936   7.978   4.383 -0.0896 -0.1641  0.1457
20319W        W40599  10.744  16.184  12.353  0.0813 -0.2071 -0.0840
20320W        W40600  12.691   5.710   1.017 -0.0020 -0.2011 -0.0403
20321W        W40601  12.107   8.787   2.552 -0.0017 -0.2931  0.1564
20322W        W40602   8.042   2.245  11.163 -0.0458  0.0600 -0.0503
20323W        W40603  17.164  11.256  12.150 -0.0590 -0.1935  0.5174
20324W        W40604   6.136  15.894  11.872  0.0632 -0.1820  0.0052
20325W        W40605  17.770  10.773  10.962  0.0484 -0.3438 -0.0066
20326W        W40606  13.399   1.737  11.334 -0.0954  0.0632  0.0455
20327W        W40607   7.767  10.631  13.650 -0.0560  0.2221  0.2346
20328W        W40608   0.181  13.553  13.307 -0.0135  0.0923  0.0032
20329W        W40609   7.235   2.577   2.821  0.3759  0.0338  0.2532
20330W        W40610   6.169  16.177  13.764  0.1130  0.6230 -0.1523
20331W        W40611   0.773  12.625   9.835  0.1223  0.2530 -0.0927
20332W        W40612  10.690  15.026   3.299  0.0617 -0.1608 -0.1106
20333W        W40613   7.825   6.555  14.400  0.5050 -0.0031 -0.2419
20334W        W40614  10.079   5.293  10.539  0.2104  0.2168  0.2819
20335W        W40615   6.159  10.870   0.873  0.2732 -0.2526  0.0164
20336W        W40616  18.581   5.245   0.375 -0.0806  0.0555  0.1749
20337W        W40617   1.472   5.233   3.962  0.0662 -0.0346  0.1124
20338W        W40618  10.043   9.082   1.917  0.1439  0.0793  0.0374
20339W        W40619   8.630   2.263   4.840  0.2614  0.0875  0.0940
20340W        W40620  11.012  10.365   3.969  0.0625 -0.0408 -0.2226
20341W        W40621   8.863   5.264  11.094 -0.0770  0.1160 -0.0584
20342W        W40622  18.845  12.276   3.381 -0.1171  0.0040 -0.0532
20343W        W40623   3.755  10.803   2.010  0.0231  0.1182  0.1109
20344W        W40624  19.072  16.129   2.066 -0.0747  0.2258 -0.0010
20345W        W40625  13.762  17.291   0.806  0.1459  0.0350  0.1846
20346W        W40626   7.870  18.464   2.090  0.0586  0.2133  0.0788
20347W        W40627  14.173   6.790  11.533 -0.0507 -0.1479 -0.0124
20348W        W40628  15.927  15.452  14.125  0.1650  0.0102 -0.0199
20349W        W40629  13.796   5.327  10.508 -0.1494  0.0439 -0.1706
20350W        W40630  11.104  18.574   4.575 -0.3093 -0.2041  0.5268
20351W        W40631  13.637  18.154   0.062  0.0821  0.0816  0.1333
20352W        W40632   5.519  13.162  10.704  0.4867  0.0699 -0.1077
20353W        W40633   5.268   1.465   2.091 -0.0936 -0.0338 -0.0126
20354W        W40634   1.259   9.290   1.744 -0.1254  0.1417 -0.0800
20355W        W40635   2.569   2.540   3.917  0.0059  0.2149 -0.2172
20356W        W40636  11.873   5.798  14.022  0.2022  0.1007  0.0962
20357W        W40637  18.561  11.439   1.206 -0.1238  0.0943 -0.0134
20358W        W40638  14.153  12.670  14.449  0.1135 -0.2163  0.0205
20359W        W40639  15.040   7.380   1.799 -0.2843 -0.1918  0.1641
20360W        W40640  13.941   0.160   0.874 -0.1288 -0.3464  0.4873
20361W        W40641   8.578   1.582   4.191 -0.0351 -0.2991  0.0916
20362W        W40642  10.913   9.426   1.050 -0.0179 -0.1000  0.2218
20363W        W40643  13.552  13.333  13.946 -0.0979 -0.3182  0.3035
20364W        W40644   8.314   6.506   3.427 -0.0499  0.3292 -0.3825
20365W        W40645   2.026  11.275  13.042  0.1515 -0.2411 -0.1062
20366W        W40646  11.629  14.807  13.022 -0.3657  0.1560 -0.2508
20367W        W40647   6.135   5.952   0.163  0.6050  0.2343 -0.0299
20368W        W40648   2.746   1.349  13.448 -0.0573  0.0976  0.2018
20369W        W40649   8.303  17.306   2.560 -0.2507  0.1016  0.1114
20370W        W40650   6.840   4.358   1.499  0.1091  0.0579 -0.0321
20371W        W40651  13.279   8.416  10.991 -0.1090 -0.3133 -0.0504
20372W        W40652  13.228   7.978   3.740  0.2082 -0.2734 -0.0549
20373W        W40653   2.607   6.940   3.951 -0.2137 -0.3500 -0.2733
20374W        W40654  16.714   0.365   1.827 -0.1594  0.1150 -0.0741
20375W        W40655  16.147   4.593  12.099 -0.0972  0.0693 -0.2822
20376W        W40656   6.441  16.453  14.067 -0.0704  0.0933  0.2523
20377W        W40657  17.540  12.151  12.598 -0.0846  0.0838 -0.1301
20378W        W40658  14.053   0.034  12.033 -0.1534  0.0583 -0.0100
20379W        W40659   1.012  15.688  11.540 -0.1620 -0.0674 -0.0507
20380W        W40660  11.049  16.495  12.770  0.1278  0.2694 -0.1572
20381W        W40661   4.401  14.429   0.358 -0.0640 -0.3636  0.1071
20382W        W40662   0.456  18.337   2.455 -0.0263  0.3959 -0.0157
20383W        W40663  11.674   0.574   1.477  0.2917  0.0355  0.3937
20384W        W40664  16.112  18.902  13.034 -0.0057  0.0401  0.1291
20385W        W40665   0.849   2.058   4.640  0.0611 -0.0484  0.1076
20386W        W40666  12.044   2.553   3.822  0.0217  0.1325  0.0291
20387W        W40667  16.988   5.802  14.499 -0.0755 -0.0301  0.0787
20388W        W40668   1.159  15.894  11.070 -0.0286 -0.4541 -0.1151
20389W        W40669   7.764   0.183   1.676 -0.0134  0.3782  0.2152
20390W        W40670   4.080   0.018  14.402  0.3488  0.0943 -0.1364
20391W        W40671   2.087  13.105  12.446 -0.1170  0.3523  0.3007
20392W        W40672  14.317   4.496   3.606  0.1728  0.1777 -0.2835
20393W        W40673   1.036  11.806  11.462  0.0014 -0.0037 -0.1171
20394W        W40674  19.151  12.343   0.706  0.1814  0.2857 -0.0792
20395W        W40675  13.743   3.304  12.902  0.1545 -0.3259 -0.0295
20396W        W40676   7.007  17.555  11.637 -0.1139 -0.1264 -0.0943
20397W        W40677   3.302   2.203   0.199  0.1768  0.0337  0.1043
20398W        W40678   6.715   0.481   3.310  0.0355 -0.2005  0.2191
20399W        W40679  16.672  11.069   3.592 -0.2194 -0.5184  0.2535
20400W        W40680   1.990   4.206   1.477 -0.2785 -0.3486 -0.1423
20401W        W40681  10.508  12.207  13.983  0.2773  0.0843 -0.0335
20402W        W40682  15.109   0.242   1.805 -0.2605  0.0912  0.0971
20403W        W40683   3.652   8.694  12.194  0.4639  0.3177 -0.0713
20404W        W40684   1.374   4.419   3.591  0.0392  0.0321 -0.0628
20405W        W40685   8.610  10.220  13.516  0.0233 -0.0786  0.0425
20406W        W40686   8.621  10.826   9.921 -0.0716 -0.1310 -0.1175
20407W        W40687   6.358   3.560   5.386 -0.3673 -0.0251  0.3524
20408W        W40688   7.423   9.181  10.131  0.0246 -0.0518 -0.0982
20409W        W40689   5.626  14.450  10.859  0.0955  0.1863 -0.0926
20410W        W40690  11.143  13.834   2.170  0.2737 -0.1382  0.2752
20411W        W40691  17.840  14.099   2.762 -0.1007  0.1699  0.4086
20412W        W40692   4.712   8.929   3.231 -0.3721 -0.0740  0.0959
20413W        W40693   7.941  10.122   0.618 -0.0804  0.0545 -0.2621
20414W        W40694   1.350  11.952  12.363  0.1234 -0.0931 -0.0672
20415W        W40695  11.645  16.391  13.474  0.0655  0.2468  0.2086
20416W        W40696  12.068   6.914   3.791  0.0609  0.1248 -0.1234
20417W        W40697   4.400   1.274  13.739 -0.1282 -0.2901  0.1901
20418W        W40698  19.158  13.806   2.065  0.0275 -0.1708  0.1518
20419W        W40699  10.350   2.564  11.802 -0.0785  0.3784  0.0196
20420W        W40700  13.879   8.722   3.924 -0.0634 -0.0677  0.1845
20421W        W40701   0.034  18.053  13.046  0.1967 -0.1360 -0.0648
20422W        W40702   9.508   8.704   2.738  0.1377 -0.2499  0.1870
20423W        W40703   4.179  12.983   1.954 -0.1092 -0.0851  0.1343
20424W        W40704  11.648  19.033  14.030  0.1527  0.0888  0.1262
20425W        W40705  15.395  10.241   2.551 -0.3545 -0.1339  0.0640
20426W        W40706  14.331  17.231   3.357  0.0037 -0.0558  0.0472
20427W        W40707   8.456   2.681   2.302 -0.2094  0.2662 -0.4334
20428W        W40708   7.802   7.604   4.054 -0.4852  0.1300  0.3118
20429W        W40709  13.250  19.290   2.073 -0.0757 -0.1168 -0.1441
20430W        W40710  14.250   8.299  11.318  0.2354 -0.2720  0.0587
20431W        W40711  12.941   3.861   4.199 -0.3574 -0.2426  0.4840
20432W        W40712   1.983  16.596  13.880  0.0560  0.0531 -0.2131
20433W        W40713   5.016  10.818  11.326 -0.1976 -0.0062  0.0481
20434W        W40714   8.577   3.919  10.659  0.0108 -0.2554  0.3242
20435W        W40715  16.562   0.102   1.164  0.1139  0.2569 -0.0584
20436W        W40716  17.987   5.342  13.732 -0.0379  0.0134 -0.3704
20437W        W40717   3.787   8.264   3.608  0.2784 -0.5333 -0.3032
20438W        W40718  19.017   8.800  12.599 -0.1431  0.1192  0.0184
20439W        W40719  10.259   7.858  13.101 -0.2891  0.1351 -0.1016
20440W        W40720   6.821   6.411   3.788  0.2517  0.2982 -0.1087
20441W        W40721   8.547  19.065  13.847  0.0287  0.2070 -0.3411
20442W        W40722  13.523  13.511  10.862 -0.0120  0.0338 -0.1286
20443W        W40723   0.561  12.241  14.411  0.0937 -0.2494  0.1692
20444W        W40724  14.278  14.877  11.643  0.2818 -0.1891  0.2809
20445W        W40725   2.967  15.218   3.344 -0.2338 -0.1701  0.0152
20446W        W40726  10.904   3.848   3.188 -0.1887  0.3856  0.2684
20447W        W40727  17.968  14.692   0.717 -0.1106 -0.1736 -0.0857
20448W        W40728  12.226  16.603   1.463 -0.0241 -0.0966 -0.2746
20449W        W40729  19.246   4.652   0.806  0.3098  0.0590 -0.2865
20450W        W40730   6.130  14.037  13.401 -0.0149  0.0092  0.2977
20451W        W40731   4.629  15.902   4.960 -0.1690 -0.4286  0.0335
20452W        W40732  17.660   0.068   0.843 -0.2098 -0.2349  0.0904
20453W        W40733  11.228  19.146  11.722  0.0224 -0.1643  0.2203
20454W        W40734  12.716   9.105  10.612  0.0956  0.0370  0.1889
20455W        W40735  16.427  19.057  10.213 -0.3307 -0.0009  0.2326
20456W        W40736   4.531   0.881   0.178  0.3742  0.2253  0.0382
20457W        W40737   4.764   8.713  11.730  0.1579  0.0336  0.3773
20458W        W40738  10.829  15.670  12.024 -0.0293 -0.2045 -0.2135
20459W        W40739   8.758  12.999  13.243  0.0805  0.2838 -0.0631
20460W        W40740  15.382  11.428   3.783 -0.0142 -0.1861 -0.1334
20461W        W40741  15.487   1.896   0.502  0.3837 -0.5409 -0.2122
20462W        W40742  10.796  14.296  11.965 -0.0011 -0.0367 -0.1548
20463W        W40743   7.099   1.604  10.043  0.2581 -0.0502  0.0422
20464W        W40744   8.610  15.424   0.469  0.2668  0.1238  0.1175
20465W        W40745   3.416   8.074  12.791 -0.1330  0.0091  0.1070
20466W        W40746  11.442   3.483   0.168  0.1438  0.4955  0.0177
20467W        W40747  18.023   6.879  10.280  0.0729  0.3183  0.0742
20468W        W40748   6.705   0.736   0.397  0.1457 -0.0546  0.4055
20469W        W40749  10.579   3.547   0.071 -0.0839  0.2115  0.3709
20470W        W40750  17.369  10.574   2.741 -0.0442 -0.3283 -0.0892
20471W        W40751  14.639   8.048  10.597 -0.0743 -0.1294  0.0456
20472W        W40752  14.520   6.058  11.887 -0.2370 -0.2653  0.0808
20473W        W40753   7.017  16.726   0.398  0.1339 -0.3253  0.0363
20474W        W40754   6.488  16.625   4.674  0.2104  0.1483 -0.1250
20475W        W40755   1.008   9.104   2.780  0.0510 -0.0634 -0.1382
20476W        W40756  10.384  15.599   2.623  0.2158  0.2646 -0.0630
20477W        W40757  17.186  17.917  11.958 -0.2778 -0.2007 -0.0512
20478W        W40758  19.099  14.576  10.830  0.1712 -0.0537  0.1316
20479W        W40759   7.592  15.491  11.704 -0.1890  0.1675 -0.0699
20480W        W40760   0.636  13.102  11.225 -0.0208 -0.1408  0.1415
20481W        W40761   9.181  15.044  13.420  0.0958 -0.1049  0.0610
20482W        W40762  13.426   3.918   2.217  0.0516 -0.0396 -0.0917
20483W        W40763  17.076   9.596  12.088  0.0454  0.2347  0.4703
20484W        W40764   5.884  19.426  11.481 -0.0893  0.1176  0.3038
20485W        W40765   3.273   9.027   1.869  0.1726  0.0636  0.0500
20486W        W40766   0.411   7.876  14.112  0.1547  0.1259  0.0111
20487W        W40767  11.187   8.878   2.649  0.4776 -0.1178 -0.4132
20488W        W40768   1.769   2.987   2.163  0.0385 -0.0208  0.1241
20489W        W40769   5.742   0.581  13.403  0.2507  0.1926  0.0052
20490W        W40770   1.270   3.638   0.549  0.2019  0.3513  0.2337
20491W        W40771   5.492   0.621   1.759  0.0905  0.1449  0.0250
20492W        W40772  17.534  10.793  14.127 -0.1731 -0.1987  0.0166
20493W        W40773  19.328  14.876   2.642 -0.0182  0.0629  0.3787
20494W        W40774  15.044   4.822   1.230 -0.0878  0.2591  0.1682
20495W        W40775  11.572  12.251  12.787 -0.0893  0.0025  0.0080
20496W        W40776  10.160  18.076   4.620  0.2261 -0.1064 -0.0411
20497W        W40777   0.808  11.653  13.019  0.0401  0.1262 -0.1058
20498W        W40778   4.389   9.813   0.577  0.2833 -0.2718  0.0983
20499W        W40779  15.531  13.741  14.061 -0.0275  0.0860  0.2130
20500W        W40780   5.488   6.516  10.761  0.5087  0.0447  0.0779
20501W        W40781  18.272   7.378  10.349 -0.0858  0.2362  0.1403
20502W        W40782  16.232  10.296  13.622 -0.0678 -0.4717 -0.0635
20503W        W40783  12.115  13.549  10.899  0.5582  0.2516  0.2458
20504W        W40784  14.376  11.277  10.612 -0.3342  0.4434 -0.2608
20505W        W40785   2.491  19.399  13.508  0.1732 -0.0097 -0.0149
20506W        W40786   6.420  11.232  11.170 -0.1204  0.2173  0.1892
20507W        W40787   6.656   3.164   1.012 -0.1790  0.2492 -0.2425
20508W        W40788  16.777   7.623   0.022 -0.0351 -0.1533 -0.1696
20509W        W40789  11.186  10.029   3.521  0.1875  0.2768  0.0681
20510W        W40790   3.043   5.513   0.920 -0.1800  0.1308  0.0349
20511W        W40791  14.106  10.238  11.262  0.0648  0.0180  0.1814
20512W        W40792   8.556  12.276   0.231 -0.1599 -0.0822 -0.2709
20513W        W40793  15.556   2.709  11.641 -0.0912 -0.1779 -0.0445
20514W        W40794   7.957  12.777  14.155 -0.0404 -0.1186 -0.3994
20515W        W40795  17.930  16.407   3.071  0.0608 -0.0664  0.0971
20516W        W40796   4.427   7.843  10.435  0.2257  0.1955  0.0253
20517W        W40797   8.596  13.920  13.212  0.1039 -0.1958  0.3714
20518W        W40798   6.667  12.713   3.233 -0.3008  0.2285 -0.0484
20519W        W40799   0.015   6.019   0.508 -0.1567 -0.2228 -0.0535
20520W        W40800  11.359   6.093   0.694 -0.2121 -0.3605 -0.1972
20521W        W40801   1.441  15.179   2.736 -0.0464 -0.2395 -0.2152
20522W        W40802   5.354   2.664   2.850  0.1353  0.1426  0.3173
20523W        W40803  16.240  14.372  13.544 -0.1283  0.2318  0.0955
20524W        W40804   5.746   7.277  12.461 -0.1934 -0.2205  0.2302
20525W        W40805   4.115  15.654   0.490 -0.0405 -0.0094  0.3643
20526W        W40806   5.380   2.397  12.935  0.0100 -0.0659 -0.3261
20527W        W40807  12.494  18.824  12.759  0.1271  0.4150  0.1818
20528W        W40808   0.941   2.028   1.358  0.0854  0.3596  0.0458
20529W        W40809   2.849  14.889  13.920 -0.3009  0.0240 -0.4225
20530W        W40810  14.539  17.794   9.867 -0.0524  0.0236 -0.1592
20531W        W40811  10.624  13.402   3.526 -0.0784  0.0583  0.1310
20532W        W40812  10.553   1.449  13.453 -0.0211  0.0923 -0.0504
20533W        W40813   3.837   5.303  12.536  0.0340 -0.0894 -0.1425
20534W        W40814   5.304   1.617   2.581 -0.3052  0.0734 -0.2526
20535W        W40815   8.854   1.461   1.325 -0.0114 -0.1133  0.1089
20536W        W40816   4.897  12.397  13.814 -0.0435  0.0792  0.2666
20537W        W40817   2.329   1.680  12.683 -0.3616 -0.2027 -0.2994
20538W        W40818  12.303   3.988   0.192  0.2699 -0.1517 -0.0596
20539W        W40819  19.312   6.222   2.223 -0.1801 -0.0608  0.2363
20540W        W40820   6.601   8.271   1.501  0.0586 -0.1924 -0.0428
20541W        W40821  10.203   0.985   2.938 -0.0106  0.1498 -0.0899
20542W        W40822  14.520   7.045  12.224  0.0020 -0.1249 -0.0321
20543W        W40823  14.447  15.272   3.661 -0.0073 -0.4705 -0.0177
20544W        W40824   0.346   4.464   2.105  0.2719  0.1173 -0.2170
20545W        W40825  13.075  18.868   0.471  0.3840  0.1276  0.0728
20546W        W40826  12.397  13.520  11.839  0.1878  0.0898  0.1374
20547W        W40827   2.038  15.348  14.453 -0.3550  0.1490 -0.2436
20548W        W40828  13.172  18.185   1.865  0.4524  0.2614  0.1841
20549W        W40829  16.758  14.293   0.896 -0.1050  0.0440 -0.2668
20550W        W40830  16.720   6.128   1.530  0.0787  0.1959  0.4681
20551W        W40831   7.343   4.428   2.991 -0.1165 -0.0538 -0.0505
20552W        W40832   4.279  12.552   9.939  0.0362  0.0129 -0.1646
20553W        W40833  13.962   4.450   1.376 -0.0449 -0.0249 -0.1252
20554W        W40834   1.462   3.869  12.353  0.2034 -0.0156 -0.0864
20555W        W40835  18.399   2.772   5.168 -0.0801  0.1624  0.0288
20556W        W40836  10.189  12.890   3.760 -0.3466  0.2225 -0.0996
20557W        W40837   3.129  14.201   2.108  0.1070 -0.1163 -0.1267
20558W        W40838  16.691  12.035   0.442  0.0857  0.2518 -0.1067
20559W        W40839   9.767  12.772   3.584 -0.3394 -0.0233 -0.1097
20560W        W40840  17.303   1.598   0.482  0.0058  0.0741 -0.1066
20561W        W40841   6.458  16.959  11.500 -0.0152  0.1390 -0.0894
20562W        W40842   5.079  18.226   4.022 -0.2252  0.3935 -0.0398
20563W        W40843   0.557  17.381   2.378  0.1875  0.3099  0.2755
20564W        W40844   1.416   8.082  10.251 -0.1116  0.1353  0.1890
20565W        W40845  11.341  13.565   3.076 -0.2068 -0.1870 -0.1149
20566W        W40846  12.790   4.315  11.516  0.0890  0.2810 -0.2671
20567W        W40847   7.530   9.244   3.222 -0.0417 -0.1894  0.4125
20568W        W40848  18.266  13.854  12.586  0.0156 -0.1962 -0.3190
20569W        W40849  15.071   3.101  12.340 -0.1673 -0.2455 -0.4189
20570W        W40850  15.190   4.498   3.117  0.0392  0.0374 -0.4512
20571W        W40851  14.713  18.391   3.806  0.0992 -0.1234  0.2602
20572W        W40852   7.869  11.992  14.335  0.2674  0.0606 -0.3139
20573W        W40853   4.066   5.461  13.747 -0.0252  0.1284  0.1322
20574W        W40854  10.515  10.016  14.476 -0.2163 -0.0375 -0.0972
20575W        W40855   9.336   3.138   2.933  0.0224 -0.0320  0.3858
20576W        W40856  13.749   9.450   3.759  0.3210 -0.2970 -0.2690
20577W        W40857  10.556  18.989  11.789  0.0150 -0.0278  0.0650
20578W        W40858  10.420   5.949   2.716 -0.0212 -0.1739 -0.1542
20579W        W40859   0.636  15.047   4.312  0.0762 -0.2565  0.0692
20580W        W40860   2.527   7.689   3.613  0.0975 -0.2807 -0.1702
20581W        W40861   3.148  17.545  14.264  0.3668 -0.3823 -0.1204
20582W        W40862  13.930   8.408  11.870  0.1268  0.1935 -0.2027
20583W        W40863  10.046  18.053  14.495 -0.3259 -0.0064  0.0405
20584W        W40864   7.190   4.703   9.567  0.0488  0.0316 -0.1140
20585W        W40865  16.860  10.848  11.843  0.2067 -0.1718  0.1573
20586W        W40866  10.675  19.328   0.610  0.2018  0.3629 -0.1755
20587W        W40867   1.953   7.190  13.034  0.1601  0.2866  0.2223
20588W        W40868   0.788  15.908  13.377  0.0366 -0.0276  0.0079
20589W        W40869  17.118   9.626   2.970 -0.3184  0.2779  0.2093
20590W        W40870  11.789   9.304   3.906  0.0935  0.1136 -0.1508
20591W        W40871  16.356   9.712  11.054 -0.2674 -0.2242 -0.0923
20592W        W40872  15.465   4.608  13.151 -0.0151  0.0497 -0.1964
20593W        W40873  18.823   7.677  12.890  0.0475  0.2015  0.1638
20594W        W40874   9.142  11.695  12.819  0.0982 -0.1659  0.1114
20595W        W40875  17.759  15.812   2.945 -0.2842  0.0438 -0.0351
20596W        W40876  15.407  18.980   3.319  0.0400 -0.1454  0.0459
20597W        W40877  18.598  17.518   4.071  0.0339  0.1093 -0.0514
20598W        W40878   8.351   6.642  12.017 -0.2427  0.0787 -0.1981
20599W        W40879  18.779  15.973  14.025 -0.2151  0.0697 -0.0338
20600W        W40880  16.474   0.820  10.507 -0.2918  0.0789 -0.0225
20601W        W40881   1.622  11.167  11.780 -0.1724 -0.1378 -0.1908
20602W        W40882  18.042   2.621   2.441  0.1046 -0.1727 -0.3710
20603W        W40883  15.312  15.362   2.126  0.1908  0.0779 -0.3233
20604W        W40884   1.704  18.730  11.304 -0.0138 -0.1918  0.0538
20605W        W40885   4.615  19.361  13.742  0.2294 -0.0321  0.0444
20606W        W40886   0.454  13.923   2.296 -0.1326 -0.2267 -0.0363
20607W        W40887  10.000   2.422  14.369  0.0538 -0.0281 -0.1753
20608W        W40888  12.052   9.044  10.945 -0.1442 -0.0387 -0.0994
20609W        W40889   3.281  11.238  13.311 -0.0071  0.2092 -0.2490
20610W        W40890   4.697   3.519  10.743  0.1111 -0.1089  0.0020
20611W        W40891   0.393   6.978  13.087  0.0470  0.1101 -0.0131
20612W        W40892   1.854  15.223   8.950  0.1128  0.0125  0.1483
20613W        W40893   9.741   7.303  11.855 -0.1492 -0.2783  0.0675
20614W        W40894   7.726  17.398   9.539 -0.0090  0.4112 -0.1094
20615W        W40895   4.683  12.331   2.238 -0.3214 -0.0588  0.0168
20616W        W40896  12.607  15.050  13.963  0.1687 -0.2050  0.1205
20617W        W40897  13.141   9.368   2.973  0.1444 -0.2378  0.2640
20618W        W40898   4.009   6.142   0.588  0.1361  0.2139  0.2262
20619W        W40899   4.309   1.945   1.288  0.2480 -0.0171 -0.3005
20620W        W40900  15.861  18.017  12.693  0.1450  0.0264  0.1092
20621W        W40901  13.056   6.263   2.076 -0.0019  0.1357  0.1860
20622W        W40902   1.695  13.165   3.353  0.1009  0.0958 -0.2000
20623W        W40903  16.202  17.037  14.351  0.0977  0.0399 -0.0454
20624W        W40904   3.642  17.648   3.727  0.4568 -0.0064  0.1771
20625W        W40905  15.985  10.568   1.450 -0.2260  0.3755  0.2424
20626W        W40906   2.446   7.230  12.564 -0.0770 -0.0512  0.1904
20627W        W40907  10.765  10.667   2.545 -0.3058  0.2084 -0.2898
20628W        W40908  11.254   6.479   0.331  0.1644  0.3824  0.0452
20629W        W40909   8.875  16.003   1.666  0.2121 -0.0092  0.2824
20630W        W40910  16.352   0.624  13.756  0.0969  0.1048 -0.1510
20631W        W40911   2.043   9.568  10.855 -0.0497  0.0716 -0.2236
20632W        W40912   6.014   7.394  13.116 -0.0365 -0.0782  0.0089
20633W        W40913   2.422   4.443   0.331 -0.3769  0.1549 -0.1405
20634W        W40914  11.684   8.936   0.028  0.2184  0.0574 -0.4044
20635W        W40915  13.945  11.020  10.609 -0.0215  0.0547  0.1295
20636W        W40916  15.191   5.853  12.461  0.3452  0.0275  0.1391
20637W        W40917   3.322   8.753  13.432 -0.1474 -0.2297  0.1953
20638W        W40918  18.410  12.517  11.481 -0.1787  0.0150 -0.0121
20639W        W40919   4.130  18.914   3.043  0.2187  0.0070 -0.1743
20640W        W40920  15.258   8.237   0.919  0.0121 -0.2466  0.4716
20641W        W40921  14.718  10.127   1.419  0.0057 -0.1245  0.0195
20642W        W40922  12.748   0.256  11.195 -0.0616  0.0172  0.0847
20643W        W40923  13.597   0.806  11.534 -0.2395  0.0428  0.0778
20644W        W40924  11.251   6.073   3.059  0.1193 -0.0511  0.0051
20645W        W40925  17.267  16.079  11.675  0.1984  0.1479 -0.0237
20646W        W40926   7.348  14.131  13.001  0.0439  0.1535 -0.0537
20647W        W40927   9.636  14.377  14.118 -0.2122  0.0949  0.0301
20648W        W40928   3.936   7.074  11.951 -0.1447  0.2519 -0.1034
20649W        W40929  10.477   0.131   3.533 -0.1704  0.2392 -0.0754
20650W        W40930   8.997   8.835  10.941 -0.0292 -0.0549 -0.0483
20651W        W40931  12.439   2.951  10.940  0.0768  0.0620 -0.0692
20652W        W40932  17.744   3.263  11.112  0.0843  0.1451  0.4243
20653W        W40933   9.328   4.598   3.376  0.1614 -0.1086  0.3725
20654W        W40934  14.094   4.511  13.971 -0.0999 -0.0051  0.0404
20655W        W40935  10.046   2.228   9.817  0.0731 -0.1076  0.1832
20656W        W40936   4.701   0.061  10.935  0.0397 -0.2462  0.0109
20657W        W40937   4.050   9.851  14.203 -0.1693 -0.2540  0.0842
20658W        W40938  17.190   6.638   1.647  0.1179 -0.1771 -0.1038
20659W        W40939  14.505   4.906   3.512 -0.1384  0.0636  0.2020
20660W        W40940   9.594   7.120   2.087 -0.1816  0.1400 -0.1806
20661W        W40941  11.111   3.994   1.558 -0.2072 -0.1500  0.0392
20662W        W40942   8.925   4.617   0.714 -0.3844 -0.1380  0.0777
20663W        W40943   5.703   3.510  11.186  0.0064 -0.1752 -0.0717
20664W        W40944  13.017  15.395   3.181 -0.1336  0.1003  0.0354
20665W        W40945   9.271  13.265  10.052  0.0638  0.0495  0.0075
20666W        W40946   3.916  13.386  11.402  0.0018 -0.0081  0.0209
20667W        W40947   2.517   1.716  11.818  0.2353 -0.0664  0.0008
20668W        W40948   2.617   4.361  13.291  0.2273  0.1741 -0.0152
20669W        W40949  10.437  10.247   2.557  0.1694  0.0466  0.2921
20670W        W40950   6.186  11.463   3.386 -0.1608 -0.1062 -0.0432
20671W        W40951   8.411   7.276   2.423 -0.1490  0.0764 -0.1444
20672W        W40952  13.527   1.398  10.752  0.0157 -0.1455 -0.3820
20673W        W40953  15.088  13.604   1.340  0.1068  0.1240 -0.0783
20674W        W40954   4.637  12.906   2.262 -0.0537 -0.0149  0.2075
20675W        W40955   6.349   4.103   1.701 -0.2038 -0.1453  0.0692
20676W        W40956   6.271  12.149   3.614 -0.1111 -0.0482  0.0266
20677W        W40957  14.008   6.914   1.968 -0.2840 -0.1856 -0.3019
20678W        W40958   3.714  14.665   0.425  0.1698  0.0038  0.0696
20679W        W40959  19.123  12.524   3.070 -0.0445  0.0803 -0.0643
20680W        W40960  14.071  15.010   1.817 -0.0502  0.0974 -0.1070
20681W        W40961   7.683  14.360   3.546 -0.0384  0.2117  0.1443
20682W        W40962   7.958   4.436   4.119 -0.0095 -0.0605 -0.2612
20683W        W40963  13.172  18.999   0.922 -0.0585 -0.2938 -0.3184
20684W        W40964  16.285   1.914   3.022  0.0513  0.0961 -0.2374
20685W        W40965   6.246  17.749   3.030 -0.0475 -0.0888  0.0986
20686W        W40966   5.843   7.225   3.360 -0.0273  0.0264  0.0932
20687W        W40967   1.104  13.491   4.587 -0.0564 -0.0123  0.0883
20688W        W40968   4.534  14.884   0.538 -0.1224 -0.2461 -0.0025
20689W        W40969  10.957   3.377   0.975  0.1549  0.1687 -0.3907
20690W        W40970  10.099   2.884   2.251 -0.0384 -0.1938 -0.2061
20691W        W40971  14.798   3.720   0.926 -0.0082  0.2456 -0.2046
20692W        W40972   1.637   3.601   4.182  0.1553 -0.3019  0.1161
20693W        W40973   5.833  16.859   1.301  0.0492  0.0145  0.1239
20694W        W40974   8.222   6.848  14.104  0.3975 -0.1116  0.3220
20695W        W40975   4.318   9.593  10.270 -0.1646 -0.1437  0.2256
20696W        W40976   7.825  18.517  13.462 -0.0566 -0.2643 -0.3523
20697W        W40977  17.673  11.752   1.305  0.0638  0.1442 -0.0763
20698W        W40978  10.318  19.061   4.224  0.0148  0.0042  0.0868
20699W        W40979  18.571   6.485  10.847 -0.1896 -0.0736 -0.1343
20700W        W40980   4.266  13.009   3.392 -0.0011  0.3941  0.3001
20701W        W40981   8.111   8.830  11.384 -0.0951  0.2354 -0.0748
20702W        W40982   2.663  17.892   2.879 -0.1127 -0.2496 -0.1290
20703W        W40983  19.121   5.048   1.877  0.1069 -0.0973 -0.1624
20704W        W40984   0.021   5.189  11.249 -0.0808  0.0995  0.1416
20705W        W40985  11.067   0.409  12.071 -0.1081  0.0328 -0.1083
20706W        W40986   6.900   6.902   3.757  0.0896  0.1070  0.1241
20707W        W40987   7.415  10.972   5.278  0.2213  0.2101  0.1705
20708W        W40988   8.546   1.228   2.107  0.4525  0.1100  0.1742
20709W        W40989  14.671  15.460  11.193  0.0052 -0.1058  0.0592
20710W        W40990  10.221   7.049   3.377 -0.2325  0.1855 -0.2892
20711W        W40991   1.068  11.269   1.127  0.1352  0.0038  0.0069
20712W        W40992   1.532  10.918  13.875  0.0958 -0.0907  0.2585
20713W        W40993   6.901  15.706  12.351 -0.0722 -0.0742  0.1045
20714W        W40994   9.457   8.186   2.881  0.1018  0.1061 -0.0126
20715W        W40995   8.343   6.079   4.795 -0.2863  0.0140 -0.0951
20716W        W40996   4.830   5.229   2.488 -0.0719  0.1261 -0.3186
20717W        W40997   3.950   2.336   2.252 -0.0783  0.1731 -0.0569
20718W        W40998  16.487   8.500   1.523 -0.2791  0.3928 -0.1203
20719W        W40999   1.494   9.921   3.124  0.2127  0.1200 -0.0873
20720W        W41000   5.406  19.084   0.951 -0.2258 -0.1143 -0.0931
20721W        W41001  16.972   7.234   1.793  0.1100  0.0065 -0.1343
20722W        W41002   0.955  10.515   2.758 -0.0900  0.1068  0.0306
20723W        W41003   4.981  18.583   3.565 -0.2527 -0.0860  0.0939
20724W        W41004   3.835   9.874   2.827  0.0556 -0.0745 -0.0978
20725W        W41005  15.812  18.114   1.648  0.2349  0.1190  0.0951
20726W        W41006  16.711  10.071   1.195  0.0297  0.1345  0.3015
20727W        W41007   8.813  13.543   1.199 -0.2090  0.1274  0.2153
20728W        W41008  13.927   1.133  10.566  0.0602 -0.0139 -0.0917
20729W        W41009  16.307  11.314   1.072  0.0548 -0.1963 -0.0759
20730W        W41010  11.796   4.831  11.243 -0.0782  0.2569 -0.0352
20731W        W41011   3.246   6.983  14.076 -0.0699 -0.1975  0.2972
20732W        W41012   2.247   1.612   0.924  0.0625 -0.0120  0.1892
20733W        W41013  14.817  12.584   0.422  0.1187  0.3737 -0.0541
20734W        W41014   1.479   7.481   1.500 -0.1638 -0.0861  0.2050
20735W        W41015  15.452   5.913  10.725  0.0690 -0.2348  0.0645
20736W        W41016  13.945  16.819  11.228 -0.0754 -0.0479  0.1049
20737W        W41017   2.196  10.291  13.328  0.0606 -0.2501 -0.0514
20738W        W41018   3.741  12.411   0.352 -0.0787  0.0628 -0.0777
20739W        W41019  16.847  11.845  12.229  0.0594  0.2928 -0.2063
20740W        W41020   1.165   9.049  12.501 -0.1731  0.0430  0.0747
20741W        W41021  18.536   9.516  11.162  0.0040  0.0442 -0.0372
20742W        W41022   4.510  10.979  11.238  0.2642 -0.1970 -0.3246
20743W        W41023  14.548   3.255   3.857 -0.0057  0.1069  0.3966
20744W        W41024  12.463  12.731   1.370 -0.2895 -0.1423  0.1629
20745W        W41025   2.686  11.618   2.612 -0.1468  0.1368 -0.1238
20746W        W41026   9.750   1.263  14.334 -0.3665  0.1491  0.2382
20747W        W41027   3.519   7.764   3.719  0.0059  0.2097  0.1968
20748W        W41028  14.853  16.518   4.356 -0.2338 -0.1969 -0.1954
20749W        W41029   6.048   8.511  11.943 -0.2722  0.2354 -0.0154
20750W        W41030  11.018   8.341   0.371 -0.0495  0.0957 -0.1587
20751W        W41031  12.596   1.027  10.692  0.0491 -0.3472 -0.0312
20752W        W41032  11.239   3.090  13.981 -0.0531  0.0545  0.0122
20753W        W41033   4.203  14.084   0.780 -0.1508  0.3754 -0.1031
20754W        W41034  10.313  15.220  12.669 -0.0692 -0.1800  0.1339
20755W        W41035  12.299  15.737  13.133 -0.0287 -0.0265 -0.2376
20756W        W41036  12.100   7.523   0.065 -0.2234  0.2690  0.1668
20757W        W41037   5.133   0.441  12.701 -0.4163 -0.1156 -0.2123
20758W        W41038  15.900  19.269  10.669  0.0523 -0.0230 -0.0576
20759W        W41039   2.200  17.434   2.079  0.1881 -0.3665 -0.1418
20760W        W41040  17.692  11.641  12.726  0.3756 -0.0427 -0.0558
20761W        W41041  18.920  12.547  10.909  0.2028  0.0377  0.2510
20762W        W41042   4.801  15.179   4.085 -0.1989 -0.2420  0.0868
20763W        W41043  17.281  11.844   0.257 -0.1548 -0.1810  0.0824
20764W        W41044   2.244  15.932  13.066  0.2124 -0.0535 -0.0402
20765W        W41045   0.651  18.946  13.571 -0.3470 -0.1188 -0.0464
20766W        W41046  17.971  14.074  11.997 -0.2099 -0.2712  0.0558
20767W        W41047   3.090  13.727   2.406  0.0802 -0.0305  0.1198
20768W        W41048  18.508  17.824  13.260  0.0509 -0.1537  0.1996
20769W        W41049  16.072   2.235   1.538 -0.2697 -0.1256  0.0343
20770W        W41050   0.370  15.693  13.057 -0.0206 -0.0122  0.2694
20771W        W41051  12.352   8.561   2.129 -0.3558 -0.1094  0.2030
20772W        W41052   5.949  12.144   2.668 -0.0280  0.0909  0.1077
20773W        W41053  12.563   6.101   1.930 -0.0725  0.0591  0.0211
20774W        W41054  10.960  13.484   1.819 -0.0253  0.1135  0.0731
20775W        W41055   8.896  17.458   2.086  0.0210 -0.1815  0.0759
20776W        W41056   7.820  13.911   2.719  0.3331  0.0837  0.0803
20777W        W41057   8.978  16.297   0.467  0.0592  0.1721 -0.0895
20778W        W41058   1.956  11.220   0.888  0.0106 -0.3239 -0.0650
20779W        W41059   6.560   3.071   3.371  0.2526 -0.1632  0.1304
20780W        W41060  18.558  15.518   0.333 -0.0659 -0.1882  0.1250
20781W        W41061  15.443  11.698  11.370  0.1839 -0.0255  0.2478
20782W        W41062   7.514  11.560  12.463  0.3556  0.3576 -0.2447
20783W        W41063   9.038   4.586   1.193 -0.2217 -0.3198 -0.0019
20784W        W41064  16.113   8.932  11.255  0.0625  0.0613 -0.1289
20785W        W41065   3.295  11.552   2.533 -0.0194 -0.3327  0.3455
20786W        W41066  10.380   8.879   2.425  0.2672 -0.0702  0.1604
20787W        W41067  18.902   2.720  11.125  0.1566  0.1572 -0.1912
20788W        W41068  10.742   4.381   1.331 -0.1826  0.0183 -0.0154
20789W        W41069   8.050   6.342   1.697  0.1246 -0.0312 -0.0811
20790W        W41070  11.989  16.363   4.498  0.0597  0.3681  0.0140
20791W        W41071   0.093   2.258  12.170 -0.1782 -0.0244 -0.1279
20792W        W41072   1.123  14.071  10.165 -0.1382  0.2832  0.3691
20793W        W41073   3.064  16.619  10.627 -0.0904 -0.1149 -0.0443
20794W        W41074  10.894   1.034   1.405 -0.1456 -0.3566  0.0530
20795W        W41075   2.556  10.063   0.258 -0.1434 -0.0568  0.3131
20796W        W41076  11.808   5.991  13.376 -0.1372 -0.0297  0.0154
20797W        W41077   5.366   5.564  10.676 -0.1796  0.0864  0.3033
20798W        W41078  14.237  18.401  12.930 -0.0760 -0.3219 -0.0376
20799W        W41079  15.345   0.183   3.994 -0.0146  0.1411  0.0568
20800W        W41080  10.283  11.517  12.363  0.1027 -0.0856  0.3336
20801W        W41081  16.540   7.041   3.651  0.4725  0.1228 -0.1447
20802W        W41082   3.133   5.449   1.542  0.2523 -0.1055  0.0395
20803W        W41083  15.677   1.406   3.709 -0.1418  0.2213  0.1655
20804W        W41084  17.349   5.698   1.537  0.1524  0.2161 -0.3161
20805W        W41085   0.545   5.513  12.172  0.2416  0.0263  0.1022
20806W        W41086  12.642   7.580   2.609  0.0218  0.0023 -0.0308
20807W        W41087  14.157   9.007  13.629 -0.0874  0.0106  0.2487
20808W        W41088   3.681  14.117   2.582 -0.0803  0.1201 -0.1114
20809W        W41089  17.831   4.325   0.395 -0.0529  0.1707 -0.1111
20810W        W41090  13.964  17.991  11.048 -0.7122  0.0589  0.1376
20811W        W41091  17.223  14.563   2.269 -0.0761  0.2709  0.0189
20812W        W41092  10.116   8.309  12.792  0.1070 -0.1296  0.0236
20813W        W41093  15.507  11.948   1.795  0.1671 -0.1642  0.2093
20814W        W41094  17.280  17.054  13.903 -0.2335  0.0706 -0.2154
20815W        W41095   5.257  16.984  13.730 -0.1977  0.3519  0.2547
20816W        W41096   0.700  13.503   2.219  0.1322 -0.0831 -0.1155
20817W        W41097   5.483   0.794  12.929 -0.1114 -0.0346  0.1017
20818W        W41098   4.070  16.352   2.668  0.0101  0.0103 -0.1203
20819W        W41099  11.768   6.913   0.812 -0.0686  0.4016 -0.0800
20820W        W41100   4.793  17.814   1.832 -0.0196 -0.3309  0.1174
20821W        W41101  18.645   7.193   4.683  0.0487  0.0389  0.0759
20822W        W41102   7.646   9.945   0.151 -0.3711 -0.1321 -0.2785
20823W        W41103  10.417  13.717  14.172 -0.0989 -0.0432 -0.4074
20824W        W41104   4.265   7.858  14.089  0.0280  0.1609  0.0975
20825W        W41105  10.089  18.023   5.349  0.0998  0.0064  0.0190
20826W        W41106  19.156  12.154  12.795 -0.1297  0.1047 -0.2641
20827W        W41107   7.596  15.837  10.759  0.4255  0.0180  0.0682
20828W        W41108   5.802   2.179   4.051  0.1221  0.2768 -0.2874
20829W        W41109   6.475  19.132   0.909 -0.0067 -0.0306  0.1063
20830W        W41110  14.574   7.419   0.005  0.2190  0.0785 -0.3873
20831W        W41111  19.039  15.532  14.038 -0.2601 -0.2832  0.1975
20832W        W41112   1.141  16.356   0.284 -0.0285  0.1869  0.0850
20833W        W41113   2.329   3.756  12.049 -0.3437  0.1228  0.1038
20834W        W41114  17.634   4.082  12.151 -0.0541  0.0687  0.0029
20835W        W41115  18.521   3.396   1.267  0.1389  0.2678  0.0137
20836W        W41116  11.726  16.338  11.717 -0.0128 -0.0962 -0.1857
20837W        W41117  14.890   2.842   2.165  0.0290  0.0771 -0.1832
20838W        W41118  13.022  16.838  11.673 -0.1199  0.1474 -0.0061
20839W        W41119  12.139  18.280   0.052  0.0753  0.0129 -0.2058
20840W        W41120  12.589  10.531  12.372  0.2733 -0.0186 -0.2542
20841W        W41121   5.235   5.340  11.127 -0.0621 -0.1092  0.3675
20842W        W41122  18.883  19.324   9.701 -0.0899 -0.0475 -0.1085
20843W        W41123   3.560   6.911  11.717  0.0716 -0.2563  0.3509
20844W        W41124   9.193   6.896   2.343 -0.1675 -0.2190 -0.0367
20845W        W41125  16.099   6.798   0.669  0.1028 -0.0632  0.2714
20846W        W41126   7.338  10.167  11.247 -0.1489  0.1165  0.1451
20847W        W41127   6.650  10.242   4.572  0.0579  0.0257 -0.0381
20848W        W41128   8.238  18.355   2.525 -0.0408  0.0291 -0.0950
20849W        W41129   4.471   1.376   2.105 -0.0683 -0.1224 -0.1258
20850W        W41130   1.093  16.183   1.763 -0.0614 -0.1788  0.5651
20851W        W41131  19.130   5.871   0.944  0.2350  0.1570 -0.1415
20852W        W41132   0.236   7.474  13.040 -0.0251  0.3674  0.0719
20853W        W41133  12.733  12.778  12.962  0.0961  0.0554  0.0541
20854W        W41134  18.104   8.275   3.563  0.1186  0.5552 -0.1140
20855W        W41135   2.347   0.061  12.436  0.0481 -0.2243 -0.0619
20856W        W41136   9.132   1.874   3.063 -0.1386  0.0412  0.1274
20857W        W41137  16.878   4.933  14.255 -0.1535 -0.0797  0.0740
20858W        W41138   6.357  11.792  12.072  0.0243 -0.2147 -0.3570
20859W        W41139   5.246   1.667   3.762 -0.0084  0.1467 -0.1603
20860W        W41140  13.567   3.234   3.827  0.0412  0.2247 -0.1101
20861W        W41141   9.699  17.474  12.728  0.0896  0.1919 -0.0946
20862W        W41142   8.500   2.034  11.101  0.1946 -0.3286  0.0906
20863W        W41143  11.523  18.143  13.770  0.0479 -0.0383 -0.2261
20864W        W41144   6.159   0.425  13.793 -0.0296 -0.1700 -0.2056
20865W        W41145   7.982   8.316   2.859  0.1603  0.1617 -0.2277
20866W        W41146   5.895  10.672   0.466 -0.1629 -0.2512 -0.1084
20867W        W41147  10.207  10.906  10.753  0.1800 -0.1105  0.2097
20868W        W41148   6.333   0.627   1.901 -0.1762 -0.1154  0.1531
20869W        W41149   4.951  11.677  14.300 -0.3950  0.0917  0.1392
20870W        W41150  12.525   3.496  14.441  0.1316  0.1537 -0.0821
20871W        W41151  16.741  10.353  13.715  0.5190 -0.0730 -0.1998
20872W        W41152  13.807   4.034   3.448 -0.2013 -0.0463 -0.0726
20873W        W41153  18.058  14.897   1.226 -0.1825  0.0166  0.1954
20874W        W41154  14.350   5.169  11.088 -0.0849 -0.2995  0.1510
20875W        W41155   7.241   8.377  13.689  0.0496 -0.4294 -0.3165
20876W        W41156   4.246   2.516   1.310 -0.0873  0.0444 -0.3353
20877W        W41157  11.047  11.483  13.367  0.1800  0.0200  0.1335
20878W        W41158  11.613   6.996   2.069  0.0038 -0.1860 -0.1250
20879W        W41159  11.453  10.951  10.474 -0.0707  0.1835  0.0267
20880W        W41160  16.502   7.132   1.048 -0.4290  0.0784  0.1863
20881W        W41161   3.423  11.411  11.081 -0.2816  0.0663 -0.0558
20882W        W41162   9.677   3.271  13.818  0.3305 -0.1872 -0.1793
20883W        W41163  13.730   2.907   2.709 -0.0688  0.0106 -0.0539
20884W        W41164  12.397  18.804  14.162 -0.1856 -0.0434 -0.0319
20885W        W41165  19.352   7.699  13.950 -0.0731 -0.2339 -0.0792
20886W        W41166  13.378   0.197   3.576 -0.0523  0.2272  0.2692
20887W        W41167   7.178  16.596  12.396 -0.0184 -0.0846  0.0013
20888W        W41168   8.815  15.672  11.309  0.2243 -0.1560  0.3500
20889W        W41169   5.996  12.075   2.009 -0.1851 -0.1756  0.0528
20890W        W41170   4.482   0.014   1.305 -0.0714 -0.0855 -0.1663
20891W        W41171   9.477   8.662  12.852 -0.1761  0.1443  0.2628
20892W        W41172   3.960  14.814  12.159  0.2326 -0.0076  0.0441
20893W        W41173   4.715  15.173  13.729  0.1120  0.2735  0.2650
20894W        W41174  16.745  15.924  14.180 -0.1324  0.1229  0.1128
20895W        W41175   1.765   5.084  13.674  0.2713 -0.0554 -0.1112
20896W        W41176   2.377  16.608  11.755 -0.0727  0.0197  0.2018
20897W        W41177   8.910   5.659   2.681  0.1026 -0.2558  0.3374
20898W        W41178   3.987   5.218   3.611  0.0137  0.0411 -0.1413
20899W        W41179   8.134   5.588   0.973  0.3089  0.0837  0.1905
20900W        W41180   0.523  16.346  13.522 -0.1898 -0.1951  0.2853
20901W        W41181  10.856  11.238   3.357 -0.0705 -0.2543 -0.2810
20902W        W41182   2.895   5.230   1.970  0.0563 -0.1071 -0.1599
20903W        W41183  12.391  18.219   1.482 -0.1118 -0.3420  0.1611
20904W        W41184  17.192  13.464   3.724 -0.1073  0.0636 -0.0755
20905W        W41185   3.211   9.232  13.420  0.2475 -0.2076  0.1912
20906W        W41186  13.323   2.874   3.499 -0.0345  0.0312  0.0750
20907W        W41187   9.852  18.412  12.873 -0.1709  0.4004  0.3279
20908W        W41188   8.913  19.330  12.535 -0.0694  0.2002  0.1758
20909W        W41189   3.130   0.468  13.097  0.3243 -0.1116 -0.1020
20910W        W41190   7.273   5.247   1.273 -0.0649  0.1155 -0.0755
20911W        W41191   4.539   8.396  12.484 -0.1832  0.1676  0.1736
20912W        W41192   8.243  18.760   0.638  0.1051  0.0645  0.0153
20913W        W41193   7.973  12.414  10.957 -0.1961  0.1570 -0.1759
20914W        W41194  17.673  18.017  12.791 -0.2373 -0.1709  0.1853
20915W        W41195  13.213   5.136   0.800  0.0750  0.0785 -0.1915
20916W        W41196  16.981   3.675   0.154  0.2761  0.1479  0.0033
20917W        W41197   3.504   5.375  12.983  0.1615 -0.0249  0.1461
20918W        W41198  16.439   4.226  10.741 -0.4782 -0.1800  0.2854
20919W        W41199  12.879  18.817  13.880 -0.1893 -0.0700 -0.2109
20920W        W41200  10.048  18.566  12.123 -0.0269 -0.3199 -0.0920
20921W        W41201   7.814  13.306  13.076  0.0848 -0.2188 -0.2931
20922W        W41202  10.935   6.418  13.503  0.1989 -0.0785  0.0880
20923W        W41203  15.455  14.445  10.611  0.0290 -0.0537 -0.1108
20924W        W41204   7.917  17.160  11.544  0.0689  0.0235  0.3250
20925W        W41205   4.067  18.097   1.179  0.0021 -0.0367  0.0309
20926W        W41206   6.060   8.607   0.993 -0.0528  0.0779 -0.0917
20927W        W41207   9.283  11.445  14.355  0.2236 -0.1324  0.0072
20928W        W41208   0.173   8.047   9.179 -0.2279  0.1326 -0.0708
20929W        W41209   2.082   8.094   1.306 -0.0391  0.1930 -0.1114
20930W        W41210   1.520  15.173  10.736  0.0654 -0.2446 -0.0067
20931W        W41211   8.218  18.437  12.137 -0.0334 -0.1766 -0.1453
20932W        W41212  17.861   3.564   2.558  0.1140 -0.4905 -0.2599
20933W        W41213   5.210   4.997  12.530 -0.1212 -0.1982  0.3875
20934W        W41214  10.273   1.250  14.299  0.1410 -0.1808 -0.2741
20935W        W41215  10.767   6.220   0.869 -0.1003  0.0584  0.1109
20936W        W41216  13.889  18.595   1.375  0.0491  0.3529  0.1610
20937W        W41217  10.022   7.817   3.987 -0.0236  0.2890  0.0258
20938W        W41218   2.472  13.624   2.448  0.3490 -0.2321 -0.1473
20939W        W41219  16.834  17.994  12.360  0.2596  0.2542 -0.3067
20940W        W41220   1.250   2.906  12.417  0.1764 -0.1220 -0.1899
20941W        W41221  15.621  12.941  12.247  0.1886 -0.1643  0.0331
20942W        W41222   7.397   2.634   3.262  0.1615  0.0886 -0.2758
20943W        W41223  10.598   6.758  13.391  0.0339  0.0846 -0.0164
20944W        W41224  10.624  17.360  13.772  0.0660  0.0616 -0.1258
20945W        W41225   8.137  18.966   2.928  0.0509  0.0120 -0.0899
20946W        W41226   4.629   3.148  11.085 -0.2205 -0.0290  0.0911
20947W        W41227   2.712   3.870  10.705 -0.1459 -0.3330  0.0230
20948W        W41228  15.427  10.232  12.603  0.0420  0.2048  0.0849
20949W        W41229   5.344   6.383   1.981  0.1098 -0.1996 -0.1865
20950W        W41230  17.504   0.131  14.283  0.1695  0.0291  0.3285
20951W        W41231   4.198  18.677  13.820 -0.1938  0.1067  0.2853
20952W        W41232   1.466   8.220  11.582  0.0363  0.1686  0.4380
20953W        W41233  10.060  18.265   1.817 -0.0375 -0.0135 -0.0665
20954W        W41234   2.230  13.893   2.020 -0.0350 -0.0988 -0.1829
20955W        W41235  16.895   8.859   0.429 -0.0147  0.2671  0.0579
20956W        W41236  10.378   0.106  13.857  0.0126  0.0042  0.3777
20957W        W41237   2.123  15.853  10.691  0.1369 -0.2017 -0.2251
20958W        W41238  10.534  10.255  12.344 -0.0157 -0.0638 -0.0263
20959W        W41239  14.526   8.305   3.131  0.2167 -0.2240 -0.0025
20960W        W41240  12.187   2.217  13.429  0.2082  0.0231 -0.0169
20961W        W41241  17.011   3.919   3.915  0.1557  0.0328  0.1102
20962W        W41242  12.271  12.495   1.765  0.0096  0.2397 -0.0608
20963W        W41243   8.794   9.707  12.152  0.1502  0.2239 -0.3204
20964W        W41244   2.861   3.058   4.336  0.1287 -0.1079  0.2591
20965W        W41245   5.145  12.552   1.952 -0.1123 -0.0329  0.2633
20966W        W41246   1.460   2.709   4.016  0.1066 -0.2821  0.1165
20967W        W41247  14.588  11.075   9.985 -0.2713  0.3393 -0.1764
20968W        W41248   2.212   6.796   3.703 -0.0354  0.1000  0.2789
20969W        W41249   7.516   3.987  11.639 -0.1066  0.2690 -0.0287
20970W        W41250  10.609   6.161   4.009  0.0062 -0.0855 -0.2887
20971W        W41251  18.442  14.323   0.147  0.0956  0.0341 -0.4321
20972W        W41252  18.054  17.472   3.951 -0.1054  0.3052  0.0184
20973W        W41253  16.432  12.436  13.538  0.0101 -0.1478 -0.1892
20974W        W41254   0.644   2.345   1.605 -0.4011  0.0161 -0.0789
20975W        W41255  10.030  10.494  12.702 -0.0160 -0.1184 -0.3113
20976W        W41256  13.833   1.161   9.582 -0.1213 -0.1025 -0.2561
20977W        W41257  13.095  10.076  10.979  0.0079 -0.0202 -0.0429
20978W        W41258  18.037  15.445   2.025 -0.2699 -0.0126  0.2096
20979W        W41259  17.786   0.598   3.446  0.0472 -0.3374 -0.2876
20980W        W41260  19.066   0.142   0.806 -0.1828 -0.0835 -0.0267
20981W        W41261   1.656  13.771   0.127 -0.1344 -0.1048  0.1630
20982W        W41262  16.705   1.721  12.122  0.1179 -0.0517  0.0062
20983W        W41263   4.353  14.842  10.676 -0.0262  0.0309  0.1998
20984W        W41264   4.345  13.653  11.287 -0.0507 -0.0817 -0.2056
20985W        W41265   3.457   9.785   1.554  0.0301 -0.0993  0.0821
20986W        W41266   3.439  11.810   0.916 -0.0589 -0.0137  0.2855
20987W        W41267  18.736   0.343  12.180 -0.0519  0.0942  0.0339
20988W        W41268   5.019   0.008   2.877 -0.1022  0.0517  0.0795
20989W        W41269   9.389   5.833   2.650 -0.0384  0.3130  0.2259
20990W        W41270   7.440   4.624   3.458  0.0181  0.1463 -0.1530
20991W        W41271  19.067  17.833   0.893  0.0063  0.0288 -0.1615
20992W        W41272   2.758   4.099   0.545  0.1934  0.1406 -0.4248
20993W        W41273   7.115   9.227   0.804  0.2494 -0.2268 -0.3671
20994W        W41274  19.322   4.229   0.476  0.0108  0.0995 -0.0616
20995W        W41275   0.824   8.135  14.278  0.3252 -0.1379 -0.0300
20996W        W41276  19.395  10.730   4.573 -0.1437 -0.0982 -0.0704
20997W        W41277   7.057  18.767  10.217 -0.0076  0.0628  0.1043
20998W        W41278   3.201   2.501  13.874 -0.1931  0.0155 -0.3951
20999W        W41279   0.648  17.586   1.138 -0.1470  0.2441 -0.0262
21000W        W41280   2.094   1.759  14.138  0.0510  0.0817 -0.1871
21001W        W41281  11.175   1.853  12.411 -0.3375 -0.0563  0.1166
21002W        W41282   4.150   5.869   2.954  0.2959  0.0014  0.2111
21003W        W41283   2.465   0.358   3.856 -0.0036 -0.1570 -0.2139
21004W        W41284   1.996  15.535   0.421  0.1389 -0.0929 -0.2375
21005W        W41285   3.978  11.001  12.317 -0.1323 -0.0135  0.0209
21006W        W41286  14.929  16.266   0.099 -0.0203 -0.0893 -0.1250
21007W        W41287   3.873   1.606   1.402 -0.0414 -0.1850 -0.0461
21008W        W41288  15.216  18.665   2.060 -0.5923 -0.2048 -0.0355
21009W        W41289   4.332  10.352   3.163  0.0449 -0.1158 -0.1572
21010W        W41290   6.846   6.846  13.360 -0.0967 -0.1792  0.0129
21011W        W41291   3.134  16.269   0.369 -0.0783  0.0403 -0.1029
21012W        W41292   0.199   3.824   4.257  0.0870 -0.4537 -0.1260
21013W        W41293  18.047   4.084  11.818  0.0852  0.0227 -0.1619
21014W        W41294   3.411  12.495  12.179  0.3512 -0.0740 -0.1023
21015W        W41295   8.348   1.314  11.117  0.0775  0.1280  0.0481
21016W        W41296   5.555  13.106  13.260 -0.3085  0.4013 -0.1830
21017W        W41297  14.500  17.430   1.418 -0.0121  0.0080  0.0916
21018W        W41298   8.861  16.558   0.930 -0.1537  0.0243  0.2950
21019W        W41299  17.362   4.764   4.408 -0.2891 -0.0211  0.0210
21020W        W41300   4.631  12.534  14.212  0.0326  0.0040  0.1582
21021W        W41301   5.565  18.022   4.048  0.0761  0.0493 -0.1882
21022W        W41302  12.315  15.470   2.194  0.0027 -0.0708 -0.3117
21023W        W41303   8.740   8.200   0.011 -0.2425 -0.0977 -0.0239
21024W        W41304   1.527   5.957   1.819  0.0929 -0.0303 -0.1308
21025W        W41305  14.766   7.084   0.560  0.1990 -0.1381  0.1450
21026W        W41306  15.400  18.180   2.110 -0.2536 -0.2407  0.0220
21027W        W41307  13.564   1.311  11.449 -0.0017  0.0790  0.0609
21028W        W41308   7.553  16.798  12.707  0.1382 -0.3041  0.1150
21029W        W41309  10.796  14.195   3.757 -0.0430 -0.1333  0.1445
21030W        W41310  10.931  14.628   3.041  0.0070 -0.1473  0.1373
21031W        W41311  11.420  16.265   2.558  0.0261  0.0956 -0.0222
21032W        W41312   5.099   5.899   1.853  0.1064  0.1895  0.0438
21033W        W41313   2.585   5.440  10.452 -0.0867 -0.0461  0.0179
21034W        W41314  11.012   3.912  11.656  0.0550 -0.0374 -0.0856
21035W        W41315  17.521  13.571  13.377 -0.1271 -0.0646 -0.0688
21036W        W41316   2.534  18.932  12.210 -0.2237 -0.0600 -0.1388
21037W        W41317   1.452   4.053   4.298  0.1963 -0.4710 -0.1645
21038W        W41318   7.139  19.087  13.789 -0.0250 -0.3435 -0.0090
21039W        W41319  17.565  17.708  11.268 -0.0380  0.1827  0.1431
21040W        W41320  17.220  12.392   0.117 -0.0883 -0.0712 -0.1194
21041W        W41321   5.749  14.640   2.410 -0.0508 -0.0610  0.2051
21042W        W41322  14.975   8.764   2.144 -0.0195 -0.2841  0.1724
21043W        W41323   8.468  16.152  14.008  0.0859 -0.1236 -0.1505
21044W        W41324  11.082   0.776  11.699 -0.0374 -0.2695  0.1177
21045W        W41325   7.885  11.727   1.145  0.0652 -0.4944 -0.3236
21046W        W41326   0.823   1.390   2.307 -0.0225  0.2313 -0.0165
21047W        W41327   1.374  16.961  10.472  0.1250 -0.0286 -0.2124
21048W        W41328  11.160  14.722   0.185 -0.0674 -0.0292 -0.0300
21049W        W41329  11.048   8.538  12.344  0.1544  0.1195  0.3013
21050W        W41330  17.086  18.228   0.719 -0.0445 -0.0734  0.1935
21051W        W41331  15.390   4.009   4.408  0.1819 -0.3000  0.0446
21052W        W41332   9.056   8.155  11.547 -0.1053  0.2165  0.0252
21053W        W41333  14.039  16.682   0.192  0.0154  0.0687 -0.1044
21054W        W41334   7.449   2.259   3.585  0.0574  0.0719 -0.0712
21055W        W41335   4.023  17.374   3.830 -0.3159 -0.2946 -0.2038
21056W        W41336   5.227   7.577   3.242  0.0283  0.1129 -0.1644
21057W        W41337  10.381   7.589   3.093  0.1985 -0.1607  0.0046
21058W        W41338   5.143  13.182  12.004 -0.0959 -0.2162 -0.0617
21059W        W41339   2.405   5.482   1.021  0.0147 -0.2879 -0.3518
21060W        W41340  14.181  14.930  10.633  0.0032  0.1422 -0.1982
21061W        W41341   4.094  15.215  12.458 -0.0575  0.1203  0.0541
21062W        W41342  17.486   2.940   0.407 -0.0014 -0.2960 -0.0199
21063W        W41343   5.683   8.814  12.926  0.1815 -0.0014  0.0526
21064W        W41344  16.375   9.717   9.873  0.0926  0.1972  0.3100
21065W        W41345  17.947   4.777  11.240 -0.0105  0.2092  0.1036
21066W        W41346   5.635  14.788   0.371 -0.4735 -0.1449  0.0676
21067W        W41347  12.327   2.008   0.895  0.1113  0.4038  0.0300
21068W        W41348   1.406  14.165   1.073  0.4192  0.2779 -0.0725
21069W        W41349   3.527  17.506  13.849 -0.2171  0.2359  0.3650
21070W        W41350  14.449  11.995   0.975  0.2924 -0.0174  0.0115
21071W        W41351   1.589  19.101   0.863  0.2098 -0.0384  0.2563
21072W        W41352  17.365   6.613   1.166  0.3137  0.0397 -0.1043
21073W        W41353   5.110  10.337  12.608  0.0382 -0.0571  0.3113
21074W        W41354  12.652   0.369  13.655  0.0592  0.2276 -0.0351
21075W        W41355  18.954  16.977  13.985  0.3018 -0.2576  0.1080
21076W        W41356   9.734  12.647   2.502  0.1010  0.1833 -0.0868
21077W        W41357  15.394  12.101   2.486  0.0709 -0.0400 -0.1838
21078W        W41358  11.305   6.733   1.571 -0.1827 -0.1844 -0.2006
21079W        W41359  13.991  18.359   4.129 -0.0927 -0.5652  0.0507
21080W        W41360   0.902  17.817   3.698 -0.3265  0.1007 -0.1138
21081W        W41361   1.777  18.002   2.630  0.0166 -0.0916 -0.1377
21082W        W41362   5.818   0.241   0.493  0.0379  0.1911 -0.4289
21083W        W41363  13.393  15.300  12.567 -0.0699  0.3418  0.0338
21084W        W41364   2.185  17.767  12.712  0.0861 -0.0181 -0.0849
21085W        W41365   5.650  12.270  10.505  0.1887  0.0400 -0.1241
21086W        W41366   9.171   6.685  10.719  0.0126  0.0304 -0.0399
21087W        W41367  15.338   5.120   1.861  0.1153  0.1095 -0.0431
21088W        W41368  18.076  14.266  13.119 -0.2458  0.1338  0.1088
21089W        W41369  18.879  10.462  13.790  0.0668 -0.3221 -0.1927
21090W        W41370   7.671  16.319   3.416  0.0969 -0.1503 -0.0336
21091W        W41371  10.641  16.329   1.713  0.0302 -0.2624  0.0491
21092W        W41372  13.769  18.435   3.615 -0.0814 -0.1576  0.0738
21093W        W41373  13.697   2.139   4.497  0.0364 -0.1613 -0.1578
21094W        W41374  19.183   6.698   0.461  0.0085  0.1315 -0.0022
21095W        W41375  13.980  12.616  12.055  0.2215 -0.1528  0.1735
21096W        W41376   0.562   6.509   0.387 -0.1914 -0.0196  0.0279
21097W        W41377  13.252  17.395   2.201 -0.0063  0.1567  0.3540
21098W        W41378   3.283   6.065  14.465 -0.2587 -0.1827  0.1775
21099W        W41379  15.109   7.964   2.493  0.0494 -0.1807  0.0187
21100W        W41380   4.216   0.415   1.048  0.0579 -0.0716 -0.0716
21101W        W41381   0.987  11.949   2.773 -0.2808  0.1018 -0.2967
21102W        W41382  16.488  11.702   0.804  0.1121  0.1207  0.0076
21103W        W41383   7.955   5.330  12.878 -0.1964 -0.0552  0.0585
21104W        W41384   6.852  11.224  10.590 -0.0747  0.2793 -0.6141
21105W        W41385  19.290  16.078   1.549 -0.1097  0.1277 -0.1953
21106W        W41386   5.464  18.892  13.875  0.2194 -0.1531  0.0134
21107W        W41387   4.733  17.719   3.209 -0.0567 -0.2402  0.1501
21108W        W41388  10.065   7.701   3.466  0.0349  0.2450  0.0763
21109W        W41389   2.378   0.018  12.970 -0.3347  0.0477 -0.1848
21110W        W41390   7.159   7.195  13.986  0.1358 -0.3539  0.1192
21111W        W41391  13.875   6.650   3.964 -0.1452  0.2352 -0.0875
21112W        W41392   0.606   5.348   0.639 -0.0119  0.3008 -0.2881
21113W        W41393   7.377  14.997   4.129  0.1045  0.0530 -0.2847
21114W        W41394   6.340  18.255   1.691 -0.1300 -0.2330  0.0010
21115W        W41395  11.203   0.119  11.128 -0.1214 -0.0908  0.0839
21116W        W41396  10.684  14.537   1.591  0.4224 -0.2639 -0.0486
21117W        W41397  17.205  17.421  10.642 -0.1711  0.1919  0.1830
21118W        W41398  18.447  13.910   0.442 -0.1630 -0.0058  0.3350
21119W        W41399   3.967   1.359   2.119 -0.1773  0.0351  0.2245
21120W        W41400   1.097   1.458   3.320 -0.1974 -0.1548  0.4286
21121W        W41401   6.133   3.975  12.390  0.0033  0.1878 -0.0747
21122W        W41402  10.504  19.203   2.955  0.0094  0.0834 -0.0247
21123W        W41403  18.226  12.128  10.233  0.1841  0.0268  0.1255
21124W        W41404   3.110   2.722   3.123  0.1319  0.0093  0.1943
21125W        W41405  10.594  14.849   3.871 -0.2681  0.0975  0.0266
21126W        W41406  18.195   5.341   2.566  0.1495 -0.0306  0.3273
21127W        W41407   1.228  18.265   0.682 -0.2778 -0.1531 -0.1780
21128W        W41408  10.126   3.644   4.190  0.1185 -0.1756 -0.1786
21129W        W41409  13.899   2.326   0.281  0.1387  0.2184  0.1532
21130W        W41410   8.975  12.210   0.527 -0.1535  0.0068  0.1650
21131W        W41411  19.295  18.438  13.452 -0.1405 -0.2288 -0.2999
21132W        W41412  17.081  14.634   3.263 -0.1201 -0.1907  0.1740
21133W        W41413   3.833   9.880   1.271  0.3026 -0.2211 -0.0112
21134W        W41414   1.505   6.245  11.624 -0.2571  0.3590  0.1589
21135W        W41415  16.570   6.990  14.088  0.2715  0.1401 -0.1486
21136W        W41416  17.306  19.298   2.798  0.0510 -0.1127 -0.0109
21137W        W41417  13.931   9.639   1.867 -0.2341  0.0683  0.0270
21138W        W41418  13.095  14.384   1.002 -0.3688  0.1302  0.3046
21139W        W41419  13.451   7.646   2.939  0.1111 -0.0980 -0.5140
21140W        W41420  18.078   3.799   0.941 -0.0205 -0.0370  0.0809
21141W        W41421  18.640  10.082   0.418  0.1319  0.0030 -0.1551
21142W        W41422  10.456   3.181  11.479  0.2940  0.1473 -0.0137
21143W        W41423  14.982   1.380  11.626  0.1898  0.0594 -0.1228
21144W        W41424   7.593   4.875   2.650 -0.3442 -0.1456 -0.0480
21145W        W41425  18.421   9.184  12.976  0.0201  0.0828 -0.1531
21146W        W41426  19.405  19.224  13.427 -0.2103  0.2745 -0.1018
21147W        W41427   6.168   4.108   0.802 -0.2804 -0.0506  0.0665
21148W        W41428  18.421  15.126   3.592 -0.2594  0.0863 -0.1764
21149W        W41429   1.953  15.123   2.654 -0.2109  0.1854 -0.0458
21150W        W41430   7.234   4.540   0.489  0.2206 -0.2866  0.0445
21151W        W41431   2.582   7.612  10.724  0.0523 -0.0880  0.2567
21152W        W41432   5.850  18.410  12.378  0.1073 -0.2331 -0.1819
21153W        W41433  12.954  16.248   2.086 -0.1820 -0.2706  0.1371
21154W        W41434   7.210  12.156  13.615  0.0067  0.3031  0.1215
21155W        W41435  18.049   9.656  10.941  0.1581 -0.1864  0.0362
21156W        W41436   2.143   3.929  11.130 -0.0714 -0.1108 -0.2041
21157W        W41437  18.144  18.101  13.956  0.0100 -0.2430  0.1202
21158W        W41438   3.814   0.837   1.900 -0.1402  0.0150  0.1930
21159W        W41439   6.647   4.897   3.958  0.0545 -0.0554 -0.0145
21160W        W41440  10.834  16.802   2.522 -0.2176 -0.4503 -0.0002
21161W        W41441  18.498  18.365   4.024  0.2353 -0.3612  0.0361
21162W        W41442  12.082   1.381  11.511 -0.0344 -0.2445 -0.1318
21163W        W41443  14.533  10.629   0.793 -0.0809 -0.1696 -0.0275
21164W        W41444   0.571   1.604   0.980  0.0989  0.0239 -0.0984
21165W        W41445   9.523   8.865   4.033 -0.2478  0.0639 -0.0383
21166W        W41446   9.644   0.616   3.738  0.0748  0.0286  0.0009
21167W        W41447   0.553  16.507   3.883 -0.0759  0.2807 -0.2159
21168W        W41448  14.939  11.495   2.981 -0.1716 -0.2382  0.2183
21169W        W41449   8.545   1.671   1.794  0.0164  0.0276  0.0235
21170W        W41450  10.388   5.140  14.023 -0.2928  0.2711  0.3513
21171W        W41451   7.417   9.276  10.646 -0.1102  0.2059 -0.2020
21172W        W41452   0.684   2.868  10.786 -0.0113  0.1452  0.0058
21173W        W41453  12.229  17.458  11.125  0.1802 -0.0209 -0.1657
21174W        W41454  15.083  14.215  11.027 -0.0006  0.1428 -0.2678
21175W        W41455   4.826   0.184   1.622 -0.0094  0.0003  0.2606
21176W        W41456  11.248  18.862   1.609  0.2440 -0.0162  0.1248
21177W        W41457   9.495   0.252  13.165  0.0478 -0.0442 -0.0281
21178W        W41458   9.406  15.145   2.228 -0.1145 -0.3053 -0.1190
21179W        W41459  18.280  14.674   4.214 -0.0645  0.2329  0.0829
21180W        W41460   6.089  16.818  11.217 -0.2619  0.1079  0.1481
21181W        W41461  10.034  15.192  10.573  0.2172 -0.0424 -0.1654
21182W        W41462   5.558   1.488  13.193 -0.1743 -0.1708 -0.0532
21183W        W41463  14.296   5.927  11.418  0.0743 -0.1305  0.1163
21184W        W41464  19.081  17.348   0.921  0.2423  0.0879 -0.1604
21185W        W41465   7.646  18.428   3.904 -0.0108  0.2310 -0.0666
21186W        W41466   7.544  16.732   3.715 -0.3820 -0.1277  0.0350
21187W        W41467   1.079  13.001  10.001 -0.1236 -0.1545 -0.1196
21188W        W41468   6.503   5.176   2.593  0.0279 -0.0944  0.1237
21189W        W41469  19.113  14.861   4.494  0.1924 -0.3284  0.0576
21190W        W41470  12.984  18.990   1.761  0.1020 -0.0441 -0.1786
21191W        W41471   9.252   9.971   2.398  0.2904 -0.0795  0.0870
21192W        W41472  12.856  14.018   3.886 -0.0282  0.1452 -0.0379
21193W        W41473  16.472  14.426   2.657  0.1383 -0.0034 -0.1686
21194W        W41474  15.131   2.154   1.692 -0.2981  0.6196 -0.1521
21195W        W41475  19.155   4.409   3.697 -0.3161  0.3539  0.1356
21196W        W41476  14.929   2.457  10.990 -0.1832 -0.1634 -0.1495
21197W        W41477   1.089   7.946   1.503  0.5845 -0.0100  0.1935
21198W        W41478   5.710  19.076  13.448  0.1520  0.0637  0.1685
21199W        W41479  15.738  11.801  12.996  0.3576 -0.0005  0.1368
21200W        W41480  15.451   8.956  10.499  0.0545 -0.0912  0.1043
21201W        W41481  12.382   8.798  11.775  0.1653  0.0131 -0.2506
21202W        W41482  15.473   6.124  12.870 -0.1040  0.0085 -0.0019
21203W        W41483  18.624  10.183   1.195 -0.0822 -0.1080 -0.1524
21204W        W41484  16.925  18.838  14.154  0.1869  0.2240  0.4377
21205W        W41485  11.712  10.004   3.491 -0.1781  0.0180 -0.0876
21206W        W41486   3.850  11.651  10.879 -0.1010  0.2032 -0.2991
21207W        W41487  13.010  15.299  12.057 -0.0363 -0.1233  0.1776
21208W        W41488   3.451   3.231  13.728  0.1971 -0.1182  0.0898
21209W        W41489   4.490  13.861   1.838 -0.1445  0.3333 -0.2496
21210W        W41490   1.020  17.688   4.516 -0.2912 -0.0935 -0.4049
21211W        W41491  17.716  11.243   2.256 -0.0228 -0.1519  0.1980
21212W        W41492   1.284   3.277   0.859 -0.0134 -0.1518  0.0922
21213W        W41493  15.393   1.536  13.044  0.2039  0.0931  0.0938
21214W        W41494  15.608  12.369   0.076  0.1886 -0.4124  0.1753
21215W        W41495   0.242  10.940  12.274 -0.0596 -0.3196  0.0470
21216W        W41496   6.218  17.597   0.537 -0.4660 -0.1502 -0.4362
21217W        W41497  13.954   2.823  10.784 -0.0971 -0.0292 -0.2650
21218W        W41498  14.872  12.927   1.606 -0.2350  0.0435  0.3290
21219W        W41499  18.921   6.828  12.530  0.0277  0.1961 -0.1141
21220W        W41500  17.235  12.903  13.864  0.2732  0.0043 -0.3406
21221W        W41501  19.389   1.505  12.813  0.1185 -0.0773  0.0758
21222W        W41502  15.950  12.541   0.504  0.1221 -0.0693  0.1732
21223W        W41503   1.735   1.179  11.549 -0.3336 -0.1914  0.1450
21224W        W41504  12.737  10.756  13.933 -0.2062  0.0801  0.3577
21225W        W41505  15.238   2.417   1.102 -0.1946  0.1466 -0.2140
21226W        W41506  10.912   6.703   1.227  0.1814  0.2350  0.1000
21227W        W41507  14.870  18.995   0.323 -0.0574 -0.0421 -0.3382
21228W        W41508   0.753  10.074  10.866  0.2253  0.0041 -0.1482
21229W        W41509   3.380  13.700  14.114 -0.1244  0.5370  0.0453
21230W        W41510   4.305   0.359   4.234 -0.2070  0.2225 -0.0805
21231W        W41511   5.198   0.455   0.933  0.1902 -0.3526 -0.2472
21232W        W41512   9.961   1.650  10.506 -0.0819  0.0071 -0.1312
21233W        W41513   8.838   3.205   0.319 -0.1102  0.4203 -0.0310
21234W        W41514   2.134   8.961  11.668 -0.2439  0.1691  0.0005
21235W        W41515  11.264   9.785  11.800  0.0480  0.0437 -0.1248
21236W        W41516   7.501   4.717  13.522 -0.0578  0.0698  0.0131
21237W        W41517   6.476  15.666   1.748  0.0298 -0.4307 -0.5053
21238W        W41518   6.814  13.247  10.291  0.2601  0.1041  0.0632
21239W        W41519   5.798  11.508  12.522  0.2322 -0.2712  0.1929
21240W        W41520   4.040   2.480  11.015 -0.1548  0.1813 -0.3794
21241W        W41521   8.740  18.804   0.726 -0.2198 -0.0534 -0.0315
21242W        W41522  13.720   9.785  14.475  0.2303 -0.0207  0.0511
21243W        W41523  13.314  12.426   9.951  0.1360 -0.3390  0.1884
21244W        W41524  13.158  11.524  13.822 -0.1436  0.0395 -0.3045
21245W        W41525  13.612   5.231   4.146 -0.1150 -0.3295 -0.2551
21246W        W41526   5.326   9.705  11.144  0.0769  0.0118  0.0547
21247W        W41527  13.744   5.794   0.737 -0.1321 -0.0656 -0.1438
21248W        W41528   6.803  19.394   1.587 -0.0183 -0.2140 -0.2443
21249W        W41529  17.321  17.436  13.500 -0.2471  0.1450 -0.1656
21250W        W41530   8.982  17.834   3.744  0.2443 -0.1262  0.4744
21251W        W41531  14.070   0.565   4.344  0.4315  0.3757  0.0931
21252W        W41532  15.098   2.252   0.626 -0.0956 -0.0091  0.0948
21253W        W41533   5.544  13.294  12.328 -0.1351  0.1086 -0.0881
21254W        W41534   9.944   4.659   2.333 -0.3932  0.4139 -0.1318
21255W        W41535  12.643  16.937   2.674 -0.0186 -0.1516  0.1127
21256W        W41536   1.897  13.872  13.719  0.0073 -0.0635 -0.0042
21257W        W41537  18.877  11.262  13.236 -0.3232 -0.1382  0.1143
21258W        W41538  10.055  10.526   2.670  0.0664  0.2761 -0.2332
21259W        W41539   5.049   7.352  10.815  0.1438  0.1148 -0.2085
21260W        W41540  12.375  19.333  13.681 -0.0188  0.0602  0.1174
21261W        W41541   3.912   6.522  11.655  0.0005  0.0838 -0.0850
21262W        W41542  14.474  12.938   0.197 -0.0924  0.1563  0.0706
21263W        W41543   9.855   8.390  11.913 -0.0307 -0.0479 -0.0468
21264W        W41544   6.904  10.183  11.696  0.1815 -0.1847 -0.0690
21265W        W41545   7.141   9.632   2.631 -0.4529 -0.2169 -0.0272
21266W        W41546   3.340  17.117  14.095  0.0664  0.2020 -0.2036
21267W        W41547  10.884   0.345  10.779  0.0623 -0.1953  0.0671
21268W        W41548  15.971  15.349  10.861 -0.1204 -0.2506 -0.0225
21269W        W41549  12.996   1.221  11.533 -0.0326  0.1712 -0.3856
21270W        W41550   0.581   9.946  12.594  0.0147 -0.0540  0.2226
21271W        W41551   2.747  16.318  12.998 -0.2194 -0.1307  0.0082
21272W        W41552   0.542   0.682  11.252 -0.1640 -0.0815  0.0334
21273W        W41553  19.034  12.091   1.944  0.0435 -0.1126  0.0391
21274W        W41554  12.825   8.931  11.453  0.2551 -0.1365 -0.0084
21275W        W41555   1.280   7.872  13.612 -0.2001 -0.2762 -0.0097
21276W        W41556  10.507  18.882   0.538  0.2905 -0.2159  0.1147
21277W        W41557   6.775  14.549  11.540 -0.1513 -0.2786 -0.2325
21278W        W41558  16.968  10.817   1.920  0.1989  0.2006 -0.0365
21279W        W41559   5.776  16.526  13.655 -0.1186  0.1165 -0.2838
21280W        W41560  16.223   8.498   0.151 -0.1737 -0.0067 -0.1482
21281W        W41561  18.072  14.966  13.855  0.0777  0.2256 -0.0092
21282W        W41562   4.519   1.823  11.639 -0.4328  0.0477 -0.0544
21283W        W41563   3.390  12.121   0.504 -0.1446  0.0083 -0.0074
21284W        W41564   1.071   7.511  11.239  0.2505 -0.2374  0.0165
21285W        W41565   3.945   9.380   9.888 -0.0514  0.0449 -0.0684
21286W        W41566  11.953   8.169  11.960  0.1824 -0.0341 -0.0757
21287W        W41567  12.282   2.667  14.153  0.1368  0.2518 -0.1703
21288W        W41568   2.113  13.433   2.766 -0.1412 -0.0272  0.0187
21289W        W41569   1.291  16.745  14.440  0.3174 -0.2385 -0.1724
21290W        W41570   3.179  11.128   3.914  0.2497  0.0655 -0.0915
21291W        W41571   4.372   6.641   3.539 -0.0912 -0.1684  0.0039
21292W        W41572  18.236   2.280   2.767  0.1802  0.1410  0.0968
21293W        W41573   9.056   7.601   3.617  0.0277 -0.0438  0.0235
21294W        W41574  13.206  10.590  10.853 -0.0453  0.0434 -0.2085
21295W        W41575  18.051   9.854   0.544  0.1267  0.1226 -0.3521
21296W        W41576   6.759   0.239   1.986 -0.3132 -0.0198  0.0493
21297W        W41577  14.029  15.501   0.600 -0.0994 -0.0057  0.0415
21298W        W41578  12.893  19.275  13.630  0.0106 -0.3760  0.1021
21299W        W41579   5.941  17.031  12.733 -0.3565 -0.0408  0.1489
21300W        W41580   2.764   8.571   3.009  0.0375  0.0882  0.2602
21301W        W41581   7.978   5.724  10.819 -0.0047 -0.0558  0.1033
21302W        W41582   3.848  17.825  12.543  0.2262 -0.2861 -0.2130
21303W        W41583   5.297   7.348  13.906 -0.3585  0.1357 -0.0584
21304W        W41584   8.769   4.016   3.062  0.0684 -0.1295  0.1027
21305W        W41585   6.179   0.962  13.675 -0.1986 -0.0247 -0.1415
21306W        W41586  13.340   6.892  13.663 -0.0972  0.0596 -0.3270
21307W        W41587  17.195  10.725  11.090 -0.3846 -0.0535  0.2005
21308W        W41588  14.519   6.553  14.071  0.0282 -0.2929 -0.2068
21309W        W41589  16.095   7.935   0.912 -0.1561  0.2345  0.3528
21310W        W41590   7.270   3.644  12.975  0.3830 -0.2182 -0.0281
21311W        W41591  13.398   8.082   0.814  0.2229 -0.0714 -0.0849
21312W        W41592  15.519   0.003   0.897  0.0327  0.4035  0.2063
21313W        W41593   3.238   3.506   2.448 -0.2313 -0.0862  0.1562
21314W        W41594   3.882   1.014  12.988 -0.2290  0.0355  0.1572
21315W        W41595  14.705  12.609  14.427  0.2624  0.2689 -0.0333
21316W        W41596   5.313   4.428   2.826 -0.1285 -0.0993  0.1021
21317W        W41597   1.253  17.010  10.983 -0.2873  0.2356  0.0435
21318W        W41598  10.481   9.723   2.354  0.0876  0.2037 -0.1429
21319W        W41599  17.308  16.403   2.444  0.0723 -0.3438 -0.1995
21320W        W41600   9.822  19.009  14.154  0.4331 -0.3915  0.0620
21321W        W41601  16.804   9.846   0.704  0.2756  0.3142  0.2709
21322W        W41602  13.725  13.179   2.360  0.0563  0.0322  0.0822
21323W        W41603   1.774   0.762  11.284 -0.1993  0.1692 -0.2477
21324W        W41604  14.797  18.172   3.322 -0.0200 -0.0764  0.2015
21325W        W41605  19.030   3.291   1.941 -0.2311 -0.4503 -0.0299
21326W        W41606   3.568  13.143   2.902  0.1969 -0.0521  0.2080
21327W        W41607   8.891   9.557   3.133 -0.1016  0.1026  0.1301
21328W        W41608  15.540   5.601  12.986 -0.0450 -0.1018 -0.1336
21329W        W41609   4.270  18.478   2.880 -0.2974 -0.0603 -0.4443
21330W        W41610   3.993  11.845   1.401  0.0835  0.0876  0.1013
21331W        W41611  10.424  18.347   4.874 -0.0722  0.2902 -0.1029
21332W        W41612   3.185  11.957  11.645  0.0193 -0.1798  0.0760
21333W        W41613   2.564   4.391  14.348  0.2582 -0.0141 -0.1377
21334W        W41614   3.316   5.490   0.053 -0.2711  0.3768 -0.0691
21335W        W41615  16.157   4.676  10.606 -0.1861  0.2669  0.2881
21336W        W41616  15.130   2.996   1.109  0.1159  0.2902 -0.2973
21337W        W41617   9.160   0.215   0.049  0.2475  0.1388  0.0562
21338W        W41618   0.416   2.866   1.637 -0.0438  0.3832  0.1251
21339W        W41619  11.911  17.814  10.844  0.0402  0.2515  0.0565
21340W        W41620  15.409  15.466   0.407  0.2653 -0.0211 -0.2608
21341W        W41621  17.983   4.032   3.927  0.2706 -0.0067 -0.1315
21342W        W41622  11.385   6.346  12.245 -0.0163  0.0247  0.0074
21343W        W41623   4.586  16.135  10.219 -0.1686  0.1104 -0.1393
21344W        W41624  11.066   3.870  11.132  0.0847 -0.0706 -0.2011
21345W        W41625   1.311  12.600  10.180  0.1365 -0.0458  0.0867
21346W        W41626  13.740  12.067   1.508 -0.1042 -0.1431  0.3863
21347W        W41627  15.466  13.417  12.339 -0.2948 -0.2441 -0.1331
21348W        W41628  10.032  19.070  12.266  0.0206 -0.2865 -0.0214
21349W        W41629  12.787  14.148   3.354 -0.0335  0.0836 -0.1665
21350W        W41630   2.123  14.853  11.609 -0.0662  0.0130  0.1658
21351W        W41631   6.235   4.550  13.152 -0.2774 -0.0669  0.3534
21352W        W41632  11.897  18.695   0.348  0.0438 -0.0255 -0.1256
21353W        W41633   0.729  19.106   0.642 -0.0965  0.2116  0.0732
21354W        W41634   5.011  11.485  11.986 -0.0301  0.1091  0.2125
21355W        W41635  12.671   1.312   3.124 -0.1705 -0.1261  0.2100
21356W        W41636   1.517  15.537   0.075 -0.2208  0.0911  0.0412
21357W        W41637  18.231  17.516  11.801 -0.1682  0.0118 -0.1454
21358W        W41638  12.491  16.723   0.668 -0.1177 -0.0658  0.1116
21359W        W41639  15.162   2.656   1.554  0.1159  0.1006  0.0317
21360W        W41640   4.775  12.373  10.615 -0.0829 -0.1543 -0.1539
21361W        W41641  11.478   2.561   2.155 -0.0121  0.0533 -0.0352
21362W        W41642   2.529  17.923  12.318 -0.0294  0.2374  0.2978
21363W        W41643   7.728   9.211   0.261  0.2071 -0.3232 -0.1770
21364W        W41644  10.544   6.309  10.064 -0.0133 -0.1969  0.1989
21365W        W41645   4.945   6.515  13.499  0.0551  0.3260 -0.2340
21366W        W41646   0.551  10.070   2.624  0.1025 -0.1560  0.3760
21367W        W41647   3.773  11.420  13.029 -0.0094  0.0591 -0.1034
21368W        W41648  11.513   3.008  11.040 -0.1272 -0.1672  0.1468
21369W        W41649   2.468  11.665  10.601  0.0995 -0.0922 -0.0490
21370W        W41650  11.532  13.624  13.153 -0.0548 -0.2841 -0.2001
21371W        W41651   9.567   6.987   4.177 -0.1234  0.1920  0.2059
21372W        W41652   7.087   8.131   5.114 -0.0356  0.0135  0.1636
21373W        W41653   2.890  10.574  13.865  0.1363  0.5079 -0.0273
21374W        W41654  11.991  15.792   1.838 -0.1544 -0.3358 -0.2759
21375W        W41655   0.671  12.297  10.196 -0.1345  0.1430 -0.0384
21376W        W41656   6.046  11.788   1.008  0.2869 -0.2298  0.0022
21377W        W41657  13.603  17.326  13.973 -0.2198 -0.0659  0.0068
21378W        W41658  17.324  11.734  12.378  0.0392 -0.2053  0.4952
21379W        W41659   8.109   2.710   0.160 -0.1597  0.0190  0.0358
21380W        W41660   3.510   1.503  13.997 -0.2228 -0.1514 -0.3099
21381W        W41661   3.489  16.252  11.813  0.0271  0.0491  0.1001
21382W        W41662  16.876   7.049  10.802 -0.3266  0.1258  0.0226
21383W        W41663  14.332   8.639  11.661 -0.0271 -0.1901  0.0519
21384W        W41664  18.021  19.189  13.681 -0.0339  0.3931  0.1125
21385W        W41665   9.206   6.051  11.339 -0.2245 -0.1710  0.0738
21386W        W41666  11.569  11.383   1.117  0.2596  0.2437 -0.1662
21387W        W41667   9.260   5.558   3.043 -0.3175 -0.0122  0.1468
21388W        W41668  16.220   9.219   1.532 -0.0254 -0.1642  0.3386
21389W        W41669   6.589  10.020   3.598 -0.1073 -0.2759 -0.0889
21390W        W41670   0.487   7.710   9.819 -0.0308  0.1840  0.1050
21391W        W41671  18.402   7.057   2.716  0.0038  0.0834 -0.2556
21392W        W41672   5.442   2.571   0.136  0.2608 -0.2873 -0.0873
21393W        W41673   6.346  15.275  14.110  0.0319 -0.2642 -0.3184
21394W        W41674  13.714  14.955  12.462 -0.0741 -0.1857 -0.1606
21395W        W41675  13.524  10.819  13.312 -0.0652  0.0900  0.2377
21396W        W41676   3.538   8.056   0.408 -0.1271  0.0623  0.0534
21397W        W41677   6.474   8.147   0.307  0.1944 -0.0593 -0.0419
21398W        W41678   9.277  17.330   4.505 -0.0176 -0.0222 -0.2987
21399W        W41679   7.304  16.498  13.135  0.0558  0.1893 -0.1195
21400W        W41680  11.208  13.515  10.970 -0.0394 -0.1114  0.2201
21401W        W41681  10.414  10.788   2.888  0.1355 -0.0329 -0.0631
21402W        W41682  13.131   0.536   0.908 -0.1946 -0.4482  0.0910
21403W        W41683   1.049  13.341  11.467 -0.0166 -0.0751  0.1252
21404W        W41684   8.712   7.747  13.084  0.0766  0.1728  0.0243
21405W        W41685   7.091   0.315   3.597  0.3860 -0.1785  0.0079
21406W        W41686  17.655   5.203  11.193 -0.2088  0.1078  0.1872
21407W        W41687   9.518   4.174  13.325  0.1604 -0.1452  0.1019
21408W        W41688  15.676  14.232   1.818  0.4398 -0.0719 -0.1962
21409W        W41689   3.930   1.435   4.356  0.0674  0.0242 -0.2509
21410W        W41690  17.483  16.870   0.548  0.0810 -0.2352  0.4142
21411W        W41691  15.080   0.113  12.904 -0.0653  0.1230 -0.0273
21412W        W41692   5.690  14.355   3.140 -0.2365 -0.0077 -0.1032
21413W        W41693  17.855   5.389   2.927 -0.1161  0.2297  0.0658
21414W        W41694   3.770  17.161  13.328 -0.3682 -0.1607  0.0206
21415W        W41695  16.510   2.339  14.284 -0.0179  0.2502 -0.4022
21416W        W41696   0.483  11.181   3.143 -0.0172  0.2066  0.0155
21417W        W41697  10.515   9.100   0.858  0.2636  0.0086 -0.1296
21418W        W41698  14.303   9.100  12.324  0.1410  0.0363  0.2541
21419W        W41699  15.865   9.897   2.872 -0.1764 -0.0358  0.1113
21420W        W41700   6.787   8.985  12.109  0.2505  0.0197 -0.1398
21421W        W41701   1.532  14.764  13.592  0.1781  0.0358  0.0662
21422W        W41702   6.372   0.580  13.371  0.0967  0.5117  0.0211
21423W        W41703  15.200  11.509  13.884  0.0920 -0.1893 -0.0514
21424W        W41704   7.904  15.160  10.305 -0.0704  0.0688 -0.3469
21425W        W41705   8.182  17.776  12.302  0.0906  0.2760 -0.1882
21426W        W41706  16.612   5.003   0.607 -0.0923  0.2162 -0.1999
21427W        W41707   7.543   0.648   0.368  0.0562  0.0526 -0.0753
21428W        W41708  15.959  17.484  12.558  0.0559  0.0608  0.0042
21429W        W41709   3.845   8.470   0.307  0.1026  0.1954  0.1503
21430W        W41710  19.122   8.668   2.324 -0.0925  0.0285 -0.0527
21431W        W41711  18.639  17.828  11.727 -0.2378 -0.0065 -0.0225
21432W        W41712   6.555  14.640   2.933  0.0022  0.0951 -0.2482
21433W        W41713   9.794  13.337  12.407 -0.3669 -0.0769 -0.0326
21434W        W41714  12.963   8.305  12.765  0.0626  0.2187  0.1076
21435W        W41715  17.014  17.498  12.160 -0.1911  0.2520 -0.1166
21436W        W41716  10.275   5.612  14.188 -0.2060  0.1054  0.0488
21437W        W41717   4.518   2.244   4.093  0.0795 -0.0270  0.0057
21438W        W41718   9.250   7.063  11.698  0.0906  0.0418 -0.2857
21439W        W41719  12.267   6.050   0.454 -0.1543 -0.0400 -0.0876
21440W        W41720   4.432  11.223   2.415 -0.2026 -0.0474 -0.1942
21441W        W41721  18.230  19.365   4.864  0.0356  0.0713 -0.0836
21442W        W41722   9.478   2.282  14.347 -0.2785 -0.1721 -0.1815
21443W        W41723  17.867   4.405   2.776  0.0317 -0.0899 -0.2117
21444W        W41724  18.477   4.961  12.188 -0.0004 -0.2610 -0.1167
21445W        W41725   0.864  14.170  10.821 -0.0413 -0.1584  0.0198
21446W        W41726  16.623  15.131  12.964  0.2086  0.0792  0.0272
21447W        W41727   9.831   2.318   4.166  0.2955  0.0754 -0.0268
21448W        W41728   5.470   3.580   3.782  0.1224 -0.1393  0.3436
21449W        W41729  12.958  11.667  14.306  0.0769  0.2774  0.0618
21450W        W41730   5.805   2.780  13.133 -0.1731  0.0162 -0.0722
21451W        W41731  14.972   9.427  10.355  0.0379  0.0425  0.1406
21452W        W41732  18.061  17.094  10.694  0.0181  0.1029  0.0890
21453W        W41733  17.318  18.384   2.756 -0.1035 -0.0145 -0.1331
21454W        W41734  18.621  15.981   3.338  0.0214 -0.0318  0.0906
21455W        W41735   8.444  18.631   2.121 -0.0721 -0.0304  0.0360
21456W        W41736  14.913  19.011  13.011 -0.0904 -0.4440 -0.0818
21457W        W41737   1.932   0.434   4.344  0.1764 -0.0564 -0.2412
21458W        W41738  12.361   2.191   2.073 -0.1212 -0.1707  0.0264
21459W        W41739  17.389   3.392   3.612  0.2442 -0.4025  0.1597
21460W        W41740   2.418  17.624  11.758  0.0495 -0.1850 -0.0487
21461W        W41741  16.019   1.607   3.350  0.2041  0.2212  0.0570
21462W        W41742   8.819   3.682   3.555 -0.3425 -0.3677 -0.0021
21463W        W41743   3.814  14.748   3.170 -0.0421 -0.1965  0.2471
21464W        W41744  12.232   7.564  12.073  0.0715 -0.5285 -0.1051
21465W        W41745   2.334   5.901  14.032  0.0520  0.0460 -0.1739
21466W        W41746   2.649  14.368  10.379 -0.0635 -0.1360 -0.1771
21467W        W41747   8.170   5.767  13.023 -0.0675  0.2945 -0.0889
21468W        W41748  18.080  17.679   3.098  0.1683  0.0065  0.0244
21469W        W41749  13.793   4.190   9.759 -0.0238 -0.2887 -0.0444
21470W        W41750   9.520   9.241  10.851 -0.1970  0.1939  0.0451
21471W        W41751   4.069   3.405  14.356  0.0037 -0.1612 -0.0350
21472W        W41752  11.341   8.783   4.607  0.0670  0.2478 -0.0848
21473W        W41753  18.712   3.235  14.416  0.0782  0.3484  0.2578
21474W        W41754  14.418  10.620   3.307 -0.0071 -0.1381 -0.1430
21475W        W41755   2.273  11.292   4.303 -0.0946 -0.1356 -0.2874
21476W        W41756   2.151  17.561   0.056 -0.1416 -0.0061 -0.0838
21477W        W41757   3.079  16.083  10.869  0.0269  0.0511  0.0126
21478W        W41758   8.786   3.767  11.112  0.2333 -0.0184  0.1023
21479W        W41759   8.630  12.878   0.416  0.2888 -0.2268 -0.0332
21480W        W41760  16.719  12.380   1.308  0.1175 -0.1595 -0.0732
21481W        W41761  13.263  19.090   3.406 -0.3332  0.2439 -0.0724
21482W        W41762  15.310  15.515   9.925  0.0465  0.1353  0.3420
21483W        W41763   4.276  19.212   3.503  0.0815 -0.0899 -0.0665
21484W        W41764   7.502   6.786   5.019  0.2356 -0.1560  0.0324
21485W        W41765  11.446  13.675   9.694 -0.1402  0.0026  0.1866
21486W        W41766   7.222   8.829   3.307  0.1526  0.2076  0.2466
21487W        W41767   9.821   4.375  13.670  0.1353 -0.0580  0.2467
21488W        W41768   7.572   9.559   1.017  0.0211  0.3686  0.0129
21489W        W41769   9.580   9.614  12.770  0.1389 -0.1291 -0.1172
21490W        W41770   7.913   3.737   3.141  0.0252  0.1809  0.2200
21491W        W41771  17.526  19.090   0.570 -0.5551 -0.0375 -0.1616
21492W        W41772   1.645  16.637   1.106  0.1486 -0.0012 -0.0090
21493W        W41773  10.018  16.524  11.253 -0.3992 -0.0114  0.5099
21494W        W41774   9.679  19.311   3.314 -0.2486 -0.0133 -0.1036
21495W        W41775   0.314  12.427   9.882 -0.0778  0.0038 -0.1173
21496W        W41776   1.505  14.766   3.313 -0.2489  0.0556 -0.0268
21497W        W41777   1.998  18.374   0.745  0.1081 -0.0124  0.1927
21498W        W41778   3.997  16.737  13.183  0.2795 -0.1445 -0.0144
21499W        W41779  12.360   9.776   2.802 -0.2761  0.3607  0.0100
21500W        W41780  12.404   7.974  11.409 -0.0359 -0.0133  0.1893
21501W        W41781  10.282  13.428  10.950  0.2635  0.0493 -0.1274
21502W        W41782   6.187  12.535   3.092 -0.0469 -0.1519  0.1462
21503W        W41783  11.235   6.778   4.121  0.0242 -0.0887 -0.1075
21504W        W41784   4.511  13.502   4.547  0.2144  0.2394  0.0745
21505W        W41785   5.967  10.528  12.723  0.1692  0.0511  0.0373
21506W        W41786   6.892   1.283  13.017 -0.3107 -0.0893  0.0753
21507W        W41787  14.458  13.764  14.092 -0.2605  0.1030 -0.1155
21508W        W41788  12.785   9.583  10.965 -0.1485  0.1084  0.0536
21509W        W41789   9.828  15.321   1.113 -0.0917 -0.4046  0.3120
21510W        W41790   0.076   1.245   3.667 -0.1139  0.0963 -0.2121
21511W        W41791   9.957   4.093  11.697  0.2086  0.2667 -0.1966
21512W        W41792   3.076  12.835  11.459 -0.1615  0.0173  0.0820
21513W        W41793   0.186   4.819   0.116  0.0468 -0.2061 -0.3594
21514W        W41794   5.788  17.976   1.231 -0.0638  0.1540  0.0770
21515W        W41795   2.267  15.066   1.728  0.1108  0.1353 -0.0799
21516W        W41796  15.055   4.124  11.060 -0.2248  0.0163  0.0374
21517W        W41797   2.598   1.453   2.688  0.0336 -0.0407  0.3924
21518W        W41798   3.399  18.881   0.490 -0.3313  0.0591  0.0917
21519W        W41799  18.243   0.098   0.034 -0.1880 -0.1671  0.2122
21520W        W41800  10.280  12.052  10.992 -0.0412 -0.0432 -0.0116
21521W        W41801   0.303   6.469  10.540  0.1810  0.0095 -0.0759
21522W        W41802  17.246  18.124   4.228  0.1142 -0.1947 -0.1278
21523W        W41803  19.269  17.094  11.756 -0.1922 -0.0278  0.0368
21524W        W41804   5.546   9.152   2.597 -0.2493 -0.0257  0.0777
21525W        W41805  14.733   0.033   0.477  0.0893  0.0509  0.0039
21526W        W41806  12.729  15.156  10.936 -0.0032  0.0465 -0.2125
21527W        W41807   3.550  12.909  11.373 -0.0739 -0.3188 -0.0262
21528W        W41808  17.073   9.000  14.469 -0.1138  0.0738  0.1598
21529W        W41809   5.715  18.302  10.635  0.0765  0.1035  0.1166
21530W        W41810   5.383  16.901  12.458  0.0163  0.1531  0.2343
21531W        W41811   4.590   3.265  12.150 -0.1986 -0.1606 -0.1718
21532W        W41812  18.108   7.163  13.482 -0.2392 -0.0491 -0.1253
21533W        W41813  16.948  16.147   1.421 -0.1323  0.1971  0.0417
21534W        W41814   3.997   0.656  12.632 -0.2955  0.1137  0.2329
21535W        W41815   9.709  13.026   0.970 -0.1004 -0.1225 -0.3012
21536W        W41816   2.902   2.829  12.221  0.0322  0.1069 -0.1077
21537W        W41817  19.229   2.466  14.497 -0.1663  0.0133  0.0146
21538W        W41818   2.117  17.007   0.183  0.2900  0.0949 -0.0626
21539W        W41819   3.438   9.619  12.495  0.4904  0.0161  0.0120
21540W        W41820   7.056  17.457  10.138  0.0971  0.1693  0.3190
21541W        W41821   9.544   4.066  10.741  0.2343 -0.2635  0.0780
21542W        W41822   6.994  13.618   3.622  0.1147 -0.0855 -0.0982
21543W        W41823   1.758   6.598  13.656 -0.4283 -0.1077  0.4327
21544W        W41824   4.403  19.013   0.539 -0.2430 -0.3738  0.1736
21545W        W41825  10.399   1.601   3.146 -0.0422 -0.0366  0.1090
21546W        W41826   0.157   3.263  10.582 -0.1842 -0.0564 -0.1405
21547W        W41827   6.780  10.193   0.718  0.1993  0.0387  0.0986
21548W        W41828  12.047  16.912  12.178  0.0173 -0.4129  0.2103
21549W        W41829   2.479   1.789  10.750  0.1923  0.0401 -0.1029
21550W        W41830   5.263  10.723   0.921 -0.0301 -0.1801 -0.5430
21551W        W41831  14.715   5.664  12.401 -0.1963 -0.7505 -0.1733
21552W        W41832   4.934  17.363  11.713 -0.0960  0.3121 -0.1899
21553W        W41833  18.479  11.760  12.276  0.2429  0.1529  0.1571
21554W        W41834  10.458  10.559   1.686  0.0090 -0.1045 -0.1188
21555W        W41835  13.824  16.861  11.801  0.0181  0.1331  0.1342
21556W        W41836  17.899   8.584  12.155  0.1330  0.2919 -0.0561
21557W        W41837   3.906  10.555   3.514  0.1589  0.2324  0.1372
21558W        W41838  10.906   5.183  11.431  0.0336 -0.0276 -0.0893
21559W        W41839  12.252   4.075   1.676 -0.1206  0.0315  0.0633
21560W        W41840   1.041  15.363   2.937 -0.1540  0.0383  0.0699
21561W        W41841   1.871  14.234  12.722  0.0984 -0.0199 -0.0182
21562W        W41842  13.525   8.182  12.120 -0.2069  0.0455  0.3347
21563W        W41843   3.197  10.078  12.571  0.2707 -0.3124 -0.0311
21564W        W41844  11.949  12.410  12.982  0.1099 -0.0345  0.2122
21565W        W41845  10.115   1.753   0.505 -0.2294  0.1073  0.1160
21566W        W41846   2.414   0.963  13.567 -0.4100  0.3441 -0.0488
21567W        W41847   8.581  19.237   4.221  0.0966 -0.0245  0.3909
21568W        W41848  17.805  16.966   2.052 -0.0310 -0.0165 -0.0098
21569W        W41849   6.689   4.289  10.107 -0.1866  0.1273  0.0918
21570W        W41850   5.738   1.482   3.823  0.0000  0.1349  0.1036
21571W        W41851  16.293   2.148   3.746  0.1826 -0.0882  0.0552
21572W        W41852   1.150  10.482  10.048  0.1406  0.2487  0.3201
21573W        W41853   4.763   5.681   3.131 -0.4744 -0.1686 -0.0634
21574W        W41854   4.054  13.894   2.333 -0.1680 -0.2513  0.3549
21575W        W41855   4.349   9.657   0.109 -0.1167  0.3137  0.3841
21576W        W41856  11.186   4.184   0.264  0.0472  0.2678  0.2625
21577W        W41857  15.409  10.205   0.003  0.0986 -0.0829 -0.5550
21578W        W41858  11.191   5.628   2.575  0.0799  0.1479  0.0684
21579W        W41859  16.871   0.830  11.724 -0.1597  0.1844 -0.1123
21580W        W41860   8.467   8.025   3.734 -0.0955  0.1960 -0.2412
21581W        W41861   4.294   3.055  14.033  0.0604 -0.0808  0.0751
21582W        W41862  16.001  16.262  13.935  0.1971 -0.1141  0.0933
21583W        W41863  13.329   1.684   0.136 -0.0085 -0.1687 -0.2641
21584W        W41864   7.740  15.151  14.303  0.1889  0.1653  0.2602
21585W        W41865   4.267   5.607   3.856 -0.0688 -0.2052 -0.1191
21586W        W41866   1.682  12.212   3.330 -0.0539 -0.2864  0.1119
21587W        W41867  11.484  11.470  11.632  0.1403 -0.2101 -0.0351
21588W        W41868  13.381  13.573   2.267  0.0254  0.1686 -0.2870
21589W        W41869  15.018  10.438  13.367  0.0268  0.1458 -0.0329
21590W        W41870   2.323   6.795  11.274  0.0704 -0.1937  0.1907
21591W        W41871  18.867   3.127  10.393 -0.1332  0.0906 -0.2069
21592W        W41872  12.843   9.386   3.338  0.0126 -0.0157  0.0171
21593W        W41873   3.810  18.431  11.370 -0.0674 -0.2040 -0.4337
21594W        W41874   4.182   5.625  14.180  0.0113  0.0455  0.0118
21595W        W41875  12.441  12.257   2.502 -0.0085  0.0296 -0.1200
21596W        W41876   1.312  10.274  10.917 -0.2605  0.3551  0.1408
21597W        W41877   5.383   7.003  14.333 -0.0057  0.3798 -0.0175
21598W        W41878   3.141   0.994   0.192  0.1778  0.1050  0.0978
21599W        W41879  13.458   0.567  12.000  0.3048  0.0812  0.3858
21600W        W41880  15.096   0.176  12.391 -0.0059  0.0296  0.1082
21601W        W41881  11.713  13.426  14.421 -0.2839  0.1177 -0.0739
21602W        W41882  11.781  10.318   0.090 -0.1729 -0.3621  0.1138
21603W        W41883   5.303  12.947  10.322  0.2471  0.3242 -0.0967
21604W        W41884  14.907   9.878  10.630 -0.2187  0.0735  0.3821
21605W        W41885  13.132   3.328  10.424 -0.0057 -0.1961  0.0355
21606W        W41886   6.740  14.194  14.231 -0.2701 -0.0475  0.1045
21607W        W41887  11.076   5.457  10.447 -0.0583 -0.3473  0.0802
21608W        W41888   7.652   4.561   1.602 -0.1989 -0.1081 -0.1105
21609W        W41889   7.175   3.396  12.524  0.2490 -0.0729 -0.1015
21610W        W41890  18.613  14.366   2.902 -0.3212  0.1173 -0.1818
21611W        W41891   9.778  12.553  10.138 -0.0471  0.0534  0.2543
21612W        W41892   1.342  18.585   2.020 -0.0084  0.1690 -0.0749
21613W        W41893   3.987  13.788   1.823  0.3365 -0.0307  0.1368
21614W        W41894  11.332  16.744   2.423 -0.0295  0.2715  0.1462
21615W        W41895   2.942  12.305   0.462  0.1547  0.2580 -0.2002
21616W        W41896  17.479   4.508   2.330  0.2503  0.3391 -0.4125
21617W        W41897  12.890   6.224  12.008  0.2855 -0.3843 -0.0594
21618W        W41898  15.811   7.138  11.605  0.0781  0.2411 -0.0306
21619W        W41899   0.247   5.362   0.194 -0.3536 -0.2533  0.0776
21620W        W41900  19.368   2.801  12.242  0.0674  0.0900  0.1453
21621W        W41901   4.917   8.785  14.124 -0.2619 -0.0008  0.0643
21622W        W41902  12.975  15.983  13.628  0.1044 -0.1104 -0.0875
21623W        W41903  12.341  15.139  12.365 -0.1442 -0.3155 -0.0053
21624W        W41904   0.825   2.802  11.527 -0.1257 -0.2096  0.1813
21625W        W41905   4.717  14.276  12.880 -0.0485  0.2022  0.0195
21626W        W41906   7.496   0.372   2.785 -0.2261  0.0673 -0.2349
21627W        W41907  11.706   1.803   2.733  0.0006  0.0068 -0.0773
21628W        W41908   9.541  15.724   2.378 -0.2516 -0.4597  0.0861
21629W        W41909   7.209  15.588   0.031  0.2703 -0.3797 -0.0069
21630W        W41910   9.678   5.588   2.178  0.0101  0.2993 -0.0862
21631W        W41911  17.685   5.949  11.842 -0.1871 -0.0866 -0.0232
21632W        W41912  13.763  17.784  13.630 -0.1759  0.0902 -0.4860
21633W        W41913   8.771   5.834   3.152  0.0628  0.0529 -0.1130
21634W        W41914  18.011   5.884   2.704  0.2004  0.0034  0.2265
21635W        W41915  18.037   2.917   0.346 -0.2439  0.0264  0.1702
21636W        W41916  17.517  16.600   4.018  0.1415 -0.0815 -0.2262
21637W        W41917  13.568  15.510   0.952  0.2089  0.2383 -0.0006
21638W        W41918   2.953   2.934   0.591 -0.1385 -0.0961 -0.0252
21639W        W41919  16.299   6.197  11.875  0.0827 -0.1317 -0.0607
21640W        W41920   3.943  14.838   1.265 -0.1223 -0.0179  0.0402
21641W        W41921   0.926  16.057   4.591 -0.1852  0.0920 -0.0581
21642W        W41922   3.533   2.477   3.163 -0.0186  0.1952 -0.0120
21643W        W41923   3.927   0.415   2.731 -0.1232  0.1062  0.3460
21644W        W41924   7.208  12.600   1.573  0.0403  0.2023 -0.1566
21645W        W41925   5.520   4.166   0.186 -0.1507 -0.0319 -0.2845
21646W        W41926  15.169   6.721   0.702  0.0902 -0.1981 -0.1679
21647W        W41927  14.436   8.762   3.915 -0.0242  0.1911 -0.0016
21648W        W41928   6.760   9.536  10.900 -0.2963 -0.4231 -0.2149
21649W        W41929  15.529   5.796   2.940  0.0171 -0.0377 -0.2642
21650W        W41930   6.162   7.077  13.935 -0.0447 -0.0547  0.1424
21651W        W41931  10.261   6.005  12.238  0.0124 -0.1266 -0.1791
21652W        W41932  15.106   6.635  11.557  0.0153  0.1013 -0.0807
21653W        W41933  10.073  14.906   2.655  0.0867  0.0258  0.1264
21654W        W41934   5.481   4.749  11.613  0.0042  0.1908  0.1079
21655W        W41935  11.343   5.805  14.081 -0.3379  0.0191 -0.0830
21656W        W41936   2.591   2.445  11.933  0.0318  0.1199  0.3119
21657W        W41937   4.324  18.692  12.373  0.2278  0.1246 -0.0477
21658W        W41938  17.637   9.535   1.813  0.0005 -0.3821  0.0450
21659W        W41939  16.422  16.837   0.696 -0.2286  0.4026  0.1179
21660W        W41940   5.922   4.881   1.238 -0.2768  0.0545 -0.1019
21661W        W41941  14.241  12.439   5.040 -0.2203 -0.1395 -0.1456
21662W        W41942   0.146  12.637   2.797 -0.0973  0.0511  0.2990
21663W        W41943  18.030  12.032  14.295  0.1048 -0.2153  0.2543
21664W        W41944   4.764   3.832  13.438  0.1168  0.0362 -0.1297
21665W        W41945   3.266  18.710   1.445  0.0000  0.0089 -0.0037
21666W        W41946   4.659   5.166   2.999  0.1888  0.3186  0.2995
21667W        W41947   9.982  17.410  10.944  0.1637  0.3064 -0.0685
21668W        W41948  14.641   4.606   2.884  0.2930 -0.3704  0.1750
21669W        W41949   5.245   4.369  10.665 -0.0399 -0.2247  0.3238
21670W        W41950  15.974   0.398  13.489  0.2290 -0.0621 -0.2312
21671W        W41951  10.272  11.579   2.674 -0.2432  0.0628 -0.3430
21672W        W41952   1.794   7.423  12.642  0.0709  0.0786 -0.0418
21673W        W41953  11.787   6.605   1.631  0.1797 -0.0506  0.1175
21674W        W41954  18.207   6.298   0.851  0.1663 -0.1411 -0.4170
21675W        W41955  12.572  16.316  14.229  0.0302  0.0052  0.3638
21676W        W41956   4.376   7.448   1.661 -0.3073  0.0960  0.0531
21677W        W41957  14.544  18.320   0.724 -0.0267  0.0415 -0.0253
21678W        W41958  15.048  11.039  12.585 -0.1266  0.2140  0.1068
21679W        W41959   1.506  15.945  14.263  0.2047 -0.2142  0.2587
21680W        W41960   8.416  13.806  10.890 -0.0137  0.0032  0.0345
21681W        W41961   4.198  12.102   0.523 -0.0057 -0.2011 -0.0058
21682W        W41962   0.002   8.412  11.036  0.1750 -0.1375  0.3601
21683W        W41963   3.924  14.453  13.434 -0.0670  0.0744 -0.1160
21684W        W41964   3.124   8.517   1.136  0.1556 -0.1702  0.0537
21685W        W41965  14.730   8.394   1.162  0.3114 -0.1232  0.0707
21686W        W41966   2.203   0.902  12.201  0.1498 -0.2076  0.0907
21687W        W41967  11.027  16.395  13.255 -0.0136  0.3336  0.0252
21688W        W41968   9.360  17.089  11.699  0.0597  0.0584  0.1534
21689W        W41969   8.441   4.842   2.912  0.4918  0.0865 -0.0256
21690W        W41970   9.902  19.402  11.838 -0.1092 -0.2245  0.0590
21691W        W41971   8.800  13.577   2.975  0.2590 -0.0494 -0.2234
21692W        W41972   3.805  19.051  14.160  0.0276 -0.0636 -0.3053
21693W        W41973   8.017   2.591   1.116 -0.1175  0.0292 -0.0259
21694W        W41974   2.591  12.846  14.197 -0.2014 -0.1458 -0.4309
21695W        W41975  14.562   7.196  11.703  0.2971 -0.0204  0.2708
21696W        W41976   8.169  10.614  11.074 -0.0805 -0.0673 -0.4304
21697W        W41977   0.343   9.383  11.407  0.0225  0.3029 -0.0978
21698W        W41978   0.632   4.094   3.995  0.2134 -0.0781 -0.1049
21699W        W41979   0.465   4.947  12.886 -0.2702  0.3012  0.1724
21700W        W41980   3.348   0.706  12.040  0.0431  0.1105 -0.0019
21701W        W41981  15.434   6.828  13.524  0.1793  0.4266 -0.0845
21702W        W41982   0.302   5.843  13.459  0.0116 -0.0795  0.1520
21703W        W41983   7.003  13.441   1.894  0.1394  0.0654 -0.1547
21704W        W41984  14.037  19.047   0.594 -0.0065 -0.0957  0.6147
21705W        W41985   9.998   0.272   3.575 -0.1082 -0.0598 -0.1799
21706W        W41986  11.886   8.816  11.327  0.0015  0.2563 -0.5030
21707W        W41987   2.545   6.644   0.401 -0.2472 -0.0290  0.2216
21708W        W41988   4.498   7.450   0.887  0.1634 -0.1927 -0.1691
21709W        W41989  14.673   5.528   4.343  0.0659  0.1301  0.0644
21710W        W41990   7.277   8.059  10.365  0.1490 -0.0958 -0.0830
21711W        W41991  10.703  15.507   1.534 -0.0113  0.0378  0.0496
21712W        W41992   0.263  13.709   3.630 -0.1670  0.0030  0.0982
21713W        W41993  10.986  18.214  14.012 -0.0142 -0.0300 -0.0467
21714W        W41994  10.184   5.451  10.050  0.0310 -0.0097  0.1300
21715W        W41995  17.161  13.665  11.043 -0.0554  0.0239 -0.0697
21716W        W41996  14.536   0.363   4.471 -0.2250 -0.0734  0.0609
21717W        W41997  11.617  12.395   3.189 -0.0902 -0.2056 -0.0011
21718W        W41998  15.831  17.008  13.283  0.2610 -0.1858 -0.1199
21719W        W41999   6.414   5.378  12.540 -0.0798  0.0455  0.1215
21720W        W42000   4.147   4.214   3.702 -0.0893  0.2009  0.0583
21721W        W42001  16.066  18.357  10.978 -0.0869  0.3087  0.0661
21722W        W42002   0.458   5.054  14.251  0.2976  0.0828  0.1003
21723W        W42003  18.925   0.912  14.421  0.2897 -0.1083 -0.3804
21724W        W42004  17.297   7.692  13.314  0.1098 -0.0374 -0.1295
21725W        W42005   0.400  16.616   3.394  0.3224 -0.0195 -0.3554
21726W        W42006   6.936  11.250   2.830  0.0759  0.1016  0.0294
21727W        W42007  13.317   6.980   2.709  0.3639 -0.0988 -0.1367
21728W        W42008   1.848  13.775   1.611 -0.1622 -0.2490  0.1718
21729W        W42009   9.777   5.885   3.067 -0.3474  0.2786  0.0090
21730W        W42010  14.661   7.183   1.485 -0.0591  0.3783  0.2656
21731W        W42011  11.304  19.083  14.442 -0.2681  0.1021 -0.0162
21732W        W42012   9.559   4.859  14.466  0.0499 -0.1107  0.1882
21733W        W42013   3.506   0.670   0.393  0.1522 -0.1179 -0.0303
21734W        W42014  15.428   6.322  13.386  0.2519  0.1284  0.2220
21735W        W42015  18.108  12.239   2.152  0.6648  0.2111  0.0305
21736W        W42016   7.033  10.615   0.529  0.0271  0.0070 -0.3622
21737W        W42017  19.398  12.701  12.330 -0.2057  0.0394 -0.0166
21738W        W42018  15.181   4.782   0.252 -0.1571  0.2670  0.1105
21739W        W42019   1.981  14.126  10.477 -0.2437  0.2226  0.0957
21740W        W42020   9.327   2.464  11.975 -0.1408 -0.2338  0.1866
21741W        W42021  14.846  15.619   2.112 -0.0790 -0.1125 -0.0367
21742W        W42022  16.320   3.842  12.563  0.1502  0.1146  0.0916
21743W        W42023  13.537   0.541   0.076  0.0560  0.1198  0.1136
21744W        W42024  14.857  16.776  11.989  0.1818 -0.2663  0.0916
21745W        W42025   0.256  17.614   4.946  0.0121  0.0896 -0.0855
21746W        W42026   5.524   5.079  13.694  0.0500 -0.1385  0.0228
21747W        W42027  14.481  14.771   3.616 -0.0051 -0.1543 -0.0237
21748W        W42028  18.762  15.924  12.409 -0.1021  0.1553  0.0431
21749W        W42029   3.410   3.577   1.127 -0.2882 -0.1258  0.2112
21750W        W42030   7.205   1.153   1.812 -0.2968 -0.0432 -0.0341
21751W        W42031   4.969   4.971  13.447  0.0542 -0.1479  0.0209
21752W        W42032  18.557  12.311  14.351 -0.0158 -0.1426  0.0484
21753W        W42033  16.276  15.023   0.994  0.0399 -0.1298  0.0391
21754W        W42034   9.468  11.897   0.735  0.2529  0.2135 -0.1937
21755W        W42035  16.399   3.139   9.368  0.1618 -0.0549  0.0891
21756W        W42036  19.363   5.781  11.933  0.1193  0.2495  0.0086
21757W        W42037  10.022  12.341   3.803  0.4411 -0.3103 -0.0808
21758W        W42038   8.192  16.976  13.299  0.0607  0.1313  0.2800
21759W        W42039   2.312  13.429  13.257  0.0384  0.1493 -0.2093
21760W        W42040  18.259  14.906   4.995 -0.5073  0.0976 -0.1953
21761W        W42041  16.310   2.226  12.603  0.0990  0.0464 -0.1123
21762W        W42042  11.133   5.412  14.319  0.0332 -0.1439 -0.0022
21763W        W42043  11.929  15.686   3.295  0.0151  0.1215  0.1723
21764W        W42044  18.656  18.092   0.151 -0.2667  0.2168 -0.0428
21765W        W42045  13.572  11.508  10.983  0.2069 -0.1740  0.0112
21766W        W42046  15.123   4.356   4.058 -0.0385 -0.1723  0.5905
21767W        W42047  10.956   1.799   3.798  0.0322  0.1501 -0.3423
21768W        W42048   4.685  13.383  14.169  0.3727 -0.0863  0.0341
21769W        W42049   5.217   9.175  13.726 -0.2939  0.0423 -0.1197
21770W        W42050   7.696   9.566  12.843 -0.1322 -0.3947  0.0027
21771W        W42051   9.977  19.081  13.635 -0.2185  0.1032 -0.0602
21772W        W42052   0.394  13.428   0.546  0.1044 -0.0005  0.2066
21773W        W42053  17.128  18.930  11.921  0.0246  0.1571  0.0856
21774W        W42054   1.165  17.109   1.737  0.1429  0.0614 -0.4432
21775W        W42055   2.783   4.418  10.792 -0.1308 -0.1861  0.1691
21776W        W42056  17.934  14.946   3.226  0.2329  0.1808 -0.1425
21777W        W42057  12.738   2.928   2.466 -0.0367 -0.2139 -0.0286
21778W        W42058   8.686  14.305   2.715  0.0394 -0.3006 -0.0602
21779W        W42059   9.618  16.804   3.851 -0.0610 -0.0261  0.0022
21780W        W42060   5.220   2.305  14.152 -0.0827 -0.2108  0.0789
21781W        W42061  13.315   1.453   1.314  0.0333  0.1782 -0.2976
21782W        W42062   1.315  10.468   0.949  0.0795 -0.0622 -0.0107
21783W        W42063  14.418   2.038  14.048 -0.0903 -0.0224  0.1225
21784W        W42064   9.602   8.384  14.208 -0.2146 -0.0258  0.1255
21785W        W42065   1.033  14.515   3.465  0.1289  0.0746 -0.3081
21786W        W42066  19.356   7.870   2.719 -0.0809 -0.1816  0.1811
21787W        W42067  10.713  13.746   3.122  0.0152 -0.4243 -0.0448
21788W        W42068  11.250   9.584  12.406 -0.2817 -0.2744 -0.0635
21789W        W42069  12.690  16.997   1.631 -0.2564 -0.0548  0.1551
21790W        W42070  19.040  15.128  13.755 -0.0830  0.1238  0.2249
21791W        W42071   0.627   4.810   3.084 -0.0551 -0.3698  0.3034
21792W        W42072  15.214   2.668   3.930 -0.1969  0.0119  0.0543
21793W        W42073   8.211   1.260  13.819  0.1629  0.0677  0.0004
21794W        W42074  14.947  18.775  14.185 -0.1495  0.1273  0.2208
21795W        W42075   2.547  11.832   3.340 -0.1052 -0.0532 -0.2664
21796W        W42076   9.186  17.887  11.531 -0.0470 -0.0135  0.1810
21797W        W42077  11.762  17.610  14.249 -0.1569  0.2242  0.0486
21798W        W42078  17.845   1.309  12.898 -0.2815 -0.0980  0.0056
21799W        W42079  17.420   3.896  13.800  0.3836 -0.0760  0.0995
21800W        W42080  13.810   8.646  10.811 -0.0770 -0.2696  0.1379
21801W        W42081   9.369  16.831   4.682 -0.0146 -0.0688  0.0834
21802W        W42082  15.112  11.050   3.078  0.0869 -0.1814  0.0460
21803W        W42083  15.917  13.180  14.005 -0.1993  0.3215  0.1550
21804W        W42084  18.748   5.870   0.283  0.2591  0.0158  0.2640
21805W        W42085   0.182   6.160  13.851  0.0615 -0.1219 -0.0119
21806W        W42086  18.674  16.940   5.245  0.2704 -0.1526  0.0751
21807W        W42087   9.107   2.855   4.145 -0.1460  0.0521 -0.1333
21808W        W42088  11.593   3.805   4.387 -0.2651 -0.0271 -0.0157
21809W        W42089  11.566  14.373   3.268  0.1966  0.1238  0.1328
21810W        W42090  18.859  16.202   2.538 -0.1006 -0.1552  0.0566
21811W        W42091  12.508  15.056   4.009  0.0884  0.0012  0.1714
21812W        W42092  11.511  12.978   2.365  0.2946 -0.0039  0.1830
21813W        W42093   5.755  15.615  12.963  0.2034 -0.0624  0.0452
21814W        W42094   4.634   5.196  12.039  0.0752 -0.0760 -0.2372
21815W        W42095   4.535  12.430   3.564 -0.0675 -0.1150 -0.1438
21816W        W42096   9.761  11.513   2.368 -0.2979 -0.0223  0.0730
21817W        W42097   9.843   8.727   3.603  0.1130  0.6251 -0.2313
21818W        W42098  13.939   5.396   2.988 -0.2891  0.0106  0.1549
21819W        W42099   3.010  10.255   2.293 -0.0924 -0.2490 -0.3131
21820W        W42100   0.946   7.417   3.196  0.0470  0.0026  0.0744
21821W        W42101  10.286  16.179  12.572 -0.0694 -0.0437  0.3177
21822W        W42102   5.288  18.915  13.012 -0.4300  0.2046 -0.0004
21823W        W42103  13.470   0.477   1.319 -0.1033  0.2002  0.0791
21824W        W42104  10.425  11.387  14.438 -0.2381  0.0620 -0.3948
21825W        W42105   7.579  11.135   4.559  0.1532 -0.0979  0.2082
21826W        W42106   9.912  12.456  11.889 -0.0692  0.2525 -0.1164
21827W        W42107  15.496   6.041   1.821 -0.2842  0.0681  0.0847
21828W        W42108   3.780   9.686   0.184  0.4253 -0.2945 -0.0055
21829W        W42109   1.523   5.491  13.823  0.0326  0.0708 -0.2288
21830W        W42110  15.358  13.003  12.644 -0.1090  0.2272  0.0632
21831W        W42111   3.104   1.224  12.536 -0.1603  0.1672  0.0639
21832W        W42112  17.048  12.167  12.678 -0.1567 -0.1311  0.1655
21833W        W42113  13.073   2.980   3.935 -0.1239 -0.1234 -0.2194
21834W        W42114   6.572   0.913  13.975 -0.1136 -0.1262 -0.2642
21835W        W42115   3.171  13.827   3.297 -0.0724 -0.0404 -0.3336
21836W        W42116   7.361   7.085  10.137 -0.0844  0.2753 -0.2351
21837W        W42117   4.101   7.836   1.650 -0.1857 -0.2735 -0.0432
21838W        W42118   2.017  12.488  11.373 -0.0326 -0.0510  0.0440
21839W        W42119  14.243   3.575   3.569  0.1241  0.1316 -0.3721
21840W        W42120   8.590  12.945  10.395 -0.0484 -0.3650  0.1993
21841W        W42121  16.547  18.422  13.640  0.1183  0.0150  0.0202
21842W        W42122  17.493  15.865  12.160 -0.2925  0.2208 -0.1840
21843W        W42123   3.300   4.603  11.947  0.0082  0.1503 -0.1628
21844W        W42124   4.833   2.855   2.830 -0.2249  0.1600  0.0503
21845W        W42125  17.963   0.106   2.211  0.1521  0.0696 -0.0705
21846W        W42126  13.018  18.897  10.677  0.2813 -0.2652 -0.0555
21847W        W42127  15.860   0.550  12.011  0.3176 -0.0436  0.3277
21848W        W42128   8.576   7.182  13.886 -0.0590  0.0393  0.0325
21849W        W42129   9.552   3.612  12.638  0.1261  0.5599  0.0220
21850W        W42130  17.913   1.258   1.989  0.0561 -0.0349  0.1033
21851W        W42131  15.052   5.211  13.405  0.3611  0.0084 -0.3672
21852W        W42132   9.937   1.507  12.245 -0.2510 -0.0107 -0.3834
21853W        W42133   3.411   5.868   1.839 -0.1133 -0.2819 -0.1852
21854W        W42134  18.186  11.933   3.491 -0.0717 -0.3883 -0.1065
21855W        W42135   3.791  19.302   3.640  0.1439 -0.1708  0.0621
21856W        W42136  13.633   9.182  12.958 -0.2746 -0.0645  0.0204
21857W        W42137   0.018   6.044  14.301 -0.0979 -0.1397 -0.3939
21858W        W42138   7.781   8.029  12.694 -0.2229  0.2434  0.1268
21859W        W42139   4.319   0.226   0.459 -0.0536 -0.0694  0.0722
21860W        W42140   3.046   5.427   2.507 -0.2761  0.1499 -0.2697
21861W        W42141  10.746   3.723  13.496 -0.0328 -0.1550 -0.3033
21862W        W42142   2.315  12.256  13.089  0.1491 -0.2039  0.2205
21863W        W42143   3.338   0.396  10.702  0.1252  0.0692  0.0524
21864W        W42144   2.835   0.981   2.756  0.0671 -0.0073 -0.0232
21865W        W42145   6.900   7.782   4.870  0.1037  0.0350 -0.2487
21866W        W42146   0.804   7.841   1.876  0.0468 -0.1798  0.2493
21867W        W42147  17.256  15.132   3.162  0.0797 -0.1165 -0.0457
21868W        W42148  12.797  10.230  14.268 -0.0916 -0.3588  0.0372
21869W        W42149   2.180  12.024  11.601  0.1917  0.0534 -0.2007
21870W        W42150  17.658  16.159  12.606 -0.0836 -0.0500 -0.0296
21871W        W42151   7.982  18.774   1.346  0.3923 -0.0814 -0.0916
21872W        W42152  14.751  14.054   2.266  0.3171 -0.1378  0.0350
21873W        W42153   5.433   5.952  14.044  0.0268  0.0219  0.1077
21874W        W42154  11.951  14.107   3.507 -0.0787  0.0314 -0.0162
21875W        W42155   9.437  17.977  12.084  0.2287 -0.0175  0.0220
21876W        W42156   6.124   6.320   0.989  0.0093  0.1650 -0.3047
21877W        W42157  17.392   0.461   1.051 -0.1345 -0.1907 -0.0805
21878W        W42158  12.655  15.594   1.160  0.1458 -0.1812 -0.3043
21879W        W42159   6.194   4.029   3.595  0.0245 -0.0662  0.1674
21880W        W42160   8.969   9.898  13.413 -0.0467  0.2121 -0.3137
21881W        W42161  15.623  17.918   3.436  0.0016 -0.4529  0.1884
21882W        W42162  12.762  17.935  14.177  0.0936  0.1474  0.0632
21883W        W42163  17.467   9.657  13.090  0.2598  0.0094 -0.3504
21884W        W42164   5.500  15.046   2.744 -0.0802 -0.2896 -0.1134
21885W        W42165   8.168  19.229   1.421 -0.1110  0.0784  0.0486
21886W        W42166  18.514   4.757  14.021  0.1377  0.0493  0.1090
21887W        W42167  14.305  11.042   3.056 -0.0327  0.3037 -0.0515
21888W        W42168   2.492   9.006  13.779 -0.1434  0.0093  0.2731
21889W        W42169  19.015  15.454  12.466  0.4184  0.0126  0.2195
21890W        W42170   6.947   1.471   2.388  0.0320 -0.0012 -0.2184
21891W        W42171   1.942  14.496   0.469  0.2029  0.3594  0.3800
21892W        W42172   1.106  17.464   4.093  0.2272 -0.0927  0.0297
21893W        W42173   8.559   1.375   4.736 -0.0034  0.0040 -0.1327
21894W        W42174  18.244   0.564  13.276 -0.3527 -0.3287  0.1033
21895W        W42175   2.696   5.906   3.924 -0.0138 -0.0472 -0.0110
21896W        W42176   2.224  14.892   9.255  0.0393  0.1158  0.2753
21897W        W42177  12.540   9.703   3.604 -0.3026  0.0614 -0.1424
21898W        W42178  12.174  15.301  11.328  0.0116  0.1351  0.0827
21899W        W42179   6.161  11.923   3.190  0.2100  0.1782  0.0042
21900W        W42180   3.580  10.976   1.543 -0.0227  0.3793 -0.4802
21901W        W42181  10.194  14.888   3.545  0.0973  0.0431 -0.0032
21902W        W42182  16.715   9.342   9.835  0.2317  0.0316 -0.0031
21903W        W42183  17.800  13.978  13.395 -0.1127  0.0125 -0.3086
21904W        W42184  14.338   9.143   1.823  0.0223  0.0240  0.2483
21905W        W42185   0.459   0.613   1.755 -0.0173 -0.4610 -0.0339
21906W        W42186  18.532   4.474  12.157 -0.2048 -0.3949 -0.2914
21907W        W42187  11.067  12.981   2.725  0.1514 -0.0367  0.0434
21908W        W42188  15.215   5.510  14.213 -0.0124 -0.5643  0.0037
21909W        W42189  17.685  18.179   0.056 -0.0166 -0.1129 -0.0895
21910W        W42190   3.092  18.854  12.102 -0.1387  0.0737  0.0971
21911W        W42191  10.440  17.086   3.508  0.1633  0.2648 -0.1005
21912W        W42192  14.094   3.846   0.330 -0.0776 -0.2570  0.2127
21913W        W42193   2.474   4.035   2.176 -0.0363 -0.0238  0.0718
21914W        W42194   6.167   5.662  13.505  0.2328  0.2558 -0.2489
21915W        W42195   3.318  10.013  11.004 -0.1262  0.2657  0.1986
21916W        W42196   2.080  13.729   9.951 -0.3986  0.0329  0.0227
21917W        W42197  10.065   8.034  11.612 -0.0231  0.3594 -0.0705
21918W        W42198   8.496  10.276   2.994 -0.1316 -0.2434  0.1610
21919W        W42199  13.707   8.364  13.383  0.1188  0.1657  0.0383
21920W        W42200   3.908   6.101   0.067  0.2005 -0.1306 -0.1722
21921W        W42201   4.917   0.658  10.954  0.0973  0.0104 -0.1722
21922W        W42202   1.654   6.160  11.166 -0.2303 -0.4712  0.0341
21923W        W42203  17.725   3.332  14.055  0.3779 -0.0133 -0.0750
21924W        W42204   8.121  11.924  10.830  0.0105 -0.0246  0.2840
21925W        W42205   4.207   0.442   2.286  0.2242 -0.1265 -0.0285
21926W        W42206   8.352   2.650  12.534 -0.0213  0.0630  0.0857
21927W        W42207  12.221   0.931  11.312  0.0804  0.1326  0.0577
21928W        W42208   9.433  14.155   1.917 -0.1001 -0.0647  0.0445
21929W        W42209   1.408   8.046   3.806  0.1872 -0.1886  0.1083
21930W        W42210   7.736  12.469  12.045  0.0983  0.3635  0.2288
21931W        W42211  14.115  16.240  11.160  0.0895  0.1739  0.1561
21932W        W42212  14.155   2.502  12.132  0.0612  0.1077 -0.0393
21933W        W42213   6.777  17.819   2.965 -0.0143  0.1930  0.4052
21934W        W42214   8.998   7.126  13.611  0.1432 -0.0540  0.2623
21935W        W42215  15.315   5.038  11.539  0.0506 -0.0537 -0.0146
21936W        W42216   0.877  17.532  13.560  0.0619 -0.0798  0.0870
21937W        W42217  14.757   2.032  10.903 -0.1227  0.2057  0.0482
21938W        W42218  14.889  19.384   1.214 -0.1857  0.0590  0.2443
21939W        W42219  16.802   8.562   2.055  0.0123  0.2689  0.0130
21940W        W42220  16.092   6.807   3.487  0.0022 -0.0195 -0.4568
21941W        W42221   9.401  14.066   2.464  0.2553  0.0585  0.1231
21942W        W42222  15.714   4.008   2.138  0.0490  0.1649  0.1054
21943W        W42223   4.287   4.489   2.599 -0.0194  0.0648  0.1785
21944W        W42224  17.158  17.479  11.678  0.0966 -0.0726 -0.0957
21945W        W42225  15.465   0.201  13.271  0.0601  0.0157  0.2643
21946W        W42226   0.741  12.493   2.067  0.0576  0.0117 -0.1666
21947W        W42227   9.903   7.788  13.465  0.0471 -0.2581 -0.3041
21948W        W42228  13.940   6.143  12.320 -0.1473 -0.2193  0.2701
21949W        W42229  11.442  18.001   3.161 -0.2590 -0.2591 -0.0435
21950W        W42230  16.179  12.655  13.178 -0.3790 -0.1006  0.0115
21951W        W42231  10.193   2.473   1.968  0.0162  0.0487  0.0950
21952W        W42232   1.217  19.215   1.698 -0.2367 -0.0489 -0.1610
21953W        W42233   1.747   7.482  12.157 -0.1466 -0.2834  0.4214
21954W        W42234  16.324   8.477  11.289 -0.1527  0.0613  0.0284
21955W        W42235   7.457   4.145   1.398  0.0744 -0.1102 -0.2111
21956W        W42236  16.893  11.665   1.849  0.0897 -0.1135 -0.1540
21957W        W42237   5.228   7.893  12.615 -0.1069  0.1164  0.3129
21958W        W42238   3.829  12.208  10.575 -0.0056  0.1855  0.1567
21959W        W42239  18.997   1.842   1.778  0.2404 -0.0367  0.2619
21960W        W42240   0.965   3.905   2.099 -0.0542  0.0238  0.0607
21961W        W42241   8.423  16.953   0.098  0.0013 -0.1075  0.1332
21962W        W42242  16.337   8.035  13.146  0.0343  0.1626  0.0567
21963W        W42243   7.091   7.439   2.789  0.3055  0.2887 -0.2213
21964W        W42244   3.823   8.713   1.609 -0.4279 -0.0621  0.0235
21965W        W42245  12.396  16.080   2.932 -0.0797 -0.2184  0.1144
21966W        W42246  14.023  16.198   3.686  0.1980 -0.0067  0.0210
21967W        W42247  17.775   8.384  13.970 -0.2376  0.0265  0.2510
21968W        W42248  17.536   5.229   0.412  0.1744 -0.2007 -0.3261
21969W        W42249  16.623   6.987  13.567  0.3003  0.1309 -0.0469
21970W        W42250  14.616   2.019   0.103  0.1184 -0.0448  0.2385
21971W        W42251   3.175  14.420  10.519  0.3020  0.1200 -0.5012
21972W        W42252  16.775   0.740   2.725  0.2275  0.3575  0.1203
21973W        W42253  12.704  15.215  11.428  0.0828 -0.2691 -0.0481
21974W        W42254   2.209   9.383   3.420  0.0437  0.1353  0.3501
21975W        W42255   1.048  17.343  10.581 -0.2239 -0.1300  0.1702
21976W        W42256   0.841   8.626  14.450  0.0813 -0.0370 -0.0542
21977W        W42257  10.679  16.392  14.241 -0.0179  0.1475 -0.2054
21978W        W42258  18.586   1.708  12.658  0.2679 -0.1585 -0.0804
21979W        W42259   5.873   5.025   3.620 -0.0896 -0.5753 -0.1754
21980W        W42260   5.235  17.828   4.353 -0.1767  0.0038  0.0513
21981W        W42261   9.752  13.582   1.874 -0.0973  0.3430 -0.1560
21982W        W42262   6.257  14.507  11.739 -0.0648  0.0050 -0.0873
21983W        W42263  12.576   0.775   2.424  0.3242 -0.2063 -0.2017
21984W        W42264  18.452   7.364   1.948 -0.2764 -0.1430  0.2873
21985W        W42265  18.010  13.514  14.176 -0.0495 -0.2594 -0.2253
21986W        W42266  12.275  19.028  10.857 -0.3099 -0.2389  0.0564
21987W        W42267  17.347  18.607   0.457  0.2141  0.0434  0.1849
21988W        W42268   3.340   7.761  13.644  0.1272 -0.0630  0.1731
21989W        W42269   5.573  11.731  13.677 -0.2511  0.1689  0.1984
21990W        W42270  13.291   5.555  14.470  0.0978  0.0207  0.0229
21991W        W42271   3.286   5.753  11.971  0.0179 -0.1785  0.0280
21992W        W42272  12.480  18.943  11.277 -0.1064 -0.0119  0.0545
21993W        W42273  16.827  10.311  11.775  0.2381  0.2063 -0.1885
21994W        W42274   5.784   8.732  14.498  0.2678  0.0613 -0.1813
21995W        W42275   4.305   8.694   3.699 -0.0060 -0.0298 -0.0079
21996W        W42276   3.740  18.720   1.670 -0.3004  0.0454 -0.0085
21997W        W42277   3.816   7.263  11.080  0.0130  0.2556  0.3547
21998W        W42278  17.341   4.972   2.428  0.0192 -0.1164  0.0070
21999W        W42279  10.899  13.520   3.990 -0.2370  0.1950 -0.1198
22000W        W42280  14.509   8.583  14.119 -0.2848  0.0384  0.0357
22001W        W42281  13.699   8.511   2.566  0.2200 -0.3839 -0.2577
22002W        W42282  17.883   0.573  12.424 -0.0684  0.5211 -0.0390
22003W        W42283   6.226  16.815  11.956 -0.2290 -0.0039 -0.1637
22004W        W42284   0.146  16.575   2.876 -0.0007 -0.0083 -0.0524
22005W        W42285  18.766  16.516  14.182 -0.1034  0.1642  0.1643
22006W        W42286  16.453  12.635  10.995  0.2791  0.3230 -0.1155
22007W        W42287  14.820   3.262   0.253  0.0766 -0.0264  0.2006
22008W        W42288  15.944  12.080  10.676  0.1985  0.0315 -0.0167
22009W        W42289   2.699  13.428   3.539 -0.4974  0.0109  0.0528
22010W        W42290  15.949  19.033   0.655 -0.0184  0.1548  0.2876
22011W        W42291  12.270   5.317  11.869  0.0061  0.1557 -0.0230
22012W        W42292  15.989  19.322   1.089 -0.0436 -0.0188 -0.0939
22013W        W42293  12.087   0.920   2.403 -0.1194  0.0855  0.0728
22014W        W42294   0.132   6.251   1.720 -0.1247  0.0069  0.1016
22015W        W42295  18.547  15.575  11.396 -0.4927 -0.0783  0.1319
22016W        W42296  14.578  12.487   9.815  0.3041 -0.0637 -0.1810
22017W        W42297  11.132  12.716  12.839  0.1115  0.2631  0.0742
22018W        W42298  15.898  11.273  11.878 -0.0503  0.2436 -0.0090
22019W        W42299   8.307   1.362  11.772 -0.0661 -0.0287 -0.0226
22020W        W42300  15.964   5.786   1.611  0.0421  0.0932  0.1483
22021W        W42301   8.783   5.794  11.182 -0.2295  0.0155  0.2168
22022W        W42302  18.054   0.744   1.717 -0.1777 -0.0474  0.0201
22023W        W42303   2.145  12.315  12.080  0.1236 -0.1375 -0.0673
22024W        W42304  15.193   9.844   0.727  0.4974 -0.1876  0.3568
22025W        W42305  12.406  18.214  13.539 -0.0512 -0.1184  0.2180
22026W        W42306  17.147   0.405  14.018  0.0403 -0.0161  0.1063
22027W        W42307   4.805  10.579  10.180 -0.0868  0.0001  0.2709
22028W        W42308  14.992  12.580   3.045 -0.1327  0.1743 -0.0980
22029W        W42309  11.441  16.777   4.063 -0.1234  0.3241  0.0634
22030W        W42310  17.910  13.712   0.278 -0.0813  0.5391  0.0836
22031W        W42311   4.075  15.027   2.384 -0.1687 -0.1930  0.1457
22032W        W42312   3.387  14.609   2.963  0.1070 -0.2196 -0.2431
22033W        W42313   3.682  14.913   2.678  0.0605 -0.3320 -0.3056
22034W        W42314  16.549   5.116   1.583  0.0026 -0.0228  0.3101
22035W        W42315   1.654  10.589  12.660  0.0472 -0.0968  0.2766
22036W        W42316   5.709   4.010   3.626  0.0530 -0.0036 -0.0150
22037W        W42317  14.717  15.518   2.940 -0.0650  0.4307  0.0877
22038W        W42318  16.427   0.460   1.480  0.1365 -0.0242  0.1560
22039W        W42319   3.658  10.429   2.829  0.0570 -0.1096  0.1608
22040W        W42320  13.319  19.235  12.719  0.0082  0.1623  0.0738
22041W        W42321   0.413   0.456  11.892  0.1068  0.1270 -0.0751
22042W        W42322  17.653   7.172  12.497  0.0310 -0.2106 -0.3144
22043W        W42323  11.665   7.947   0.193 -0.0743  0.1661 -0.3265
22044W        W42324  14.207  12.249   2.565 -0.0479 -0.0724  0.0788
22045W        W42325  19.311  17.127   1.836 -0.1113 -0.1894  0.0519
22046W        W42326   7.306   1.680  11.817  0.1490 -0.2148 -0.3684
22047W        W42327  14.352  10.452  11.833  0.0489  0.0149  0.2787
22048W        W42328  18.674  18.820   2.148 -0.0442 -0.0324  0.0276
22049W        W42329   1.542   8.851   0.321 -0.3613 -0.0701 -0.3018
22050W        W42330   9.988  10.043   3.407  0.4546 -0.0256  0.2952
22051W        W42331  18.116  13.182   3.724 -0.1424  0.0880 -0.0187
22052W        W42332  13.609  10.582  12.641  0.2351 -0.1496  0.0951
22053W        W42333  11.012   4.967  12.693  0.1936 -0.1502 -0.1272
22054W        W42334  19.356   9.463   3.676  0.1128 -0.1115  0.0152
22055W        W42335  14.488  15.277   1.807  0.1205 -0.3975  0.1394
22056W        W42336  14.966  12.863   3.496  0.2899  0.0426 -0.4590
22057W        W42337  17.498  15.358   2.295  0.0989 -0.1127  0.2830
22058W        W42338  13.268  16.610   4.437  0.1199 -0.1699  0.0414
22059W        W42339   0.023   9.462  13.143 -0.0897  0.3675 -0.2304
22060W        W42340  13.888   4.493   0.294 -0.0747  0.0429  0.2607
22061W        W42341  11.072  12.535   0.681 -0.0470 -0.0925  0.0370
22062W        W42342   6.746   2.038  13.541  0.3563  0.1730 -0.0270
22063W        W42343   5.577   8.626  13.991  0.1766  0.0641  0.4077
22064W        W42344   1.390   1.900   4.560  0.1092  0.0407  0.2703
22065W        W42345   7.019  16.924  11.686  0.1867  0.1092 -0.0585
22066W        W42346   6.071   8.139   2.971 -0.2000  0.1263  0.3419
22067W        W42347   8.863  11.155   0.590 -0.0659  0.2844 -0.1536
22068W        W42348  15.363   3.120  14.089  0.0966  0.0490  0.0651
22069W        W42349   6.419  11.226  14.414 -0.1417 -0.1553  0.0632
22070W        W42350   8.867  17.095  14.267  0.1171  0.3113 -0.2803
22071W        W42351  15.440  10.489   9.372 -0.1592  0.0957 -0.1555
22072W        W42352   5.067  15.112  14.204 -0.3456  0.3628  0.1854
22073W        W42353   0.550   8.842   1.343 -0.1830  0.2518  0.0509
22074W        W42354  15.523   5.486   2.176  0.0622  0.0682  0.6300
22075W        W42355  15.463  14.146   4.056 -0.0870  0.0979  0.2123
22076W        W42356   5.848   0.877  12.577  0.3405 -0.2585 -0.1859
22077W        W42357  16.057  13.882  13.426 -0.2809 -0.2690  0.0249
22078W        W42358  12.797   5.715   4.118 -0.0203  0.3410 -0.1067
22079W        W42359   1.023   2.506  13.401  0.0611 -0.0509 -0.0999
22080W        W42360   9.741  15.651  13.779  0.1965 -0.1179 -0.0356
22081W        W42361  15.952  15.472  12.712 -0.0785 -0.3145  0.3867
22082W        W42362  18.941   9.052  10.950 -0.0673  0.1034  0.5476
22083W        W42363  15.926   3.653  13.927  0.4267 -0.0366 -0.2849
22084W        W42364   5.434  12.909   1.107  0.1150  0.1847  0.0960
22085W        W42365  17.164  11.269   2.591  0.0987  0.2757  0.1898
22086W        W42366  12.672   8.769  10.286  0.2643  0.2524  0.2924
22087W        W42367  18.649  14.039  13.948  0.1622  0.3268  0.1108
22088W        W42368   7.874   8.637  12.226  0.2211  0.0862 -0.0830
22089W        W42369   3.017  19.141   1.333  0.0093 -0.2876 -0.0939
22090W        W42370  10.670  14.396  12.901  0.5421  0.0212  0.4845
22091W        W42371  13.187  14.832  12.442 -0.0743  0.0602  0.0345
22092W        W42372  16.274   7.199   1.571  0.2074  0.1772 -0.0383
22093W        W42373   7.470  19.159   4.391 -0.2350 -0.0554  0.0317
22094W        W42374  15.047  12.671   1.192  0.2703 -0.0937 -0.0314
22095W        W42375  11.662  14.469   1.282 -0.1065 -0.3093  0.0332
22096W        W42376  11.796   2.107   9.569 -0.1081  0.1105 -0.0699
22097W        W42377  11.415   4.607  12.311  0.0665  0.0157  0.3278
22098W        W42378  17.960  18.508   2.009  0.2556  0.1738 -0.0493
22099W        W42379   3.484   4.467   2.668  0.3075  0.0044  0.0722
22100W        W42380   6.671   9.915   1.222 -0.0323 -0.0781  0.2011
22101W        W42381  16.084   0.851  13.344 -0.0840 -0.3634 -0.0535
22102W        W42382  18.270  19.082  11.026 -0.1336  0.2258  0.1672
22103W        W42383   5.712  15.468   2.613  0.0563 -0.0545  0.2587
22104W        W42384   2.649   1.961   3.088  0.1722  0.3012  0.1161
22105W        W42385  16.870  12.015   0.981  0.0039 -0.0098  0.3098
22106W        W42386   9.931  15.579   4.128  0.1876  0.3920  0.1638
22107W        W42387  18.710  10.827   2.797 -0.1250 -0.2433  0.2088
22108W        W42388  11.023  17.598  11.543  0.1983 -0.0496 -0.3200
22109W        W42389  17.070   5.308   3.137  0.1491  0.2166  0.0742
22110W        W42390   1.522  10.195  10.310  0.0226  0.0029  0.3171
22111W        W42391   5.650   3.717  10.713 -0.0620  0.1285 -0.1674
22112W        W42392  17.731   7.180  10.495  0.2145  0.1718 -0.3409
22113W        W42393  16.990  18.402  11.975  0.0334 -0.1137 -0.0410
22114W        W42394  14.118   9.348   1.170  0.2415 -0.0522  0.0126
22115W        W42395  14.744  15.297  13.314  0.1535 -0.1267 -0.1433
22116W        W42396  13.221  13.077   4.583  0.0988 -0.3166 -0.0244
22117W        W42397   8.445   7.188   4.076  0.0110 -0.3846  0.2687
22118W        W42398   8.917   8.764  13.775 -0.0051  0.2043 -0.2862
22119W        W42399  10.944   8.034   3.818 -0.1928 -0.0794 -0.0939
22120W        W42400  15.733   8.465   1.367  0.1924 -0.0140  0.0571
22121W        W42401  15.036  17.251  10.567  0.1706 -0.0687 -0.3355
22122W        W42402  11.188  18.099   0.545 -0.0624  0.0490  0.3681
22123W        W42403   1.125  19.038  13.675  0.0102 -0.2728 -0.0333
22124W        W42404  12.753   7.286  12.019 -0.0318 -0.0687 -0.0873
22125W        W42405  17.967   5.838   0.810  0.1122 -0.1445 -0.0985
22126W        W42406  18.868   3.507   2.769 -0.0063  0.0136  0.1057
22127W        W42407   2.290   4.574   2.029  0.0481 -0.0369 -0.0586
22128W        W42408  16.960  15.365  12.713  0.1100  0.1636 -0.0512
22129W        W42409  10.845  13.116   0.518  0.0085  0.0347 -0.1113
22130W        W42410  10.066   5.227  11.227 -0.2018 -0.1196 -0.3895
22131W        W42411   2.714   0.072   1.236  0.4196  0.0542  0.0453
22132W        W42412   1.268   5.979   2.778  0.3651 -0.0109  0.3909
22133W        W42413   8.090   5.532  14.346  0.1037 -0.1672 -0.1460
22134W        W42414   5.672   4.554   0.685 -0.1509  0.0137 -0.2907
22135W        W42415  11.472   9.609  10.970 -0.0569 -0.0865 -0.2829
22136W        W42416   0.307  19.265  11.615 -0.2614 -0.0961 -0.4786
22137W        W42417   0.942  16.557   3.564 -0.0830  0.0948 -0.1493
22138W        W42418  14.001  12.841  10.578 -0.0400 -0.2206  0.1274
22139W        W42419  16.484  13.311   1.787 -0.2318  0.1678  0.0243
22140W        W42420   8.140  16.580   3.744 -0.3862  0.1378 -0.0826
22141W        W42421   0.978   4.233  11.130  0.0800  0.0243 -0.2005
22142W        W42422   3.708  16.844  11.786  0.0200 -0.1547 -0.0998
22143W        W42423   9.657  13.078   1.744 -0.0330  0.1438  0.1968
22144W        W42424  10.669   7.477   0.576  0.1398  0.2803  0.0342
22145W        W42425   5.714   2.045   1.376  0.2006 -0.1718  0.1659
22146W        W42426   4.093   7.410  13.933  0.4485 -0.0877  0.0059
22147W        W42427   6.274  16.961   4.932 -0.1948  0.1028  0.0175
22148W        W42428   6.998   2.618  12.418 -0.2458  0.0550  0.1188
22149W        W42429  15.532  11.931  10.432 -0.3380  0.2044  0.2105
22150W        W42430  16.412   5.603  11.901  0.1783 -0.2241 -0.0590
22151W        W42431  16.138  19.361  12.700 -0.1976  0.1407  0.0641
22152W        W42432  17.199   2.039  10.621 -0.1155 -0.0937 -0.0183
22153W        W42433  14.591   5.581  11.183  0.0193  0.0804  0.0754
22154W        W42434  14.338   1.908   1.161  0.0917  0.1598  0.0458
22155W        W42435  13.042   2.904  13.789 -0.2519 -0.1645  0.2053
22156W        W42436  13.979  14.659   2.180  0.0008 -0.4139  0.1167
22157W        W42437  17.732   7.725  14.494 -0.1007  0.0727 -0.0936
22158W        W42438   6.099   2.568  10.164  0.2109  0.1856 -0.2329
22159W        W42439   2.200  17.200  14.165  0.1637 -0.0275 -0.2685
22160W        W42440   8.999  17.024   0.811 -0.0143 -0.1197  0.2277
22161W        W42441  18.475  17.250   3.537  0.0483 -0.0371  0.0871
22162W        W42442   5.439   7.406  13.372 -0.0008  0.3002  0.1246
22163W        W42443   0.629  18.280   3.554 -0.1748 -0.1020  0.2581
22164W        W42444  17.731  14.432   2.211  0.1165 -0.4613  0.1807
22165W        W42445   2.552  17.517  12.921 -0.0414  0.2116 -0.1461
22166W        W42446   3.228  15.818  14.022 -0.1670  0.1155 -0.0821
22167W        W42447   0.006   2.081  13.665  0.0345  0.0030  0.0154
22168W        W42448   0.911  15.234  11.772 -0.2311 -0.1744 -0.1710
22169W        W42449   1.099   0.234  11.952 -0.1984 -0.0715  0.1677
22170W        W42450   5.787  11.567   2.019  0.1839  0.1507 -0.1636
22171W        W42451   9.514   0.387   2.050 -0.1757 -0.0345  0.1034
22172W        W42452   8.264  14.325   2.448  0.0587  0.2333 -0.0817
22173W        W42453   5.975  14.898   1.561 -0.0739  0.0669  0.1829
22174W        W42454   3.464  15.126   1.241 -0.1122  0.0755 -0.0306
22175W        W42455   1.773  13.746   2.963 -0.1771 -0.2603  0.1650
22176W        W42456   9.967   6.322   2.826  0.1403  0.2510  0.0650
22177W        W42457   3.779  15.531   3.701  0.0299  0.2057  0.0512
22178W        W42458   3.775  15.580  13.795 -0.2344  0.2120  0.0207
22179W        W42459  12.081  13.240   0.238  0.1321  0.1500 -0.2927
22180W        W42460   5.643  11.900   4.144  0.2747  0.2760 -0.2329
22181W        W42461   0.265  16.795  11.536 -0.1621 -0.2403  0.2656
22182W        W42462   2.505  15.308   9.112 -0.2065  0.1064  0.0428
22183W        W42463  12.688  13.924   1.938 -0.1451  0.1047 -0.0238
22184W        W42464  14.041   2.486   2.483  0.1083  0.1434  0.0282
22185W        W42465  11.323  18.501   2.527  0.2159  0.1704  0.2364
22186W        W42466  11.320  11.046   1.944 -0.0822 -0.1683  0.0001
22187W        W42467  14.210  17.747  11.378 -0.0585 -0.1853  0.1251
22188W        W42468   0.772   9.527  14.018 -0.0832 -0.1830  0.1777
22189W        W42469  17.870   8.754   3.400 -0.2579 -0.0467 -0.0177
22190W        W42470   2.102  15.814  13.525 -0.0836 -0.2454 -0.3956
22191W        W42471   5.835  15.209  12.337 -0.1667  0.0865  0.0233
22192W        W42472   9.198   5.630   4.381  0.0477  0.1850  0.0030
22193W        W42473  17.506   4.557   1.021 -0.1773  0.2977  0.0194
22194W        W42474  10.818  19.112  14.243 -0.1842 -0.4087 -0.0004
22195W        W42475   4.241   6.885   2.503  0.2163 -0.0169  0.1079
22196W        W42476   7.501  14.977  11.064 -0.1996  0.1174 -0.1649
22197W        W42477  12.642  19.126   1.448 -0.2303  0.1570 -0.0582
22198W        W42478  14.140  18.559  13.393 -0.0399 -0.0012 -0.1858
22199W        W42479   9.622   2.331   1.232 -0.4419  0.2503  0.1206
22200W        W42480   5.246  18.124  11.191 -0.1811  0.0031 -0.0082
22201W        W42481   1.310   6.018   0.468  0.0426 -0.0450 -0.3194
22202W        W42482   7.394   5.746   3.977 -0.0039  0.3321 -0.1884
22203W        W42483  12.414   1.774   3.945  0.0987  0.1241  0.2464
22204W        W42484   9.258  10.785   1.832  0.0142  0.0947 -0.0905
22205W        W42485   2.368   8.864  11.096  0.1628  0.0378  0.1115
22206W        W42486   6.482   3.294  13.725 -0.0055 -0.0112  0.3917
22207W        W42487  15.279  14.291  12.805 -0.0195  0.1863 -0.2608
22208W        W42488   6.209   2.423  11.912 -0.2632  0.0309  0.1582
22209W        W42489  18.135   6.651   3.156  0.3127  0.0692 -0.0214
22210W        W42490   2.991   2.683  11.248 -0.0057  0.1933 -0.2739
22211W        W42491  11.957   4.921   0.309 -0.3087  0.2543  0.3397
22212W        W42492   9.559  12.082   1.466  0.1629 -0.1462 -0.1309
22213W        W42493   0.771  16.136   1.369 -0.0613  0.0431  0.0690
22214W        W42494  10.005  13.578  12.904  0.2134 -0.1443  0.0839
22215W        W42495  13.595   2.559   2.162  0.2923  0.1599  0.2348
22216W        W42496   7.999   7.313   1.508 -0.0926  0.1498 -0.2296
22217W        W42497   8.325   5.222   0.228 -0.1513  0.0235 -0.0363
22218W        W42498  14.421  14.356   0.426  0.0757 -0.0531 -0.0644
22219W        W42499  16.015  18.687  10.177 -0.0888  0.0838 -0.0893
22220W        W42500   6.587   9.044   0.879 -0.1052 -0.1663 -0.3598
22221W        W42501   2.179  11.464   3.498 -0.2447  0.0367  0.0694
22222W        W42502  18.926  19.338   2.104 -0.0693 -0.0203  0.0190
22223W        W42503  13.653  11.795  11.370  0.0175 -0.3561 -0.1219
22224W        W42504  13.472  16.903   2.173 -0.1674 -0.1905  0.0638
22225W        W42505   1.671   9.172  11.775  0.1966  0.3506 -0.1209
22226W        W42506  11.860   6.121   1.420  0.1797  0.0613 -0.1895
22227W        W42507   3.656   8.128   2.747 -0.1829 -0.1396 -0.4917
22228W        W42508   9.913  11.398   3.709 -0.3368 -0.1149  0.1245
22229W        W42509   6.947  19.041  11.447 -0.1984  0.0122 -0.3446
22230W        W42510   8.567   0.520  13.643  0.0796  0.0863  0.0111
22231W        W42511   2.339  14.447   3.134  0.0906  0.0634 -0.0814
22232W        W42512   4.741  14.757  14.045  0.0607 -0.0890 -0.2842
22233W        W42513   4.629  15.210  10.869 -0.0415 -0.1611 -0.2170
22234W        W42514   9.894   6.184   3.634 -0.2486  0.1734 -0.1030
22235W        W42515   2.598  11.156  10.694  0.0859 -0.1983 -0.0781
22236W        W42516   8.358  11.956  14.167  0.0649 -0.0694  0.0014
22237W        W42517  11.965  12.333   0.567 -0.1653  0.1742 -0.2236
22238W        W42518  18.008  15.242  12.587 -0.2791  0.1895 -0.2175
22239W        W42519  18.685   7.555  12.019  0.0429 -0.0988 -0.0837
22240W        W42520   1.447   7.922   2.525  0.1043 -0.0826  0.0131
22241W        W42521  12.415   7.863  10.881  0.0522  0.2095 -0.2752
22242W        W42522  16.894  14.339   4.155 -0.0971  0.1619 -0.3326
22243W        W42523   6.234   5.529   2.216  0.1445  0.1893  0.0196
22244W        W42524   8.638   9.266  10.888 -0.2591 -0.1219 -0.0156
22245W        W42525  12.030  18.412  11.670 -0.0997  0.5342 -0.3388
22246W        W42526   9.837   0.600  12.313  0.2328 -0.0021 -0.0593
22247W        W42527   0.110  16.729  12.061 -0.1845  0.1009  0.2773
22248W        W42528   1.317   2.942  11.438 -0.1069 -0.0852 -0.0255
22249W        W42529  14.614   3.777   1.808 -0.2456 -0.1328  0.1579
22250W        W42530  12.747   9.912  11.722 -0.0980 -0.2466  0.1278
22251W        W42531  12.062   6.368   2.776  0.0174  0.3659  0.1165
22252W        W42532  12.003  14.194   4.279 -0.0101  0.2520 -0.0897
22253W        W42533  11.498   2.628  11.960  0.1774 -0.0263 -0.0727
22254W        W42534  12.710   3.427   1.796  0.2363 -0.1427 -0.0473
22255W        W42535  17.467   4.140   3.599 -0.3171 -0.1736  0.0997
22256W        W42536   9.504   1.300  12.125 -0.1577  0.0149  0.0335
22257W        W42537   0.827   3.545   3.528  0.1189 -0.1060 -0.0979
22258W        W42538  14.970  18.157  11.017 -0.0320 -0.1100 -0.1784
22259W        W42539   4.553   6.995   9.664  0.0748  0.0835  0.0507
22260W        W42540   2.367   9.178  14.334 -0.3594 -0.0972 -0.1448
22261W        W42541  10.730   0.980  11.419 -0.0740  0.0486 -0.3205
22262W        W42542  10.679  18.178   0.742 -0.1523 -0.1527 -0.2582
22263W        W42543  17.500  18.843   2.063  0.1801 -0.0892  0.0009
22264W        W42544  16.477  16.010  10.487  0.0234 -0.1122  0.1293
22265W        W42545  13.858  17.701   3.377 -0.0471  0.0978 -0.4660
22266W        W42546  14.073   3.434   2.102 -0.0335 -0.1019  0.2219
22267W        W42547  11.558  10.894   3.590  0.2869 -0.2280 -0.0303
22268W        W42548   6.244  12.338  14.060  0.0782 -0.0901 -0.0163
22269W        W42549  11.909   2.517  12.386 -0.1187 -0.0921 -0.0621
22270W        W42550   4.256   8.269   1.900  0.0081 -0.0948  0.2700
22271W        W42551  17.743   1.877   4.233  0.0214 -0.2035  0.0362
22272W        W42552   3.814   0.559  13.276  0.5282  0.0715  0.0143
22273W        W42553   2.646   2.782  14.091 -0.1572  0.2168 -0.0086
22274W        W42554   7.588   1.952   1.367 -0.1723 -0.2196  0.0999
22275W        W42555  11.616   0.838  12.028 -0.1421  0.3182  0.2487
22276W        W42556   9.482   9.506  14.139  0.0698  0.0248 -0.4227
22277W        W42557  11.628  10.504   0.545 -0.1671  0.4026 -0.2592
22278W        W42558   4.343  16.919   0.247 -0.2123 -0.0158 -0.1366
22279W        W42559  10.172   9.241  10.510  0.0883  0.0755 -0.2214
22280W        W42560  17.693  12.349  13.190  0.0120 -0.1819  0.0218
22281W        W42561   8.170  19.211   0.888 -0.1099 -0.0021 -0.0568
22282W        W42562  14.804  16.510   2.411 -0.0072  0.2800  0.0470
22283W        W42563   5.282   5.851   0.563 -0.1611 -0.0680  0.1454
22284W        W42564  16.642  11.979  11.729 -0.2730 -0.0193  0.0147
22285W        W42565  14.304  18.563   1.144 -0.4066 -0.0163 -0.1968
22286W        W42566  18.951  16.256  10.836  0.0906 -0.0322  0.2339
22287W        W42567  11.786   3.575   1.378  0.0391  0.4118 -0.0096
22288W        W42568   9.395   5.865  11.840 -0.2257 -0.1230 -0.3244
22289W        W42569   6.272   6.370  11.207  0.1419  0.0955 -0.2072
22290W        W42570   2.255   6.011   0.818  0.0981 -0.1505  0.0995
22291W        W42571  16.656   4.703  13.118 -0.0420  0.1495 -0.1612
22292W        W42572   3.589  16.501   4.174 -0.0128  0.1830 -0.1072
22293W        W42573  17.663  15.000  12.260  0.2037  0.0264 -0.1481
22294W        W42574   6.961  10.347   1.368  0.0778 -0.1804  0.1789
22295W        W42575  15.008   5.652  13.757  0.0075  0.0008 -0.3102
22296W        W42576   9.861   9.507  13.839 -0.2049 -0.1389 -0.1205
22297W        W42577   3.813   9.812  10.890 -0.2350 -0.1916 -0.0148
22298W        W42578   9.295   7.090   2.770  0.0407 -0.3568  0.2031
22299W        W42579  13.257  12.659   0.679  0.2762  0.1221 -0.2121
22300W        W42580  13.352   7.290  10.417 -0.1168  0.3009 -0.1470
22301W        W42581  10.800   3.616   1.447 -0.1736  0.1666 -0.1414
22302W        W42582  14.040  12.199  11.197 -0.1026 -0.0190  0.0873
22303W        W42583   7.547   9.030   1.255 -0.0396 -0.0664 -0.1701
22304W        W42584  19.309   4.291   2.026  0.0602  0.1488  0.3466
22305W        W42585  12.742  12.725   0.636  0.3134  0.1079  0.0669
22306W        W42586   4.092  12.962  11.086 -0.0930  0.0487 -0.0091
22307W        W42587   5.394  14.330   1.122  0.0604  0.2420 -0.2776
22308W        W42588  16.995  10.828  13.683 -0.0626  0.1935  0.0596
22309W        W42589  15.771   0.801  10.971  0.0041  0.2371  0.2570
22310W        W42590   8.313  10.260  12.575 -0.1638 -0.3338 -0.0593
22311W        W42591   6.831   0.060   0.681 -0.4105 -0.1151  0.1842
22312W        W42592   5.270   3.783   3.348 -0.0676  0.1335  0.1297
22313W        W42593   1.408  12.733  14.088  0.0542 -0.2437 -0.1536
22314W        W42594   3.232  15.640   3.552  0.2810  0.0959  0.0002
22315W        W42595  13.198  16.305   0.429 -0.1416  0.0187 -0.0711
22316W        W42596   8.802   4.135   0.907 -0.2686 -0.3305  0.2301
22317W        W42597   8.284   9.912  11.090  0.2113  0.0021 -0.2027
22318W        W42598  11.092  11.231   0.352  0.2345 -0.1519  0.1140
22319W        W42599   8.417  18.350  10.158  0.1021  0.2727 -0.0021
22320W        W42600   0.105   2.294   3.494  0.0844 -0.0071 -0.0487
22321W        W42601   0.290   3.858   0.240  0.4095  0.1732  0.0620
22322W        W42602   6.054   3.100  12.757  0.0505 -0.1422 -0.0742
22323W        W42603   8.869  19.052  11.587 -0.1836  0.0751  0.1984
22324W        W42604   0.765   9.982   1.549 -0.1410 -0.2792 -0.0953
22325W        W42605   4.300   5.764   2.042 -0.0812 -0.0329 -0.1622
22326W        W42606  15.923  14.629   5.132 -0.2573 -0.3219 -0.0445
22327W        W42607   6.873   0.270  11.095 -0.1260  0.0405 -0.1382
22328W        W42608  10.943   8.886   3.658  0.1142  0.1426 -0.0570
22329W        W42609   4.072  18.907   3.817  0.1233  0.2043 -0.4213
22330W        W42610   4.283   7.588  12.840 -0.0928 -0.1787 -0.3614
22331W        W42611   8.186   2.124   0.147 -0.0073  0.0711 -0.0976
22332W        W42612  15.257   5.361   1.294 -0.1112 -0.1131 -0.0132
22333W        W42613  14.407  15.592   2.483 -0.0299 -0.2545 -0.0739
22334W        W42614  17.102   3.122  11.536 -0.0643 -0.0328  0.0473
22335W        W42615   6.556   7.334   2.018 -0.4914  0.1402 -0.0617
22336W        W42616   4.719   8.503   1.921 -0.0686  0.3703  0.1926
22337W        W42617   1.242   1.463  13.655  0.0131  0.3273  0.1027
22338W        W42618  10.135   2.688   2.728  0.2775  0.1181  0.0366
22339W        W42619   1.943   5.202  14.172 -0.0450  0.2037 -0.1255
22340W        W42620  16.514   1.230   0.936 -0.0439  0.3042  0.0683
22341W        W42621  18.897  12.279  11.314  0.1258  0.3701 -0.0654
22342W        W42622   0.343   7.392  13.900 -0.0488 -0.2408  0.0237
22343W        W42623   8.335   1.805   3.654 -0.0947  0.1844 -0.1450
22344W        W42624   0.451   5.668  10.702  0.0880 -0.1356 -0.0960
22345W        W42625  17.093   4.617   1.497 -0.0626 -0.1015 -0.1779
22346W        W42626  18.656   7.243  12.727  0.0280  0.0107  0.3792
22347W        W42627   5.370  11.054   3.222 -0.2762 -0.0272  0.0340
22348W        W42628  12.779  14.589  10.882 -0.0872 -0.0982  0.0329
22349W        W42629  13.888  18.588   2.296  0.1325  0.0432 -0.3408
22350W        W42630   2.315  18.534   1.072  0.1402  0.1642 -0.0918
22351W        W42631   4.630  11.880   1.329  0.0877 -0.1540 -0.1805
22352W        W42632   7.051  18.971  13.315  0.0728 -0.1436 -0.1824
22353W        W42633   5.156  14.841  13.677  0.0603 -0.1263  0.1571
22354W        W42634   4.101   4.053  13.893  0.2227 -0.0689  0.1626
22355W        W42635   4.360  17.293  14.218  0.0249 -0.1440 -0.2542
22356W        W42636   3.896   2.396   0.907 -0.1689  0.0092 -0.6687
22357W        W42637  14.967  18.033   0.917 -0.0849 -0.1089 -0.0791
22358W        W42638   3.331   6.444   1.730  0.0943 -0.2210  0.2129
22359W        W42639   3.965  14.600   2.182  0.1602  0.1803  0.2122
22360W        W42640   5.574  10.356  10.852 -0.1018  0.2799 -0.0060
22361W        W42641  11.609  11.890  11.940  0.3930 -0.2663 -0.2271
22362W        W42642   4.968   2.647  11.048  0.0922 -0.1023 -0.1394
22363W        W42643  11.118  13.983  13.936  0.2414 -0.0512 -0.2280
22364W        W42644  11.500   7.607  14.369 -0.1660  0.2577  0.1622
22365W        W42645  17.547   6.060  11.349 -0.1359  0.1155  0.2008
22366W        W42646  19.068   3.663   3.215 -0.2704 -0.2278  0.2029
22367W        W42647  10.618   8.582   1.521 -0.0329  0.0345 -0.5813
22368W        W42648   6.641   9.991   9.248 -0.1200  0.1783  0.1269
22369W        W42649  16.159   4.817   0.453  0.2204 -0.2288 -0.1270
22370W        W42650   3.839   5.651  13.279 -0.1248  0.2243 -0.0384
22371W        W42651   0.134   8.193  13.889  0.2404  0.0808 -0.0045
22372W        W42652   0.955   4.626   1.345  0.0814 -0.2777 -0.0279
22373W        W42653  19.097  15.513  11.502 -0.0608  0.0037  0.1522
22374W        W42654  16.779  15.003   3.386  0.1566  0.1211 -0.0007
22375W        W42655   2.013   4.166  10.125 -0.0507  0.1434  0.0673
22376W        W42656  18.557  15.751  10.922 -0.1649 -0.2748 -0.1493
22377W        W42657  13.635  18.853   1.003  0.0019  0.1789  0.3085
22378W        W42658  15.951   8.838   2.160 -0.1503 -0.0955 -0.0114
22379W        W42659  14.736   9.277  11.072  0.0693  0.1529 -0.3285
22380W        W42660   0.844  15.911  12.821  0.1603 -0.1611  0.1030
22381W        W42661  12.627   6.889   0.569  0.0753  0.0563 -0.1528
22382W        W42662   8.256  17.692  11.439  0.0285 -0.0283 -0.1131
22383W        W42663  18.231   0.281   2.597 -0.1281  0.1136  0.1237
22384W        W42664  15.371   0.558  11.044  0.3083 -0.0637  0.0513
22385W        W42665  14.102   6.364  11.838 -0.1384 -0.0856 -0.0572
22386W        W42666   8.325   9.563   0.723 -0.0119  0.0159 -0.4652
22387W        W42667  14.533   1.838   0.595  0.0802 -0.0850  0.0040
22388W        W42668  18.797   7.983   3.992 -0.1772 -0.0087 -0.3518
22389W        W42669  15.115   0.125   3.565  0.1888 -0.2233 -0.0911
22390W        W42670   7.396   7.098   0.168  0.0014 -0.0094  0.3550
22391W        W42671   0.460   7.805   0.097  0.2109  0.1693  0.0310
22392W        W42672  10.323   0.825  11.725 -0.0169  0.0708  0.0164
22393W        W42673   1.376   2.685   2.656 -0.4271  0.1874  0.1154
22394W        W42674   9.427   4.884   2.372  0.1525 -0.1786  0.2054
22395W        W42675  18.172  18.275   0.962 -0.1053  0.0311 -0.0968
22396W        W42676  11.832   7.785   3.379 -0.2128  0.1979 -0.4270
22397W        W42677  11.285  16.025  11.021 -0.1934  0.2307 -0.0461
22398W        W42678   2.796   8.028  10.878  0.0535 -0.4200  0.1563
22399W        W42679  18.784  18.311   0.627  0.3749 -0.0658 -0.0425
22400W        W42680  10.123   1.793  14.342 -0.3400  0.1012 -0.0393
22401W        W42681  13.838   5.572  13.056  0.2968  0.1557 -0.1015
22402W        W42682  11.284  12.866   1.012 -0.1020  0.1283 -0.2773
22403W        W42683   9.599   7.381  10.368 -0.2534  0.2327  0.2033
22404W        W42684  12.058   3.677  13.458 -0.1274  0.1621  0.0222
22405W        W42685  16.551   0.256  14.006 -0.1523  0.2333 -0.0483
22406W        W42686   2.278  16.295  13.479  0.2408 -0.0131  0.0524
22407W        W42687  14.087   9.965  12.721 -0.2408 -0.0264 -0.2200
22408W        W42688   2.365   6.917   2.295  0.3311 -0.0821 -0.2360
22409W        W42689   0.174  17.123   0.824  0.0352 -0.2794 -0.0105
22410W        W42690   2.542  12.579  12.249  0.0931 -0.1050  0.0491
22411W        W42691   2.138   3.014   4.843  0.1177  0.2075 -0.1027
22412W        W42692  10.762  13.151  12.891 -0.0608 -0.0040 -0.1568
22413W        W42693   0.404   7.625   9.285 -0.3369 -0.1270  0.0395
22414W        W42694  14.944   8.711   0.140 -0.0005  0.0436 -0.1721
22415W        W42695  13.167  10.887   4.520  0.2967  0.1678  0.1227
22416W        W42696   7.536   1.201   1.241  0.1606  0.2237  0.0265
22417W        W42697   9.351  14.489   3.333 -0.1098 -0.2455 -0.2936
22418W        W42698   9.983  12.790   1.501  0.0561  0.1822 -0.1376
22419W        W42699  14.768  14.993  13.729 -0.0247  0.3155  0.0974
22420W        W42700   1.787  16.725  14.396  0.4495  0.2841  0.0868
22421W        W42701  15.325   6.811   2.474 -0.0038 -0.1678  0.2606
22422W        W42702   0.198   2.333   4.007 -0.2933 -0.0770  0.1614
22423W        W42703   6.344  18.318  11.391  0.2329  0.0588 -0.1035
22424W        W42704  16.884   7.721  12.136  0.0958 -0.2065 -0.3331
22425W        W42705   8.642  11.795  12.633  0.0629  0.2546  0.0564
22426W        W42706   5.975  14.260   0.805 -0.0059  0.1993 -0.1156
22427W        W42707   2.235   3.080   2.730 -0.0404 -0.3496 -0.1965
22428W        W42708  16.640   8.090  13.566  0.0241  0.0510 -0.1013
22429W        W42709   9.047   4.299   2.351 -0.1342 -0.0974 -0.3114
22430W        W42710   5.654  15.686   0.746  0.0139  0.0038 -0.1837
22431W        W42711   8.419  18.166  14.104 -0.0796 -0.3177  0.2564
22432W        W42712   0.905  18.433   1.675  0.2250 -0.0114  0.1620
22433W        W42713   4.296  19.280  11.875 -0.1439  0.1094  0.2949
22434W        W42714   5.905   6.686  11.437 -0.1201  0.1553 -0.1306
22435W        W42715  18.372  18.028   1.473  0.1272 -0.0678 -0.2737
22436W        W42716  17.313   9.540  11.343 -0.1429  0.0318 -0.0949
22437W        W42717   7.620  13.757   1.225  0.0512  0.2951 -0.4030
22438W        W42718  11.136  17.096  11.872 -0.0646 -0.2671 -0.1623
22439W        W42719  16.587  15.674   2.238  0.3183  0.1951  0.1566
22440W        W42720   9.788  12.656   1.975  0.2677  0.3658  0.1674
22441W        W42721  14.735  12.369   1.419 -0.2218 -0.0270  0.2802
22442W        W42722  15.308  13.430   0.023  0.1959 -0.0572 -0.1104
22443W        W42723  10.823  11.968   1.276  0.0351 -0.1656  0.1821
22444W        W42724   2.691  14.318   1.913  0.2496  0.0155  0.2614
22445W        W42725  14.391  18.307   2.974  0.1537 -0.1050 -0.1749
22446W        W42726   4.126   8.923  10.043 -0.0852  0.1484  0.3860
22447W        W42727   7.086  10.397  10.455  0.0191  0.0983 -0.1697
22448W        W42728   5.232  11.376  13.902  0.1187 -0.0767  0.2055
22449W        W42729   5.126   6.277   0.354 -0.0259  0.0292 -0.0297
22450W        W42730  14.539  14.622   5.024  0.0215 -0.0842  0.1913
22451W        W42731  11.661  11.231   2.273 -0.1372  0.0284  0.1953
22452W        W42732  10.974  15.793  13.714 -0.3177  0.0645  0.1598
22453W        W42733   8.419  17.634   1.022 -0.1287 -0.1617 -0.0443
22454W        W42734   5.971   9.167   2.254 -0.0042 -0.1366 -0.3491
22455W        W42735   1.313   4.248  13.544  0.3108 -0.1045  0.1416
22456W        W42736   2.686  17.911  11.391 -0.1301  0.0531 -0.1164
22457W        W42737  14.627   7.483  11.301  0.2730  0.0820 -0.1135
22458W        W42738  10.606   6.820  10.063 -0.1523 -0.0202  0.2635
22459W        W42739  18.435   1.826   3.583 -0.2282  0.3778 -0.2873
22460W        W42740  11.165   2.221   2.941 -0.1467  0.2967  0.1077
22461W        W42741  17.952  14.095  10.520 -0.0829 -0.2143  0.1440
22462W        W42742  11.786  12.026  10.975  0.1192 -0.1620 -0.2052
22463W        W42743  14.464   0.891   1.801 -0.3131 -0.2675 -0.2388
22464W        W42744  15.941   7.692  13.151 -0.1529 -0.1949  0.1445
22465W        W42745  17.924   9.492  11.631  0.0763 -0.2078  0.1312
22466W        W42746   0.692  18.960   5.100  0.1431 -0.3577  0.1319
22467W        W42747  14.550   6.859   2.943  0.1986  0.0820 -0.0844
22468W        W42748  18.196   7.487   9.505  0.0161  0.3138  0.0723
22469W        W42749   1.167   3.553  12.573  0.0230  0.2424  0.0097
22470W        W42750  13.153   4.520  12.098 -0.0582 -0.0746 -0.2198
22471W        W42751  17.352   0.896  11.792 -0.3793  0.1161  0.0357
22472W        W42752  13.551   1.921   3.154 -0.1896  0.0960 -0.1540
22473W        W42753   2.089   6.758  10.828  0.4177  0.1994  0.0531
22474W        W42754  18.890  10.393   2.541 -0.0211  0.1076 -0.0800
22475W        W42755   3.062  18.025   4.639 -0.0509 -0.0505 -0.0034
22476W        W42756   6.981   9.867  12.075 -0.0128  0.1292 -0.1195
22477W        W42757   9.326  18.500  13.382 -0.2778  0.1475  0.0016
22478W        W42758   4.796  12.883   3.112 -0.0734  0.2335  0.2455
22479W        W42759   5.659   8.164  14.249  0.0213 -0.2262 -0.2027
22480W        W42760  14.539   8.386   0.091  0.1049  0.0110  0.1732
22481W        W42761  14.272  13.639   3.872  0.3176  0.1205  0.1606
22482W        W42762   1.010  14.658   4.196  0.1427  0.1643  0.0156
22483W        W42763  13.202   7.866   5.032 -0.1010  0.0016 -0.0775
22484W        W42764   7.108  17.146  10.789 -0.1379  0.3995  0.1828
22485W        W42765  12.490  13.351   1.439  0.0045  0.1370 -0.2818
22486W        W42766   6.866  13.162   3.279 -0.2690 -0.3223 -0.1014
22487W        W42767   8.631   7.974  11.918 -0.1129  0.1378 -0.0847
22488W        W42768  10.529   7.770  14.254 -0.2189  0.2501  0.1860
22489W        W42769   9.783   4.390   3.525  0.0111  0.0257  0.1862
22490W        W42770   7.259  12.465  12.245 -0.1196 -0.0492 -0.1736
22491W        W42771  10.486  13.794   3.813  0.0642  0.0958  0.0588
22492W        W42772   1.082  18.627   1.275  0.1170 -0.0084  0.0570
22493W        W42773   7.174  18.111  10.851  0.0346  0.3259  0.0880
22494W        W42774   0.347  17.254   1.659 -0.1332 -0.1371 -0.0311
22495W        W42775   7.727  11.768   2.510  0.0363 -0.2165 -0.1087
22496W        W42776  12.265  11.778   0.875  0.1268 -0.4367 -0.3290
22497W        W42777   5.231  14.197  13.029  0.1221  0.0037  0.1701
22498W        W42778   3.683  17.456   0.086 -0.2809 -0.0794 -0.2551
22499W        W42779   9.198   4.723  11.547 -0.0400 -0.1622 -0.0058
22500W        W42780   3.156  11.411  12.856 -0.0657  0.1129 -0.2177
22501W        W42781   4.055  18.885  11.154 -0.1924 -0.1392  0.3741
22502W        W42782   9.895  14.732  10.564  0.2084  0.1177  0.1042
22503W        W42783  11.878   7.648  11.667 -0.3027  0.1062 -0.0873
22504W        W42784   3.105   6.043   0.793 -0.0943 -0.1681 -0.0813
22505W        W42785   1.730  13.156   2.024  0.1807  0.1906 -0.0257
22506W        W42786   7.893  16.071   0.602  0.0325 -0.1328  0.2870
22507W        W42787  17.994  16.418  11.268 -0.0577 -0.1124 -0.0615
22508W        W42788  17.166  10.372  13.910 -0.0089 -0.0619 -0.4107
22509W        W42789  10.466   4.867   3.990 -0.3722 -0.0410 -0.0266
22510W        W42790  14.034  15.452  12.304  0.1881 -0.1015  0.2042
22511W        W42791   7.627  10.840  12.184 -0.1845  0.2771  0.2896
22512W        W42792  10.560   4.199  10.014  0.2268 -0.2847  0.1782
22513W        W42793   0.715  17.123  11.408  0.0317  0.2972  0.1820
22514W        W42794   2.967  12.522  14.208 -0.1409 -0.1405  0.0995
22515W        W42795   5.508  18.796   3.506  0.0623 -0.1103  0.0108
22516W        W42796  14.136   9.290   2.229  0.3052 -0.0459 -0.0256
22517W        W42797   0.854   9.340  13.287  0.1301  0.0443  0.1434
22518W        W42798  12.225   7.517  12.727 -0.1506  0.0191 -0.0152
22519W        W42799   1.068   4.912  10.810  0.2566 -0.1878  0.0227
22520W        W42800   7.133   1.365   4.390  0.2397  0.1610 -0.1527
22521W        W42801  14.230  16.899   4.354  0.0943 -0.0014  0.2290
22522W        W42802   1.364  14.306  11.519  0.2685 -0.1236 -0.2871
22523W        W42803   0.167   2.627   2.661  0.2124  0.1503 -0.2876
22524W        W42804   1.104   6.908   3.168  0.0808  0.0295  0.0062
22525W        W42805  10.130   8.991   3.165 -0.1345 -0.2616  0.2714
22526W        W42806   0.971  13.260  13.763 -0.0131  0.2419 -0.4408
22527W        W42807   2.483   4.366   2.975 -0.0607 -0.0078  0.0684
22528W        W42808  12.570  11.477   3.469  0.0032 -0.0566 -0.1195
22529W        W42809   9.958   3.104  11.174  0.0245  0.0301  0.0603
22530W        W42810   6.602  17.212  12.000  0.1444  0.2516  0.0330
22531W        W42811   1.267   4.755  12.506  0.3750 -0.0044  0.1076
22532W        W42812  16.431   5.459  13.844  0.0847  0.0584  0.1853
22533W        W42813  12.229   8.681  14.393 -0.0251  0.1340  0.0351
22534W        W42814  15.076  14.624  13.118 -0.3137  0.0898  0.0286
22535W        W42815   9.228   3.391  11.717 -0.0355 -0.1109  0.2193
22536W        W42816   9.667   4.630  12.436 -0.3531  0.1366  0.1324
22537W        W42817  11.139  13.569  12.744  0.1329  0.2513  0.1645
22538W        W42818   0.423   7.227   3.094 -0.0139 -0.1288  0.1626
22539W        W42819   5.767  11.293  13.892 -0.3993 -0.1117  0.1194
22540W        W42820   8.468  14.892   1.227  0.0279 -0.0153  0.3568
22541W        W42821   8.203   8.969  11.953  0.0731 -0.1622 -0.1955
22542W        W42822   2.250   8.955   3.601  0.0141  0.2285 -0.0434
22543W        W42823  13.762   0.720  12.735 -0.2326 -0.3431 -0.2766
22544W        W42824   5.309   3.309  13.062 -0.2356  0.1317  0.0306
22545W        W42825   2.347   3.189   3.380 -0.3173 -0.1887  0.0062
22546W        W42826   6.425   0.417  12.716 -0.1569 -0.2234 -0.2112
22547W        W42827  15.332   6.913   1.169 -0.4334 -0.1116 -0.1277
22548W        W42828  18.153   2.027   3.921  0.0190 -0.1515 -0.3499
22549W        W42829  14.568   1.360  13.347  0.1705 -0.0473 -0.0348
22550W        W42830  17.034   1.854   4.360  0.0597 -0.2344  0.0426
22551W        W42831   5.331  15.679  10.477  0.0654 -0.0312  0.1191
22552W        W42832  14.453  18.893  13.214 -0.3326 -0.0987 -0.1568
22553W        W42833   5.359   0.917  12.361 -0.0986 -0.3381  0.0672
22554W        W42834   8.653  13.708   0.217 -0.0811  0.1393  0.0684
22555W        W42835  12.800  14.547  13.679  0.0367  0.1853 -0.1683
22556W        W42836  11.138   6.695  12.732 -0.0927 -0.0843 -0.1085
22557W        W42837   3.952   7.852  13.677  0.1872 -0.0262  0.0784
22558W        W42838  15.278  12.896   0.842  0.1007  0.0620 -0.3038
22559W        W42839   8.854  11.283  10.499 -0.2510  0.0255 -0.1535
22560W        W42840   5.235   2.443  10.657  0.1256 -0.0832 -0.2492
22561W        W42841   2.814  17.893   1.172  0.1990 -0.1398  0.1656
22562W        W42842  14.344   4.269   0.458 -0.0220  0.1611  0.0410
22563W        W42843   5.158  16.028   1.887 -0.1749  0.0863  0.0580
22564W        W42844   8.910   3.111   0.864  0.1856 -0.1586 -0.0207
22565W        W42845   0.474   8.874   2.087  0.2089  0.2367  0.2259
22566W        W42846  11.437   2.524  10.698 -0.1178 -0.1662  0.1770
22567W        W42847   0.120  12.520  10.367 -0.0812  0.1947 -0.0386
22568W        W42848  15.574  11.170  11.496  0.1084 -0.1042 -0.0405
22569W        W42849   0.432   4.910  13.603 -0.0320 -0.4050  0.4755
22570W        W42850   7.858  12.747  12.953 -0.1847 -0.0887  0.1396
22571W        W42851   5.626  18.912  12.583  0.1681  0.1938  0.1755
22572W        W42852   6.188  19.295  11.865 -0.4020  0.3701  0.1535
22573W        W42853  11.978   8.374   4.035 -0.0953 -0.0839  0.1264
22574W        W42854   9.992   6.408   0.221  0.0736 -0.2475  0.0812
22575W        W42855   5.159  14.713   1.630 -0.1478  0.0110 -0.0079
22576W        W42856  15.343  10.666  13.613  0.1373  0.1511 -0.2538
22577W        W42857   1.869   5.393   0.210  0.0942  0.0216 -0.1719
22578W        W42858   3.600   9.551   3.884  0.0220 -0.0509 -0.0130
22579W        W42859  16.650   2.710  13.311 -0.2083  0.2167 -0.1485
22580W        W42860  14.810  11.310   0.152 -0.1273  0.0597 -0.3179
22581W        W42861   1.505  15.148  10.137 -0.0531  0.0731  0.1728
22582W        W42862   6.736  19.089   0.014 -0.3847  0.1469 -0.0227
22583W        W42863  17.211  11.567  10.720  0.1067  0.5157  0.1288
22584W        W42864   3.703  13.399  13.452 -0.2927  0.2959 -0.3249
22585W        W42865   2.387  17.078  11.620 -0.1181 -0.0461  0.0279
22586W        W42866   2.216   9.816  13.546 -0.0738 -0.4719  0.3454
22587W        W42867   4.474   2.643  11.215 -0.1728 -0.4157  0.1018
22588W        W42868  12.522   5.142   1.843 -0.0300 -0.0830 -0.2000
22589W        W42869   1.872  11.867  14.265  0.1549 -0.0835 -0.4233
22590W        W42870  18.158   1.144  10.717 -0.1122 -0.1333  0.5081
22591W        W42871   7.185   1.233   2.880  0.3424  0.2164  0.1274
22592W        W42872   1.348  15.324  13.308 -0.0487 -0.1154  0.0412
22593W        W42873  14.075   4.928   3.758  0.3112 -0.0228 -0.1622
22594W        W42874  13.496  12.189   2.601  0.0122  0.0531  0.0764
22595W        W42875   2.824  14.416   0.064  0.0017  0.1628  0.1709
22596W        W42876   1.012  15.032  12.862 -0.1945  0.2992 -0.0759
22597W        W42877   2.832   2.207   0.967 -0.0024  0.1486 -0.0199
22598W        W42878   1.173  18.786  11.000 -0.2028  0.0872 -0.1474
22599W        W42879   5.756  15.445  13.912 -0.1240 -0.1349 -0.2295
22600W        W42880   6.188   8.553   1.550 -0.1956  0.0988  0.0860
22601W        W42881   5.113   4.610   1.404  0.2756 -0.3010 -0.0616
22602W        W42882   5.319  15.319  11.314 -0.1893 -0.1753  0.3363
22603W        W42883  11.091   6.853   3.013 -0.1381  0.0842  0.2374
22604W        W42884   2.174   9.610  13.075 -0.0491  0.1058 -0.0337
22605W        W42885   5.322  15.280   0.171 -0.1260 -0.1805 -0.2704
22606W        W42886  15.024  14.165  12.006  0.0204 -0.0525  0.0172
22607W        W42887  19.258   0.500  12.137  0.5855 -0.2075  0.1235
22608W        W42888   5.733   9.316   4.555  0.3986 -0.1168 -0.1745
22609W        W42889  17.717   7.393  12.021  0.1291  0.0157  0.0607
22610W        W42890  12.852   3.841  13.498  0.4062  0.2784 -0.4401
22611W        W42891   5.985  15.748  14.292 -0.3704  0.1048  0.0199
22612W        W42892   1.961   5.739   1.203 -0.1628 -0.1307 -0.0431
22613W        W42893  19.013   5.669  10.652  0.2319  0.1822 -0.1832
22614W        W42894  15.471   2.999  10.822 -0.2068 -0.2604 -0.0065
22615W        W42895  18.814  18.787  12.772 -0.0128  0.0769  0.1277
22616W        W42896  13.567  19.028   2.946 -0.1080 -0.1300  0.0514
22617W        W42897   6.472  11.300   0.839  0.0513 -0.2545 -0.0958
22618W        W42898   7.038   7.610  12.987 -0.0334 -0.0630 -0.1674
22619W        W42899  14.102  13.489   3.130  0.3992  0.0077 -0.4777
22620W        W42900  14.788  12.855   2.550  0.0775  0.0200 -0.1561
22621W        W42901   1.728  15.951   0.585 -0.1828  0.3297  0.0771
22622W        W42902  16.444  15.254   0.426 -0.0227  0.0793 -0.3175
22623W        W42903   1.187  17.841  11.501 -0.3204  0.0430 -0.1003
22624W        W42904   2.382   0.420   1.039  0.1673  0.2283 -0.1796
22625W        W42905   7.941   1.669  13.628 -0.1988  0.1885  0.1248
22626W        W42906  14.925  16.695  12.919  0.0879  0.1166 -0.1121
22627W        W42907  11.163  12.282  13.240  0.1586  0.4609 -0.3416
22628W        W42908   7.406  11.008   2.946 -0.1218 -0.3821 -0.1148
22629W        W42909   6.824  10.669  13.092 -0.0501  0.0433  0.4329
22630W        W42910  12.961  18.718   1.350  0.2267 -0.0985 -0.0618
22631W        W42911  17.980   7.271   1.769 -0.2102 -0.1822  0.3814
22632W        W42912  15.147   1.159  13.421  0.0669 -0.0350 -0.1781
22633W        W42913  13.238  10.575  12.954  0.2557 -0.0183 -0.0872
22634W        W42914   1.634   0.225   2.508 -0.2036 -0.3571  0.3561
22635W        W42915  12.608  11.726   2.571  0.2672 -0.1001  0.0672
22636W        W42916  19.126  16.849   2.559  0.3336 -0.0944  0.2192
22637W        W42917  15.431  19.122  10.943 -0.1461 -0.2482 -0.1777
22638W        W42918  14.498  14.790   2.128 -0.1970  0.2940 -0.1658
22639W        W42919   2.109   7.232   0.922  0.1454 -0.2244 -0.0764
22640W        W42920  16.007   8.731  12.614 -0.2125 -0.0422 -0.0428
22641W        W42921  17.263  11.688   2.334 -0.0212  0.1391 -0.0300
22642W        W42922   3.556   6.800  11.169 -0.0056 -0.0263 -0.0824
22643W        W42923   2.149  15.096   1.150 -0.0774  0.4723 -0.0177
22644W        W42924   1.381   6.948  13.709 -0.1462  0.0642  0.0017
22645W        W42925   0.323  18.659  13.852  0.0939 -0.0139 -0.0928
22646W        W42926  17.793  13.573   0.979  0.2274 -0.0724 -0.1305
22647W        W42927   2.929  12.596  11.909 -0.4592  0.2430  0.0612
22648W        W42928   2.769   6.024   2.380 -0.0032  0.3908  0.0991
22649W        W42929  15.266   9.409   1.892  0.1434  0.1007  0.1275
22650W        W42930   4.353   8.703  12.179 -0.0755  0.0903  0.1416
22651W        W42931   6.253   3.328   2.870  0.1502 -0.0293 -0.1030
22652W        W42932   2.176   0.106   2.832 -0.0469  0.1766 -0.2063
22653W        W42933   5.815   3.524  13.190  0.0443  0.2264  0.2479
22654W        W42934  11.563   3.854  13.752  0.1320  0.0083 -0.1661
22655W        W42935   1.327   1.731   1.463 -0.0676 -0.0512  0.0929
22656W        W42936  14.446  14.156   1.016 -0.0209  0.1174 -0.0931
22657W        W42937   8.917   6.573  11.240  0.3024 -0.1494  0.2757
22658W        W42938   1.597   2.108  14.106  0.0599 -0.3179  0.0508
22659W        W42939   4.400  10.683   0.951 -0.0669  0.2689 -0.2390
22660W        W42940  15.699  13.571  13.145  0.0091 -0.1429 -0.2176
22661W        W42941  15.221   5.028  14.314 -0.1177 -0.1020  0.1384
22662W        W42942   4.382   4.485  14.109 -0.0129  0.1291  0.1228
22663W        W42943   3.134  14.908   9.836  0.3710 -0.1930  0.1156
22664W        W42944   0.714  12.217   1.624  0.0818  0.4829  0.2821
22665W        W42945  10.190   0.063   3.991 -0.0433  0.1135 -0.3775
22666W        W42946   3.393   8.894  11.776  0.1505  0.0246 -0.1190
22667W        W42947   0.086  11.915  13.157  0.0720  0.2706 -0.0500
22668W        W42948   8.126   7.604   0.741  0.0431  0.3941  0.1917
22669W        W42949  13.798  16.685  13.831  0.0020  0.2092 -0.2404
22670W        W42950  17.490  18.702  13.907  0.3487 -0.0629 -0.1518
22671W        W42951  16.860   2.338  11.398 -0.0312 -0.1026  0.2060
22672W        W42952   8.541   0.243   2.343 -0.1475  0.0239  0.2395
22673W        W42953  15.032   1.579   4.271 -0.0446  0.0363  0.1587
22674W        W42954   2.568   3.744   0.836  0.2073  0.0800 -0.3382
22675W        W42955   6.119  17.910  14.180 -0.3150 -0.0367  0.0779
22676W        W42956   5.980   4.867  12.877 -0.1948 -0.2271 -0.1180
22677W        W42957   5.086  15.405   3.623  0.4564 -0.0794 -0.0229
22678W        W42958  12.240   0.466   4.142  0.1259 -0.0929  0.2173
22679W        W42959  11.039  16.064   3.271  0.1311  0.0559  0.0782
22680W        W42960   1.737   5.356   1.699  0.1239 -0.0017 -0.3941
22681W        W42961   9.726   0.665   0.832 -0.3863 -0.0379 -0.2552
22682W        W42962  13.473   3.904   4.213  0.3339  0.0675 -0.1012
22683W        W42963  12.878   0.550  10.786  0.0989  0.0093 -0.2340
22684W        W42964   4.574  11.610  12.493 -0.2256  0.0749 -0.1001
22685W        W42965  19.423  18.640   0.121  0.1594 -0.1410  0.1144
22686W        W42966  12.497   9.889   0.183  0.0162 -0.0821 -0.0620
22687W        W42967  15.731   8.526  12.192  0.2041  0.1077 -0.1632
22688W        W42968  16.583   1.221  11.407  0.0728 -0.2538 -0.2984
22689W        W42969  15.285   6.902  12.331 -0.2545  0.1653 -0.0204
22690W        W42970   4.910  10.707   2.560  0.1151  0.0614 -0.0643
22691W        W42971   2.264  10.089  10.964 -0.0915  0.2147  0.1636
22692W        W42972  13.899   9.006   3.484  0.1394 -0.3302 -0.0475
22693W        W42973   4.719  16.218   0.369  0.0420 -0.5440 -0.0667
22694W        W42974  16.235  13.154  10.924 -0.1179 -0.0006  0.3832
22695W        W42975  11.375   5.347   4.131  0.4001  0.0369 -0.2597
22696W        W42976   8.687   6.078   3.581 -0.1155  0.0573  0.2309
22697W        W42977  17.989   6.989  12.169  0.0161 -0.2304  0.2279
22698W        W42978   6.526   4.035  11.082 -0.1856 -0.0029  0.1154
22699W        W42979   7.387  17.839   2.870 -0.0479  0.0432 -0.0881
22700W        W42980   4.760  16.359   1.918  0.0703 -0.3151  0.2156
22701W        W42981   0.775   3.912  11.520  0.1226  0.1553 -0.1890
22702W        W42982   7.935  18.939  11.037 -0.1665  0.1571  0.1569
22703W        W42983   3.691  14.211   1.984  0.1142  0.2604 -0.2133
22704W        W42984  19.161   4.093   0.975  0.2322  0.1926 -0.0633
22705W        W42985   4.805   3.714   3.032 -0.3742 -0.1013  0.1536
22706W        W42986   1.339   4.460   1.621 -0.4204  0.0128 -0.0226
22707W        W42987  10.374  18.707  11.361  0.0812 -0.0103  0.0167
22708W        W42988   9.580   2.373  12.940  0.2314 -0.0505  0.0234
22709W        W42989   4.663  17.464   2.387  0.1193 -0.0962 -0.1839
22710W        W42990   3.353  12.247   1.106  0.1490  0.0234 -0.0397
22711W        W42991  13.172  12.279  14.137  0.4611  0.0599 -0.0456
22712W        W42992  15.289  12.563  11.976 -0.0524  0.2230 -0.1579
22713W        W42993   8.052   2.539  14.094  0.1011  0.3832  0.4139
22714W        W42994  14.219   4.882  11.485  0.1882  0.0860  0.3459
22715W        W42995  18.605  10.639  11.680  0.2144  0.1107  0.0650
22716W        W42996  18.396  17.465  12.355 -0.4314  0.0926  0.0761
22717W        W42997   9.982  14.929   0.013 -0.4595  0.0483  0.2040
22718W        W42998  11.930  14.718  10.457  0.1956 -0.1331  0.3165
22719W        W42999   4.477   5.577   2.618  0.0909  0.1556  0.1039
22720W        W43000   2.038   8.313   3.300  0.0755 -0.0967 -0.0121
22721W        W43001  11.016  15.102   2.265  0.0200  0.1102  0.4508
22722W        W43002  17.750   1.271   0.248 -0.3065  0.0440 -0.0378
22723W        W43003   0.236  10.256   2.213  0.1453  0.0983 -0.1708
22724W        W43004  13.163  12.143  12.309 -0.3619 -0.4582 -0.0619
22725W        W43005   3.212   0.476   0.750 -0.0789 -0.0360  0.0965
22726W        W43006   6.578  17.568   3.853 -0.0170 -0.0896 -0.1724
22727W        W43007  11.276  10.136   2.206  0.0996 -0.2842  0.2842
22728W        W43008  19.145   2.554   1.198 -0.0044  0.0473 -0.0368
22729W        W43009  15.086  11.369  11.262  0.1567  0.0954 -0.1422
22730W        W43010  10.631  12.365   0.973 -0.0390 -0.1743 -0.0153
22731W        W43011  17.178  17.111  13.006  0.0935  0.0220  0.1064
22732W        W43012   9.454  11.919   3.618  0.3050 -0.2382 -0.0400
22733W        W43013   3.811   3.505  12.548 -0.0498 -0.0910  0.0611
22734W        W43014  11.968  18.307  12.145  0.0582 -0.1827 -0.3360
22735W        W43015   8.126   0.754  13.803 -0.2801 -0.0316  0.0684
22736W        W43016  19.170  13.121  11.538  0.1747 -0.2103 -0.2555
22737W        W43017  15.067   1.174  10.929 -0.0660 -0.0757  0.2315
22738W        W43018   4.841  14.704  10.847 -0.0896 -0.3271  0.2036
22739W        W43019  13.931   0.278   1.479 -0.1332 -0.0561 -0.1811
22740W        W43020   8.961  17.346  12.631 -0.2767  0.3694 -0.2822
22741W        W43021  11.679   1.544   0.052  0.2180  0.2477 -0.1723
22742W        W43022   7.041   1.836   4.708  0.3514  0.2295  0.1496
22743W        W43023   0.512  13.108   1.361  0.0014 -0.0363 -0.1716
22744W        W43024  15.506   7.912  14.218 -0.0152 -0.0438 -0.2268
22745W        W43025  14.576  11.071   3.508  0.1244  0.1060  0.1534
22746W        W43026  16.492   4.511   2.249  0.0829 -0.3132 -0.0429
22747W        W43027   6.567   4.711   2.495 -0.0292 -0.0542  0.1881
22748W        W43028   5.058   4.155   2.412 -0.1011  0.2090 -0.0522
22749W        W43029  12.605   4.387  12.801  0.2110  0.1582 -0.1778
22750W        W43030   4.711  12.599   2.694  0.1165  0.0114 -0.0056
22751W        W43031   2.337   2.681   3.491 -0.0864 -0.0967 -0.3136
22752W        W43032   1.673   9.205  10.550 -0.1655 -0.2062 -0.2251
22753W        W43033   5.783   5.194  10.714 -0.0509 -0.1265 -0.1135
22754W        W43034  19.385   5.785  11.452  0.0080  0.1089  0.1783
22755W        W43035  10.191   0.805   1.105 -0.0508 -0.0437  0.1944
22756W        W43036  15.372  14.536   2.676  0.2984  0.0935 -0.0691
22757W        W43037  16.198   2.510   4.099 -0.3869  0.0721 -0.3243
22758W        W43038  16.374  16.650   3.719 -0.1735  0.1657 -0.0757
22759W        W43039  14.501   1.729   2.987  0.1886  0.1409 -0.1272
22760W        W43040   0.241  14.539   2.480  0.2826 -0.2045  0.1123
22761W        W43041   9.720  13.097  13.236 -0.4673  0.0132 -0.1214
22762W        W43042  13.648  14.090   3.504  0.2758  0.1430 -0.1182
22763W        W43043  11.186   0.313  13.557  0.0116  0.1109 -0.1139
22764W        W43044  11.846   3.915   3.745 -0.3223 -0.0062 -0.0202
22765W        W43045   5.792   4.876  11.999  0.2461  0.0120 -0.1913
22766W        W43046  11.467   4.285   0.678 -0.1954 -0.2134 -0.4302
22767W        W43047  17.571   0.389  12.051 -0.2109  0.2498  0.2791
22768W        W43048  15.154  15.217   3.342 -0.0809  0.2304  0.0623
22769W        W43049  18.587   6.021  12.220 -0.1866 -0.2836  0.1764
22770W        W43050   6.708  11.005   0.562 -0.0721  0.2764 -0.1231
22771W        W43051  15.605  10.761   1.116  0.0490  0.1577  0.0283
22772W        W43052   7.620   2.314  14.134  0.2949  0.1947  0.2824
22773W        W43053  11.435  10.193  10.906  0.1659  0.0241  0.1164
22774W        W43054   2.339   1.129   4.586  0.0009  0.0713  0.2285
22775W        W43055   8.630  10.629   2.692 -0.0817  0.0766 -0.1216
22776W        W43056   9.202  13.900  12.168  0.1738 -0.0082  0.3568
22777W        W43057  13.456   6.903   1.307 -0.1700  0.0109  0.1143
22778W        W43058  18.079  13.949  13.921 -0.0955 -0.0614 -0.0022
22779W        W43059   6.149  19.127  13.198 -0.0916 -0.1558 -0.0970
22780W        W43060   1.061  15.380   2.130 -0.1464 -0.3204 -0.1184
22781W        W43061   1.111  11.955  11.942 -0.2741 -0.0313  0.1782
22782W        W43062   6.319   2.776   1.070 -0.1560  0.2649  0.0045
22783W        W43063  16.874  10.404  11.264 -0.1854  0.1856 -0.1166
22784W        W43064  15.052  15.066   2.896  0.0904  0.1883  0.1639
22785W        W43065   3.984   1.673  12.951 -0.2526  0.1222 -0.0330
22786W        W43066   3.028   4.634  14.131  0.0480  0.1088  0.1228
22787W        W43067  12.323  18.705   0.131  0.2195  0.0165 -0.1464
22788W        W43068  14.175   4.052   3.797 -0.3935  0.1382 -0.1535
22789W        W43069  13.092  11.429  12.988  0.0364  0.0823  0.2045
22790W        W43070  18.620   5.053  10.835  0.3857  0.0733 -0.2975
22791W        W43071  15.601  11.264  13.624 -0.1104  0.0553 -0.0788
22792W        W43072   9.828   0.132   4.433 -0.2831  0.3133 -0.2493
22793W        W43073   3.815   3.597   0.354  0.1276 -0.3117 -0.0712
22794W        W43074  13.460   2.867  11.180 -0.0096  0.1135 -0.0474
22795W        W43075   0.664  12.688   1.082  0.1861 -0.0160 -0.0579
22796W        W43076   7.706   0.439  12.424  0.1022  0.1959 -0.0390
22797W        W43077   5.812   3.686   4.460  0.3014  0.0067  0.2774
22798W        W43078   3.201  11.266   0.011 -0.1472  0.2573  0.1418
22799W        W43079   5.927  10.395   1.365  0.0172  0.0279 -0.0570
22800W        W43080  11.159  11.549  10.488 -0.1298  0.0333 -0.1479
22801W        W43081  12.381   4.481  12.357 -0.0642 -0.0592  0.0253
22802W        W43082   9.964  18.844  11.035 -0.0439 -0.1744 -0.1210
22803W        W43083   4.647  12.606   0.515  0.0077 -0.0018  0.1215
22804W        W43084  17.407  16.216   2.871  0.1861 -0.1375 -0.0711
22805W        W43085  10.722   0.221  12.854 -0.3874 -0.0959 -0.4592
22806W        W43086  15.794  15.118   2.162  0.0945  0.0065  0.1608
22807W        W43087   3.166  13.107   0.659  0.3526  0.1377 -0.3112
22808W        W43088  16.160  17.689   0.494 -0.0054  0.0553 -0.1225
22809W        W43089  18.732   2.312   2.946  0.0259  0.1368 -0.3028
22810W        W43090  11.689  12.831  11.413 -0.0182  0.1229  0.1203
22811W        W43091  13.005  18.214  13.192  0.0849 -0.1419 -0.3899
22812W        W43092   6.672   3.469  14.201 -0.0203  0.0022  0.0304
22813W        W43093  18.670  13.601  13.308 -0.1200 -0.2778 -0.0542
22814W        W43094  12.880   4.262   2.196 -0.2121  0.1951 -0.0097
22815W        W43095   3.679  18.547   4.676 -0.2183 -0.1709  0.2110
22816W        W43096  17.489  12.535   3.921 -0.1756 -0.1577  0.0573
22817W        W43097   9.192  16.368  11.817  0.1599 -0.0852 -0.1270
22818W        W43098   4.645   2.048   0.199  0.2014  0.0668 -0.2090
22819W        W43099   8.346   9.996   2.526 -0.1454  0.0415 -0.3064
22820W        W43100   3.932   5.096   1.864 -0.1226 -0.0050 -0.1371
22821W        W43101  14.734  10.726   2.316  0.0817 -0.1714 -0.1607
22822W        W43102  15.711  15.015  12.811  0.0188 -0.0320 -0.2596
22823W        W43103  11.932  14.873  10.969  0.2708  0.1699 -0.0724
22824W        W43104   9.506   8.120   1.857 -0.2901 -0.0051  0.0800
22825W        W43105   0.504   4.004   1.371 -0.2849 -0.0969 -0.0490
22826W        W43106  14.673  18.377  13.404  0.1821  0.1914 -0.1615
22827W        W43107  14.493  17.423   2.792 -0.1703 -0.2858  0.4612
22828W        W43108  19.397   1.802  11.274  0.0671 -0.1553  0.0062
22829W        W43109   1.225  10.851  11.823  0.0192 -0.0102 -0.1145
22830W        W43110   2.636  15.682  10.788 -0.0994 -0.3379 -0.0926
22831W        W43111  14.150   5.434   1.702 -0.2652  0.1305  0.0025
22832W        W43112   6.725   5.269   3.271 -0.0656 -0.1385 -0.1870
22833W        W43113   7.648   4.791  10.974 -0.2718 -0.1434 -0.0176
22834W        W43114   7.897  16.144  10.399 -0.2598 -0.0494  0.1152
22835W        W43115   7.122  11.961   3.295 -0.0455  0.1137 -0.1255
22836W        W43116   0.462  11.787  13.987  0.1213  0.1219  0.0564
22837W        W43117  15.090   3.469   3.008  0.1730 -0.3710  0.0318
22838W        W43118   7.613   2.945   2.012  0.0050  0.2082 -0.1017
22839W        W43119   7.857   0.615  14.336 -0.0306  0.1061  0.0449
22840W        W43120   7.112   7.361  12.526  0.0684 -0.0504  0.0334
22841W        W43121  14.933   9.631  12.619  0.0909  0.0405 -0.3067
22842W        W43122   9.117  14.055   8.967  0.0746 -0.3185 -0.0879
22843W        W43123   6.961  18.300  12.122  0.1490 -0.1303  0.1570
22844W        W43124  17.472   7.187   0.836 -0.0522  0.3304  0.0621
22845W        W43125   9.516   7.475   2.940  0.1036 -0.1538  0.0738
22846W        W43126   7.653  16.178   2.277  0.0380 -0.3029  0.0198
22847W        W43127  12.133  16.534  14.184 -0.1031  0.1596  0.1286
22848W        W43128   0.354   6.460  13.419  0.2454 -0.0555 -0.0729
22849W        W43129   4.932   1.719   0.477  0.1796  0.4721  0.1531
22850W        W43130  12.409  13.592   3.903 -0.1480 -0.0694  0.1967
22851W        W43131   1.203  18.783   0.736 -0.2583 -0.0859 -0.1076
22852W        W43132   6.786   7.096   4.243  0.0914  0.0906  0.1516
22853W        W43133  10.356   4.602  13.009 -0.0021 -0.0663  0.2432
22854W        W43134   5.028  17.279  12.616  0.3921  0.2840  0.5169
22855W        W43135   3.721  14.510  10.516  0.1185  0.1046  0.1638
22856W        W43136   0.796  10.464  10.427 -0.0135  0.0299  0.0355
22857W        W43137   9.403  13.353  10.528  0.0304  0.3027 -0.2805
22858W        W43138   4.963   0.267  13.676 -0.1831  0.3340  0.0648
22859W        W43139   9.055   4.520  14.253 -0.0365 -0.1507  0.1209
22860W        W43140   5.214   0.289   1.367  0.2589 -0.0182  0.0191
22861W        W43141   1.653   7.608  10.963  0.1510 -0.1792 -0.0271
22862W        W43142  13.536  19.363   2.569 -0.0144 -0.2876  0.0182
22863W        W43143  19.256   2.836  14.057  0.0098  0.0612  0.1798
22864W        W43144   7.890  18.054  14.261  0.0733  0.2154 -0.1479
22865W        W43145  13.330   5.592  13.041  0.0279 -0.1025 -0.0823
22866W        W43146  14.400   5.182   1.366  0.2287 -0.0369  0.1084
22867W        W43147   2.476  16.574   1.251  0.1926  0.2061 -0.1343
22868W        W43148   2.346   8.102  12.673 -0.1532  0.4041  0.1757
22869W        W43149   0.380   1.269  11.997 -0.0662 -0.1343 -0.0228
22870W        W43150   0.091   5.671  13.870  0.0483  0.2020  0.1849
22871W        W43151  18.563  18.850   2.645 -0.2065 -0.1624 -0.0089
22872W        W43152  11.975  11.081   3.418  0.2851  0.2420 -0.1093
22873W        W43153   2.114  15.819   1.465 -0.0334 -0.5358 -0.1450
22874W        W43154   4.353  10.985   3.296  0.0279 -0.0151  0.0824
22875W        W43155  11.643   2.148   0.839  0.1805 -0.1459  0.2397
22876W        W43156   1.803  10.126  12.516  0.0168 -0.1535 -0.3069
22877W        W43157   9.274   2.986   0.535 -0.1023  0.0671  0.2330
22878W        W43158   7.974  16.150  12.597 -0.0891  0.1165 -0.0099
22879W        W43159   2.063   4.464  11.973  0.0601 -0.1057 -0.0852
22880W        W43160  14.236  13.025   2.369 -0.3959  0.0383 -0.0311
22881W        W43161  17.187   6.850  11.646 -0.0372  0.1173 -0.1727
22882W        W43162  12.613  13.184   3.663 -0.1269  0.0344 -0.0448
22883W        W43163  18.064   4.130   1.867 -0.0065  0.3760  0.0653
22884W        W43164  14.747   2.205  13.270  0.2920 -0.0377  0.6667
22885W        W43165  15.844  13.405   3.455 -0.1083  0.2694 -0.0694
22886W        W43166  16.303   6.637   2.197  0.2460  0.0828 -0.0238
22887W        W43167   2.187  18.223  12.465  0.0433  0.0058 -0.0131
22888W        W43168   3.225  12.900  13.546 -0.0762 -0.0215  0.1054
22889W        W43169   1.246   0.316   3.684  0.1356 -0.0370  0.1478
22890W        W43170  19.363   8.810  13.240 -0.0985  0.0916  0.0160
22891W        W43171  10.207  13.612   2.050  0.1241 -0.0645 -0.1986
22892W        W43172   3.625   4.146   2.005 -0.0993  0.1752  0.2562
22893W        W43173  15.168  10.908  11.159 -0.0252  0.0207 -0.4474
22894W        W43174   3.847  17.380  11.823  0.2181  0.2835  0.0094
22895W        W43175  15.702   4.022   3.372 -0.1021 -0.0730 -0.3066
22896W        W43176  13.441  10.985  10.853 -0.1060  0.0845 -0.2947
22897W        W43177   2.592  17.422  12.159 -0.0784  0.1407  0.1907
22898W        W43178   6.212   5.377   1.243 -0.2638 -0.1945  0.0738
22899W        W43179   3.706   1.010  14.485 -0.2764 -0.4976 -0.1339
22900W        W43180  17.582   4.969   3.052 -0.0481  0.0999  0.0382
22901W        W43181  13.423   8.950  11.630 -0.2512  0.0447  0.2811
22902W        W43182   5.269   0.735   3.246  0.3870 -0.2810  0.0227
22903W        W43183   0.497   9.679   0.247  0.0216 -0.2386 -0.3932
22904W        W43184   8.726  11.054   2.509  0.0374 -0.0028  0.2252
22905W        W43185   6.680   7.215  13.771 -0.1222 -0.0314 -0.1566
22906W        W43186   5.608   4.011   0.677  0.0507 -0.2400  0.3743
22907W        W43187   1.476  13.634   3.414  0.0379 -0.0482 -0.2137
22908W        W43188   4.412   1.699   0.520 -0.2291  0.2822 -0.0261
22909W        W43189  12.330   0.973   2.863 -0.0232  0.0863 -0.3391
22910W        W43190  18.023  18.402  12.921  0.4174  0.1444  0.3152
22911W        W43191  10.951   2.574  11.922 -0.4062 -0.1139  0.2917
22912W        W43192  17.758   4.948   2.113 -0.0760  0.1663  0.2835
22913W        W43193   8.571   4.971  12.131  0.2856  0.0403  0.1439
22914W        W43194  17.320   4.459  10.597 -0.1192 -0.0347  0.1461
22915W        W43195  12.270   9.063   2.100  0.0606 -0.1990 -0.0033
22916W        W43196  10.273  15.787   3.723  0.2287  0.1528  0.0779
22917W        W43197   7.086  15.840  10.973 -0.3798  0.0989 -0.0031
22918W        W43198  15.247   8.346  11.256  0.3000 -0.1198  0.4529
22919W        W43199   3.620   9.086  12.816  0.2688  0.0053  0.1630
22920W        W43200  12.185   2.172  13.935  0.0249  0.0741  0.2195
22921W        W43201  10.942  11.683  11.635 -0.0185  0.0940 -0.2705
22922W        W43202   7.185   0.685   4.597 -0.3882 -0.0167  0.0396
22923W        W43203   2.986  17.956  10.974  0.1371  0.1515 -0.1550
22924W        W43204  14.811   0.811  12.137 -0.0458  0.1968 -0.0686
22925W        W43205  19.033   9.074  13.536  0.0649 -0.0918 -0.0483
22926W        W43206   7.112   3.429   3.380  0.2891  0.2025 -0.2835
22927W        W43207   6.143  14.861  13.983 -0.2931 -0.1432 -0.2168
22928W        W43208  12.785   1.889  13.409  0.0540 -0.0902  0.2560
22929W        W43209   4.420   9.413  13.602  0.2018 -0.0767  0.1362
22930W        W43210   1.917   7.829   3.333 -0.0209  0.2137  0.2102
22931W        W43211  16.888   6.221  11.036 -0.1507 -0.3297 -0.0241
22932W        W43212  16.728  11.045  12.907 -0.0482  0.0858  0.0401
22933W        W43213  10.436  14.690  13.801 -0.0929 -0.1393 -0.4110
22934W        W43214  13.892   6.270   3.437  0.0540  0.0037  0.1134
22935W        W43215  15.411  11.173  11.945  0.2928 -0.0217 -0.0419
22936W        W43216  15.653   8.372   2.209  0.0775  0.1289  0.0373
22937W        W43217  18.907   2.301   1.558 -0.2031 -0.0756  0.0114
22938W        W43218  16.684  10.106  10.924 -0.1450  0.0083 -0.1063
22939W        W43219   0.946  11.699  10.092 -0.0199  0.2319  0.0910
22940W        W43220   8.598   9.273  12.811  0.0275  0.1252 -0.1390
22941W        W43221   3.032  17.900   2.096  0.2586  0.1195  0.1575
22942W        W43222   7.102  10.676  13.451 -0.3557  0.3111 -0.2802
22943W        W43223  19.059  14.407   0.424 -0.0031 -0.1014  0.2390
22944W        W43224   5.106  12.430  11.088 -0.1365 -0.0763 -0.3016
22945W        W43225   6.824  16.010   1.483  0.0696 -0.3359 -0.1739
22946W        W43226  12.464   9.210   2.719 -0.2507  0.0500 -0.2158
22947W        W43227   1.615   8.383  12.110  0.0957  0.0328  0.2580
22948W        W43228   4.209  17.670  13.884  0.1312  0.1443  0.0107
22949W        W43229  15.880   4.891   0.895  0.2758  0.1840  0.1227
22950W        W43230  14.744  17.519  12.627  0.0597  0.1492  0.1502
22951W        W43231   6.308  10.886  12.860 -0.0782  0.3036  0.1294
22952W        W43232   4.506   2.001  12.339 -0.0509 -0.2938  0.2175
22953W        W43233   4.937  18.561  13.062  0.0253 -0.0752 -0.1889
22954W        W43234   7.135  13.749   0.414  0.0816  0.2251 -0.1151
22955W        W43235  14.231   0.005   0.381 -0.0292  0.0228 -0.3165
22956W        W43236  12.780   4.818   1.452 -0.0798  0.2113 -0.4779
22957W        W43237  17.785   0.718   2.909 -0.0305 -0.3209  0.1300
22958W        W43238  12.179  13.306   0.694  0.0320  0.1837 -0.0580
22959W        W43239   0.299  18.287  12.420  0.3196  0.2920 -0.1625
22960W        W43240   0.833   5.276  11.409  0.0627 -0.2462  0.3318
22961W        W43241  16.788  18.649   2.834  0.2476  0.2844  0.0410
22962W        W43242  11.420  14.794  10.849 -0.1319  0.1368 -0.0539
22963W        W43243  15.537   4.012   3.901  0.0347  0.2132  0.1343
22964W        W43244  19.268  19.201   4.163 -0.1419  0.1030  0.0532
22965W        W43245  14.254  17.192  11.468  0.2233 -0.1583  0.1728
22966W        W43246   2.686   3.880  14.492  0.1638  0.0658 -0.0397
22967W        W43247   0.679   6.292   1.779 -0.3457  0.0750  0.1726
22968W        W43248  16.355  14.404   3.833  0.2314 -0.1757 -0.2456
22969W        W43249   0.814   8.758  11.210 -0.0323  0.0582  0.0455
22970W        W43250  13.252  12.151   3.462  0.3159  0.2293  0.3475
22971W        W43251   3.190   3.857   2.031  0.1450 -0.2978 -0.0207
22972W        W43252  15.160  16.401  13.342  0.0138  0.0532  0.3234
22973W        W43253   4.095   7.304  13.290 -0.0889  0.0567  0.1700
22974W        W43254  16.319  13.615   3.273 -0.0222  0.5523 -0.2058
22975W        W43255   7.082  13.580   1.320  0.5101 -0.2176 -0.3372
22976W        W43256   6.386  10.048  13.613 -0.0171  0.0367 -0.3639
22977W        W43257   1.302   2.470   3.538  0.0372 -0.2030 -0.0103
22978W        W43258  10.730   9.837   1.957 -0.3113 -0.2009 -0.1049
22979W        W43259   2.521  16.309  12.529  0.1570  0.2836 -0.0326
22980W        W43260  12.428  18.758   3.934  0.1211  0.1591 -0.1977
22981W        W43261   3.949   2.250  13.341 -0.0880  0.2810  0.1290
22982W        W43262  14.975   4.737   1.740  0.0735  0.1114 -0.1689
22983W        W43263  15.194  15.576   4.103 -0.1119 -0.0998 -0.0377
22984W        W43264  19.067  11.766  12.158  0.1979  0.0476 -0.1012
22985W        W43265  16.214  17.071  12.515 -0.0212 -0.3054  0.0969
22986W        W43266  13.553   7.748  13.913 -0.0275  0.0143 -0.1661
22987W        W43267   7.180  11.649   0.306 -0.0337 -0.1232  0.2352
22988W        W43268   5.211  18.854  11.719 -0.0801 -0.2548 -0.0284
22989W        W43269  13.832  10.940   2.216 -0.0604  0.0845 -0.3076
22990W        W43270   4.383  10.591   3.709 -0.0693 -0.0385 -0.0764
22991W        W43271  13.811  14.883   3.173 -0.0701 -0.0837 -0.0365
22992W        W43272  13.547   5.339   0.437  0.1762 -0.0970 -0.0225
22993W        W43273   5.795  12.228   0.627 -0.1025  0.0613  0.4904
22994W        W43274   6.386  12.685  12.628 -0.2557  0.2051  0.0884
22995W        W43275   3.651  12.834   0.467  0.2992 -0.1173  0.1770
22996W        W43276  17.323  14.260  12.120  0.0972  0.2222 -0.2390
22997W        W43277  18.990  11.855  13.871 -0.2337  0.3773  0.1543
22998W        W43278  18.166   7.649   0.145  0.1157  0.1066 -0.0894
22999W        W43279   8.765   5.433  12.485  0.0963  0.3032 -0.1492
23000W        W43280  18.336   2.877  12.039  0.4849  0.2599 -0.1165
23001W        W43281  10.819   6.303  11.184 -0.1664  0.1745 -0.2558
23002W        W43282   1.397  15.778   4.568 -0.0987 -0.0389 -0.2574
23003W        W43283  13.052   3.005  11.442 -0.0140  0.2770  0.0153
23004W        W43284   8.838  11.179   0.082  0.0894 -0.1626  0.1134
23005W        W43285   5.009  12.693  12.021  0.0864 -0.2116 -0.1021
23006W        W43286   2.927  17.326  13.835  0.2492  0.0590  0.0061
23007W        W43287  16.294  14.053   3.014 -0.1782  0.0202  0.1295
23008W        W43288  14.650  19.299   2.962  0.0816  0.2372 -0.2525
23009W        W43289  18.672   1.399   3.980 -0.3255  0.2534 -0.1983
23010W        W43290   5.127   7.534  12.983 -0.2076 -0.0845  0.0282
23011W        W43291   4.016   1.169  12.508  0.0411  0.1347  0.1467
23012W        W43292   2.288   0.307   3.402  0.4114 -0.2116 -0.0864
23013W        W43293  17.784   2.278  10.455  0.0109 -0.4747 -0.0948
23014W        W43294   4.207   4.468  11.089  0.0917  0.2192  0.1870
23015W        W43295  13.564  19.210  11.475  0.2368  0.2168  0.1648
23016W        W43296  11.044  10.877  14.461 -0.0114 -0.1822 -0.1437
23017W        W43297  15.485   9.953  12.142 -0.1093  0.3038 -0.2530
23018W        W43298   8.675   5.370   2.331  0.2251 -0.1307  0.2662
23019W        W43299  14.028  18.315  11.556  0.2482 -0.0935  0.1414
23020W        W43300  10.867  19.343  12.032 -0.0279  0.1735  0.0653
23021W        W43301   4.368   5.599  13.337  0.1525  0.0762  0.3882
23022W        W43302  14.158  14.381   3.626 -0.0849  0.3039 -0.1018
23023W        W43303   8.543   0.023   3.775  0.0321  0.0942  0.1489
23024W        W43304  12.465   2.183  11.609  0.1882  0.1600  0.1894
23025W        W43305  19.201  14.084   2.470 -0.1357  0.1625  0.0806
23026W        W43306   8.915  13.700  11.789  0.1485  0.1754  0.1521
23027W        W43307  11.498   6.170  12.681  0.4025 -0.0183 -0.2678
23028W        W43308   0.675   6.644   0.878 -0.1639  0.2758  0.1456
23029W        W43309  11.203   9.026  12.383 -0.3582  0.1893 -0.2708
23030W        W43310  13.209  10.476   2.702 -0.0102 -0.2740 -0.3406
23031W        W43311   0.713  18.797  10.859  0.1557 -0.1623 -0.5198
23032W        W43312   6.867  11.894   9.923 -0.0801 -0.1890  0.1507
23033W        W43313  16.399   2.655   0.147 -0.1584  0.0776 -0.3559
23034W        W43314  11.392  17.690   0.735  0.1902  0.3191  0.1869
23035W        W43315  14.728   3.316  14.236 -0.2504  0.3676  0.0623
23036W        W43316  17.303   3.094   1.463 -0.2999 -0.1365  0.1102
23037W        W43317   2.214   7.669  12.418  0.0158  0.0612 -0.0422
23038W        W43318   0.041   7.363   9.113  0.0033  0.1712  0.1795
23039W        W43319  10.645  13.679   2.210  0.0220 -0.1072  0.0995
23040W        W43320  16.583  18.619   9.486  0.0193 -0.0323  0.2271
23041W        W43321   8.057   3.039   2.290  0.2175  0.1012  0.0547
23042W        W43322  16.484   9.544  13.301  0.0442 -0.1539 -0.2601
23043W        W43323  15.657   4.453   4.070  0.1600  0.3148  0.1753
23044W        W43324   1.976  11.023   0.362 -0.0664 -0.0619 -0.0477
23045W        W43325  13.317  10.152  13.274  0.1247  0.1845  0.0007
23046W        W43326   7.525   4.293   3.816  0.0743  0.0190  0.0841
23047W        W43327  14.035  19.138  11.601 -0.1076  0.0588 -0.2032
23048W        W43328   4.640  18.957   2.017  0.0320 -0.2811 -0.0894
23049W        W43329   9.300  18.787  11.514  0.3640  0.1056 -0.0932
23050W        W43330  13.234  11.645   3.243 -0.2751 -0.0579 -0.0355
23051W        W43331  14.504  10.991   9.533  0.4125 -0.2262  0.1657
23052W        W43332   8.795  10.977   3.272  0.1881 -0.2464 -0.2941
23053W        W43333   7.783   7.504   2.302  0.0567  0.0680 -0.3152
23054W        W43334  10.121  15.538  10.917 -0.2392 -0.1916 -0.1769
23055W        W43335  12.943   5.307  12.846 -0.0685 -0.0054  0.0798
23056W        W43336  16.173   5.505   4.409 -0.2679  0.1812 -0.0384
23057W        W43337  11.546  18.808  13.601 -0.0386 -0.0665  0.1359
23058W        W43338   2.334   6.378   1.585  0.0914 -0.3510 -0.1944
23059W        W43339  17.934  17.739   1.352 -0.1682  0.1246  0.4025
23060W        W43340  17.845   4.912   2.614 -0.1689 -0.2781  0.1133
23061W        W43341  13.909  13.029  13.643 -0.0655 -0.0843 -0.0350
23062W        W43342   0.823   8.640   0.578 -0.4198  0.2405  0.3296
23063W        W43343   8.326   9.781  11.581  0.1910 -0.1798  0.3475
23064W        W43344   8.937  13.579   0.693 -0.0402 -0.3130  0.0773
23065W        W43345   1.545  11.530   1.231  0.0753 -0.0398 -0.0931
23066W        W43346   1.268   9.457   3.694 -0.0013 -0.3344 -0.0442
23067W        W43347   2.399  14.990  10.231  0.2186 -0.2314 -0.0739
23068W        W43348  13.962   1.542  11.159 -0.2176 -0.0298 -0.1413
23069W        W43349   2.505   3.542   3.041  0.2033  0.1460  0.1272
23070W        W43350  19.186   3.937   0.106 -0.2444 -0.0640 -0.1485
23071W        W43351  13.035   6.972  12.934 -0.1983 -0.0570  0.1996
23072W        W43352  14.986   8.230   2.932 -0.1024 -0.0097 -0.2142
23073W        W43353   0.792   2.105   0.869  0.0873 -0.0760 -0.2403
23074W        W43354  11.377   9.577   2.715  0.0501  0.0308  0.3413
23075W        W43355  16.675   4.086  12.919 -0.0194  0.0353  0.2918
23076W        W43356   7.495   8.337  10.738 -0.1840  0.2386  0.1407
23077W        W43357  15.750   4.216  11.857  0.1962 -0.0371 -0.0527
23078W        W43358   9.111   3.829  12.555  0.1370 -0.0355  0.0071
23079W        W43359   8.497   1.471  14.169  0.0676 -0.3152  0.3337
23080W        W43360   6.006   3.955  13.669  0.2071  0.2389  0.3666
23081W        W43361   7.706  16.724  13.385 -0.0767 -0.1097  0.1439
23082W        W43362   7.756   6.769   0.427 -0.1759 -0.0788  0.0114
23083W        W43363  12.203  16.294   0.645 -0.0944 -0.1565  0.1741
23084W        W43364  12.122   3.660  12.903 -0.0559 -0.2715  0.0619
23085W        W43365   4.746  11.322  12.894 -0.2528  0.1773 -0.1874
23086W        W43366  10.102   9.667  12.907  0.2136  0.1152  0.1647
23087W        W43367   5.495  16.940   1.775  0.3385 -0.3267  0.0192
23088W        W43368  13.699  16.166  12.615 -0.3149 -0.1260 -0.2908
23089W        W43369  18.956   4.453  11.548 -0.0180  0.1800  0.2972
23090W        W43370  10.022  12.986  13.678 -0.0132 -0.2771  0.1398
23091W        W43371  18.265   4.897   2.301 -0.0898  0.1998 -0.2092
23092W        W43372  10.965   5.895   4.304 -0.2891 -0.3346  0.0123
23093W        W43373  13.479  11.223   2.914 -0.0985  0.0409  0.5538
23094W        W43374   1.013  11.037  11.350 -0.1144 -0.0699 -0.1238
23095W        W43375  11.704  13.205  13.317 -0.2962 -0.0121  0.0222
23096W        W43376  10.018  13.382  13.988  0.1568 -0.2602  0.0334
23097W        W43377   9.301   4.223   0.891  0.2318 -0.1534  0.0201
23098W        W43378  13.763   2.722  14.389 -0.0855 -0.0651  0.1756
23099W        W43379  11.199  18.963   2.307  0.0337  0.0911  0.0643
23100W        W43380   5.772   2.623  12.094 -0.1232 -0.0229 -0.0271
23101W        W43381   4.546  14.787  12.809  0.0324  0.0512 -0.1388
23102W        W43382   0.939   7.014  10.431  0.0215  0.0579 -0.2465
23103W        W43383   4.966  19.343   4.166  0.2355  0.0922 -0.1550
23104W        W43384   7.737   2.336   0.228  0.0437  0.0892 -0.0575
23105W        W43385   6.692   3.958   0.739 -0.0454 -0.1935  0.0199
23106W        W43386   8.133  18.389   1.078  0.1960 -0.1649  0.2534
23107W        W43387  16.463  13.041   0.299 -0.2678 -0.3338  0.1743
23108W        W43388   9.939   1.757   2.469 -0.5976 -0.0716  0.4374
23109W        W43389   7.959   6.328  11.380  0.1990 -0.2579  0.0712
23110W        W43390  17.773  11.739   2.107  0.3666  0.0921  0.1708
23111W        W43391  12.588   2.265   5.268 -0.0044 -0.1968  0.1815
23112W        W43392   9.668   7.914   4.341  0.0049 -0.0893  0.0441
23113W        W43393   2.491   9.667  12.720 -0.2151  0.2699  0.0321
23114W        W43394   5.973  18.650  11.439  0.0748  0.0430 -0.0865
23115W        W43395  11.558   5.174  13.289 -0.3847  0.1749 -0.3104
23116W        W43396   2.376  12.727   3.539 -0.3850 -0.0065  0.4709
23117W        W43397   1.732  12.551   4.349 -0.1544 -0.0138 -0.2759
23118W        W43398   5.501  13.894  14.297 -0.2482  0.0853  0.0273
23119W        W43399   6.410   1.162  14.413 -0.2231  0.3249 -0.0606
23120W        W43400   8.094  19.273   4.308 -0.2208  0.0372  0.0276
23121W        W43401   6.773   9.927  11.266 -0.0545  0.0135  0.2138
23122W        W43402   7.018  14.283  13.492  0.2640 -0.1247  0.2182
23123W        W43403   7.665   9.687   3.059  0.2046  0.0574  0.1200
23124W        W43404  11.514   9.392  10.395 -0.1332 -0.1620 -0.3247
23125W        W43405  15.716  14.492   2.330 -0.0670  0.2367  0.0594
23126W        W43406  16.164  17.286  13.023  0.3305  0.1462  0.1356
23127W        W43407  10.893   5.141   0.813 -0.0324 -0.0808 -0.0665
23128W        W43408  13.080  13.333   1.234 -0.1021  0.3082  0.3171
23129W        W43409   1.649  17.080  13.126  0.1528 -0.2372 -0.1475
23130W        W43410  15.584  18.693  12.141 -0.1308 -0.0372  0.2548
23131W        W43411   0.145  14.001  10.131  0.2594 -0.0237  0.1677
23132W        W43412   5.928   3.646   3.911 -0.0288 -0.2821  0.0530
23133W        W43413  13.505  14.975   1.175  0.3025  0.0930 -0.0110
23134W        W43414  15.002   1.913  12.962  0.2022  0.4546  0.0848
23135W        W43415   1.437  11.754   3.017 -0.3118 -0.1286 -0.1255
23136W        W43416  19.189   3.113   4.539 -0.0075 -0.0924 -0.1450
23137W        W43417   5.958   1.345  13.982 -0.0842 -0.0603 -0.1663
23138W        W43418  15.458  15.846  11.374 -0.2220 -0.1606  0.2232
23139W        W43419  14.619  13.370   3.292  0.1105 -0.1083 -0.1027
23140W        W43420   8.885   5.851   0.505 -0.1051  0.1341 -0.0544
23141W        W43421   3.903   1.635   2.851 -0.1764  0.0804 -0.2407
23142W        W43422  14.417   5.086  13.239 -0.0706  0.2577 -0.0488
23143W        W43423  18.283  12.911   1.756  0.4264  0.1988 -0.2216
23144W        W43424   5.276  10.831  13.186 -0.3537 -0.1013  0.2049
23145W        W43425   3.185  14.076  14.366  0.0878 -0.0165 -0.2794
23146W        W43426   3.962  13.789  11.727  0.2008  0.0050 -0.0246
23147W        W43427   2.285  17.061   4.252  0.1097 -0.1517 -0.1889
23148W        W43428  12.455  19.396  12.819 -0.0542  0.1673  0.1564
23149W        W43429  10.934  10.108  12.858  0.2232  0.3520  0.1138
23150W        W43430   9.896  17.673   1.136 -0.0348 -0.3002 -0.0231
23151W        W43431  15.414  12.222  13.722 -0.2639  0.0742  0.0661
23152W        W43432  10.651   9.882   2.858 -0.1533  0.0235 -0.0347
23153W        W43433   8.743  18.076  11.575  0.2133 -0.3518 -0.0181
23154W        W43434   2.254  16.925   1.832  0.2424  0.0552  0.3255
23155W        W43435  19.019   1.102   3.837  0.1382 -0.2824  0.1631
23156W        W43436  18.405   7.261   0.462 -0.1243  0.0133  0.2938
23157W        W43437  14.981   7.764  10.398  0.2803  0.2734  0.0447
23158W        W43438   8.487   9.758  12.529  0.1253  0.0084  0.2658
23159W        W43439   1.445  13.198  13.067  0.3300 -0.1292  0.3037
23160W        W43440  10.196   5.739  12.727  0.2057 -0.0298 -0.0204
23161W        W43441  13.366   1.818  14.154 -0.2134 -0.0241 -0.2502
23162W        W43442  10.173  13.805  13.736 -0.1341 -0.1572  0.0739
23163W        W43443   6.234  16.474   0.035 -0.4508  0.1339 -0.1183
23164W        W43444  10.481  13.975   1.073  0.1102  0.2692  0.0086
23165W        W43445   2.379   7.797   0.274 -0.1061 -0.0905 -0.2251
23166W        W43446  18.272   2.805  13.533  0.1174  0.2853 -0.1326
23167W        W43447   2.682  18.835  11.137 -0.0415  0.1359  0.0263
23168W        W43448   8.781   7.705   3.182 -0.1209  0.3914 -0.1961
23169W        W43449  13.280  12.316   1.047 -0.0901 -0.4227  0.1317
23170W        W43450  13.491  14.764  12.034  0.0381  0.0797  0.0098
23171W        W43451  18.007   1.757  11.950 -0.1197 -0.1002  0.0588
23172W        W43452  19.136  16.081  11.670 -0.0167  0.1418  0.0783
23173W        W43453   9.275   9.889   1.333 -0.0479  0.1239 -0.0428
23174W        W43454   6.910   0.025  13.391 -0.1088  0.1114 -0.0508
23175W        W43455  12.969  11.000   0.326 -0.1189 -0.2325 -0.1902
23176W        W43456   3.812   9.976   2.286 -0.0951 -0.2548 -0.0443
23177W        W43457   6.518  19.089   1.926  0.0907  0.0570  0.0884
23178W        W43458   8.537  17.525  14.403  0.0118  0.0789 -0.1694
23179W        W43459   4.999  13.894  10.798 -0.0693  0.0250 -0.2528
23180W        W43460  12.617   4.304  14.406 -0.0356  0.0013  0.3117
23181W        W43461  16.986   5.810   2.943  0.1229  0.0751  0.1149
23182W        W43462  16.521  17.799   2.843 -0.0840 -0.1668  0.0273
23183W        W43463   6.372  15.487  13.231  0.0653 -0.0433 -0.2253
23184W        W43464  14.227  17.578  13.607 -0.0141  0.2906 -0.2221
23185W        W43465   4.573   3.167   2.119 -0.2007  0.0699  0.2226
23186W        W43466   4.647  18.713   9.949 -0.2279  0.0278 -0.3025
23187W        W43467   6.157  15.549  10.063 -0.4462 -0.0844 -0.1340
23188W        W43468   6.130  13.675  10.633 -0.3737 -0.3598  0.3115
23189W        W43469  16.769   5.127  11.041 -0.0651  0.0957 -0.0381
23190W        W43470   8.427   8.103   2.692 -0.0758  0.2338 -0.0322
23191W        W43471   4.375  18.021  11.168 -0.0177  0.0145  0.0353
23192W        W43472   6.388  11.737   0.617 -0.0864  0.2493  0.3270
23193W        W43473   9.549  19.254   0.486 -0.1080  0.1546 -0.0027
23194W        W43474  10.491   2.316   9.980 -0.0596  0.1056 -0.0416
23195W        W43475   9.229   7.411   2.324  0.1261 -0.1375 -0.0050
23196W        W43476   0.287   8.861   0.938 -0.0829  0.1265  0.2570
23197W        W43477   8.247   8.230  10.255  0.1167  0.1741 -0.1139
23198W        W43478  12.943   7.320   2.138  0.1151 -0.0509  0.0546
23199W        W43479   3.465  14.017  13.004  0.0908 -0.1885 -0.2822
23200W        W43480   0.390  15.252   9.311 -0.0304 -0.1183  0.0713
23201W        W43481   7.357   2.181  11.702  0.0523  0.2781  0.3465
23202W        W43482   2.901  14.715   3.138 -0.4393  0.0654 -0.0252
23203W        W43483   9.006  11.568   1.916  0.1429 -0.1556  0.1907
23204W        W43484   8.928   8.283   3.972  0.4216 -0.0147 -0.2169
23205W        W43485   5.664   5.213   0.253 -0.0501 -0.0128  0.1016
23206W        W43486  11.518  16.578  13.908 -0.0056 -0.1083 -0.3106
23207W        W43487   0.752  16.009   0.327 -0.0596  0.0222 -0.1373
23208W        W43488   4.552  19.303  12.883 -0.0658 -0.1990  0.0129
23209W        W43489  12.036   8.782   0.390  0.2632  0.3277  0.0246
23210W        W43490  16.312  12.662  12.263  0.3458  0.1905 -0.1313
23211W        W43491  16.000  17.022   3.276 -0.0816 -0.1666  0.1972
23212W        W43492   8.431   1.259   1.411 -0.2196 -0.1241 -0.1044
23213W        W43493  19.280  17.188  14.313  0.3458 -0.1559 -0.1161
23214W        W43494  12.831  12.742  11.164  0.2005 -0.2063  0.1095
23215W        W43495  15.249   6.073   0.256 -0.1117 -0.2117  0.0802
23216W        W43496  14.802  17.045  11.544  0.0925 -0.2127 -0.1276
23217W        W43497   5.112  11.089   0.534 -0.1313  0.4291  0.1321
23218W        W43498  12.625  14.052  12.393 -0.2456 -0.0634  0.0511
23219W        W43499   0.114  11.208  14.399  0.2903  0.0634 -0.2688
23220W        W43500   8.599  11.839   1.781  0.2018  0.1954 -0.0057
23221W        W43501   3.830   1.961  11.697 -0.3135 -0.1953  0.5746
23222W        W43502   1.839  17.340   0.531  0.0296 -0.2190  0.0239
23223W        W43503  17.579  17.792  10.762  0.2219 -0.2011  0.0936
23224W        W43504  13.082   3.284   3.485 -0.0876  0.0293 -0.1004
23225W        W43505   3.653   6.528  13.825 -0.1900  0.3506  0.2154
23226W        W43506  19.250   2.036   3.810 -0.1431 -0.0673  0.0445
23227W        W43507   9.959   4.804   3.756 -0.0346 -0.1035  0.0324
23228W        W43508   6.074   4.846   2.829  0.0800  0.0820 -0.2193
23229W        W43509   4.536  18.960   1.074 -0.0660  0.0076 -0.2286
23230W        W43510   3.049   0.802  13.855  0.0004  0.3432  0.0236
23231W        W43511   6.830   8.878  11.495  0.0602 -0.2579  0.1868
23232W        W43512  14.145  18.951  12.044  0.0733 -0.0324 -0.3315
23233W        W43513  17.009  15.509   2.468  0.2065 -0.0731  0.2100
23234W        W43514   8.726   8.896  13.303  0.2543 -0.0471 -0.3379
23235W        W43515  17.643  11.005  13.382 -0.3502 -0.1417 -0.2936
23236W        W43516   3.807   2.920  13.779  0.3297  0.2510  0.2817
23237W        W43517  11.061   5.691   0.888  0.2566 -0.1698  0.3037
23238W        W43518  19.079  16.771   3.749  0.1158  0.0208  0.0238
23239W        W43519   9.328   7.135  10.704 -0.1971 -0.2503 -0.2254
23240W        W43520  15.272   1.649  14.337  0.3182 -0.2618 -0.0513
23241W        W43521   9.453  12.235  11.865 -0.0223 -0.1549  0.1798
23242W        W43522   8.009  17.262  12.152  0.0455 -0.0317 -0.1424
23243W        W43523   2.475   4.258   3.446 -0.0422 -0.1282 -0.2272
23244W        W43524   9.293   1.120  12.899 -0.0309  0.2068 -0.4121
23245W        W43525   2.966  17.054  10.443 -0.0160 -0.0133  0.0470
23246W        W43526  18.097   7.317  10.810 -0.1062  0.4008 -0.1652
23247W        W43527   2.561   6.446  13.120  0.2336  0.0626  0.4029
23248W        W43528   7.725  10.181  13.824  0.1993  0.0732  0.0999
23249W        W43529   6.030  15.871   1.348 -0.0419  0.0332 -0.0759
23250W        W43530  12.355   1.497   0.728 -0.0225  0.2005  0.2946
23251W        W43531  10.102  18.947   0.223 -0.1955 -0.1913 -0.0960
23252W        W43532   1.387   0.331   1.079 -0.4035  0.2760 -0.0726
23253W        W43533  10.093  10.828   1.298 -0.1073  0.3193  0.0685
23254W        W43534   8.815   1.308  12.845  0.2981  0.1402 -0.1530
23255W        W43535  11.251   2.817  13.535  0.2224  0.0733  0.0702
23256W        W43536   3.776   2.311  13.772  0.1705  0.3324  0.1156
23257W        W43537   7.685  10.547  11.766  0.2594 -0.1819 -0.0304
23258W        W43538  16.068   3.233   0.876 -0.0719 -0.1970 -0.3021
23259W        W43539  19.368  13.328  11.913  0.2919 -0.0887 -0.0517
23260W        W43540  12.385   4.121  13.558  0.1751 -0.1236 -0.0579
23261W        W43541  13.061  10.951   2.698  0.0327  0.0813 -0.4209
23262W        W43542  17.067   1.850  11.073  0.1268 -0.1641  0.4012
23263W        W43543   1.386   3.966  10.941 -0.1444  0.1815  0.1524
23264W        W43544   2.918   6.510  13.486  0.3095  0.1324 -0.1159
23265W        W43545   1.651   7.509   4.062 -0.0021 -0.0531 -0.3038
23266W        W43546  17.904  12.165  13.827 -0.1550 -0.1207 -0.3640
23267W        W43547   7.764  15.972   1.848  0.2177  0.1412 -0.3173
23268W        W43548   1.542  11.364  10.794  0.0702 -0.1261  0.1151
23269W        W43549   1.998  12.425   2.805  0.1866  0.3413  0.0083
23270W        W43550  11.400  19.247   1.914 -0.0841  0.1085 -0.0134
23271W        W43551   3.359  11.699   3.831  0.3936 -0.1624 -0.0632
23272W        W43552   2.580  17.827   0.174  0.2367 -0.0899 -0.0450
23273W        W43553  12.190  15.982  11.955 -0.0513 -0.1726 -0.1471
23274W        W43554  15.112   4.796   2.262 -0.3268 -0.0718 -0.0393
23275W        W43555   3.319  18.875  13.476 -0.2753  0.2125 -0.1371
23276W        W43556   7.345  15.213   2.091  0.0305 -0.2660  0.0570
23277W        W43557   6.889   6.532   1.530  0.3174 -0.0193 -0.1250
23278W        W43558   2.166  15.482  12.788  0.0905 -0.3225 -0.0973
23279W        W43559   1.860  11.605  11.230 -0.2837  0.2388  0.0073
23280W        W43560   0.767   4.579  12.194 -0.2285 -0.2850 -0.0835
23281W        W43561   2.475   9.490  11.035 -0.0804 -0.1275  0.2130
23282W        W43562  18.661   5.943  12.696 -0.3171 -0.1004 -0.0715
23283W        W43563   0.205  11.045  12.759  0.1589  0.0333 -0.2364
23284W        W43564   6.708  14.481   2.343 -0.4540  0.1380  0.0379
23285W        W43565   7.616  14.795   0.967 -0.2730 -0.0800  0.0841
23286W        W43566   4.468   3.359   2.978  0.4102  0.3361  0.1447
23287W        W43567   5.436   3.352   1.928 -0.2481 -0.0606 -0.0270
23288W        W43568   5.310  17.963   1.975  0.0967  0.0965 -0.0124
23289W        W43569   3.861  17.246  14.122  0.0739  0.4482  0.1475
23290W        W43570  10.282   0.109   1.996  0.0160  0.0197 -0.3058
23291W        W43571   2.188   8.532   3.940 -0.1143 -0.0966 -0.2751
23292W        W43572   0.334  16.074  10.805  0.0596  0.0941  0.2049
23293W        W43573   5.789  17.339   1.912 -0.0513 -0.1369 -0.0377
23294W        W43574  17.680  14.257  10.969  0.2089 -0.0168 -0.2242
23295W        W43575  17.896   1.623   3.660 -0.1017 -0.0149  0.1254
23296W        W43576   6.904   0.243  12.091  0.2951  0.1607  0.0991
23297W        W43577   9.959   8.353  10.704 -0.2198 -0.0612  0.0077
23298W        W43578  14.933   5.794   0.054  0.2189  0.1144 -0.1984
23299W        W43579  13.301   9.482   4.173 -0.2130 -0.0190  0.4788
23300W        W43580   9.902  14.365   1.894  0.0280 -0.1606 -0.0507
23301W        W43581   7.708  17.982   9.483 -0.1122 -0.0740 -0.0753
23302W        W43582   7.926   3.288   1.857 -0.1730 -0.1122  0.2504
23303W        W43583   8.202  12.139  12.530  0.0634 -0.3697 -0.1025
23304W        W43584   1.124  16.543   3.009  0.0037 -0.3107 -0.1864
23305W        W43585  13.894   6.526  10.835  0.2168  0.3385 -0.0848
23306W        W43586   8.526   0.034  13.481  0.3184 -0.2840  0.2707
23307W        W43587  10.192  18.118   4.145  0.0624  0.1825  0.1904
23308W        W43588  17.870   7.058   3.245  0.1272 -0.0675  0.1738
23309W        W43589  13.954  18.182   3.227  0.1909 -0.0222  0.1237
23310W        W43590  14.746  12.242  12.116  0.2080 -0.1063 -0.1105
23311W        W43591   7.473   8.714  13.076 -0.1117 -0.0656  0.1388
23312W        W43592  16.739  10.485  12.242  0.1752  0.1630  0.0554
23313W        W43593  14.637   0.351   1.081 -0.2234  0.2196  0.1889
23314W        W43594   5.480   8.353   0.252  0.0830  0.2093 -0.2821
23315W        W43595   8.608   9.127   2.108  0.1188 -0.1415 -0.2357
23316W        W43596  10.879  14.684   1.158  0.2014  0.0185 -0.0149
23317W        W43597   6.454   8.793   0.491 -0.1317 -0.3522 -0.3791
23318W        W43598   8.812   9.938  11.684  0.0542 -0.0805 -0.1186
23319W        W43599   4.069  16.020  13.604  0.1513 -0.1649  0.3535
23320W        W43600   6.471   0.086  12.330 -0.0366  0.0185 -0.2913
23321W        W43601  10.823  14.017  14.305  0.1677  0.0526  0.0570
23322W        W43602  17.148   9.630  12.747 -0.0050  0.0414  0.2915
23323W        W43603  14.030  13.465  12.290  0.0057 -0.0719 -0.3172
23324W        W43604  14.692   3.844  14.041 -0.1309 -0.0922  0.2154
23325W        W43605  12.860  13.170  11.994  0.1404  0.1914  0.0330
23326W        W43606  13.391  10.778   0.056  0.4047  0.0958 -0.0679
23327W        W43607  12.547   3.534  13.156  0.0404  0.1975 -0.1796
23328W        W43608  17.345   9.285  12.344 -0.3213  0.1884  0.0123
23329W        W43609   3.772   5.460  12.100  0.1808 -0.2913  0.2567
23330W        W43610   5.797   9.486  11.286 -0.4451 -0.1776 -0.1195
23331W        W43611   2.207   7.273   3.944  0.3056 -0.2363 -0.0241
23332W        W43612   1.604   8.890  14.146  0.1689  0.0504  0.0175
23333W        W43613  16.384   6.517  13.856 -0.0437  0.0277  0.2351
23334W        W43614  16.797  15.290   2.934 -0.1699 -0.1769 -0.1691
23335W        W43615   4.169   5.954  13.075 -0.0880 -0.0410 -0.4287
23336W        W43616   7.550   8.305   5.009 -0.0418  0.0537  0.1719
23337W        W43617   2.149   9.680   1.863  0.0328  0.0836  0.0152
23338W        W43618   0.698  19.168   4.050 -0.3673  0.0268 -0.0060
23339W        W43619   4.492   0.742   0.701  0.2918 -0.0570  0.0427
23340W        W43620  16.764   2.085  13.556  0.2143  0.2698 -0.0086
23341W        W43621   1.999  11.834   1.245  0.0280  0.2760 -0.1908
23342W        W43622   2.919   3.395   0.968 -0.1544  0.1634 -0.1264
23343W        W43623  10.220   0.033  13.007  0.3343 -0.1050 -0.0877
23344W        W43624  14.608  15.457  14.147 -0.0596 -0.2323 -0.0126
23345W        W43625   0.382  13.913  10.656  0.1784  0.4100 -0.1586
23346W        W43626  17.024  14.922   4.259  0.1368  0.0320 -0.0831
23347W        W43627   3.843   5.929  10.855  0.4367  0.1589  0.0812
23348W        W43628   6.648  11.662   3.416  0.2119 -0.1716 -0.2162
23349W        W43629  10.190  12.546   3.291  0.0045 -0.1796  0.3131
23350W        W43630  16.917   6.807  13.010  0.5066 -0.0679  0.4032
23351W        W43631  13.534   2.206  13.204  0.2215  0.0791 -0.1669
23352W        W43632  11.323  17.297  14.473  0.0458  0.1858  0.1992
23353W        W43633   3.591  18.544  13.230 -0.1048 -0.1274  0.0430
23354W        W43634   2.049  10.574  12.272  0.1628  0.2038  0.0526
23355W        W43635   0.183  15.264   0.661  0.1164 -0.1433  0.0770
23356W        W43636   0.141  16.372  13.819  0.1240  0.2577  0.0721
23357W        W43637  14.919  17.114   1.146 -0.2259 -0.1081  0.1825
23358W        W43638   7.874   0.511  11.918  0.1361  0.0357  0.0639
23359W        W43639  13.486   8.458   0.338  0.1565  0.1637  0.3567
23360W        W43640  13.676  19.162  13.121 -0.0552 -0.1185 -0.0264
23361W        W43641  18.689  13.926  12.936 -0.1187 -0.1449 -0.3995
23362W        W43642   5.503  19.054   4.042 -0.0727  0.2579 -0.0874
23363W        W43643   1.510   2.691  13.409  0.0477 -0.2066  0.2065
23364W        W43644  12.877   1.989  13.924  0.0517  0.0455  0.0968
23365W        W43645  15.771   3.821   0.185 -0.0632  0.2234  0.0804
23366W        W43646   8.325  11.307   0.145  0.0057  0.0063 -0.2320
23367W        W43647   1.154   6.111  13.283  0.0959  0.2491  0.0685
23368W        W43648   5.383   8.779   3.871 -0.1221 -0.0946  0.2077
23369W        W43649   4.098  15.772  10.641  0.0280  0.2869 -0.1925
23370W        W43650  19.363   2.338  13.257 -0.0632  0.1735 -0.3342
23371W        W43651  12.973   9.206   0.234  0.2219  0.0883  0.1943
23372W        W43652   9.825   8.538  10.207  0.0847 -0.0784  0.1875
23373W        W43653  14.176  11.878  10.378 -0.3184  0.2923 -0.1830
23374W        W43654   8.087   8.136  14.058 -0.0457  0.0769 -0.0129
23375W        W43655  15.208  16.809  12.446  0.1100 -0.1977  0.0119
23376W        W43656  16.816  10.088   2.945  0.0061 -0.0218 -0.1427
23377W        W43657   1.365   7.622  10.095 -0.0482  0.3275  0.1372
23378W        W43658  15.975  18.669   3.042 -0.0964 -0.0528 -0.1616
23379W        W43659   1.374  10.960   3.395 -0.0112  0.1878 -0.2332
23380W        W43660  18.302  11.523   0.223  0.2516 -0.2152 -0.2853
23381W        W43661   4.037  10.745   3.060  0.1770  0.0762 -0.1737
23382W        W43662  16.427   5.111  14.282  0.0349  0.1246 -0.0488
23383W        W43663  18.475  15.012   4.506 -0.0378  0.1460 -0.1829
23384W        W43664  16.057   4.554  11.048  0.4299 -0.1057  0.1563
23385W        W43665   0.558   8.370   2.118  0.4991  0.0631 -0.3735
23386W        W43666  17.027   4.563   0.979 -0.2451  0.1083  0.1037
23387W        W43667  10.497   6.553  12.524 -0.1900 -0.3053 -0.3936
23388W        W43668   8.227  13.241  12.064  0.0220  0.1946 -0.0964
23389W        W43669  13.016  19.293  11.565  0.0227 -0.1662  0.1118
23390W        W43670   0.516   6.757   2.838 -0.1414  0.2013 -0.2613
23391W        W43671   2.724  18.272   0.900  0.0741 -0.1021 -0.2038
23392W        W43672  17.697   1.015  10.499  0.0718 -0.2488  0.0869
23393W        W43673  16.494   4.318  11.263  0.1439 -0.2634 -0.2423
23394W        W43674  15.611   6.056   2.362  0.0657  0.2254  0.1091
23395W        W43675   5.778  18.209  14.487 -0.2070 -0.2149  0.2363
23396W        W43676   1.031   6.568   2.755 -0.0178 -0.1638  0.0305
23397W        W43677   6.122  16.314  13.256  0.1899  0.1513  0.1710
23398W        W43678   5.639  13.879   3.187 -0.0526  0.1188 -0.0338
23399W        W43679  18.376   8.632   2.768  0.1633 -0.1549 -0.0051
23400W        W43680  12.560   2.268   2.647  0.4717  0.0270  0.1363
23401W        W43681   3.400   9.435  10.896 -0.0478 -0.1654 -0.2315
23402W        W43682  11.605  13.115  12.821 -0.2145 -0.0498  0.2801
23403W        W43683  12.545   8.184   0.798  0.0262 -0.2168  0.2961
23404W        W43684  17.320   5.366  14.395  0.1447 -0.0227 -0.2584
23405W        W43685   7.521  17.994   0.972 -0.0671  0.0352 -0.2013
23406W        W43686   8.851   6.765  11.754 -0.0988  0.2417 -0.0985
23407W        W43687   8.066  18.697   3.375  0.0963 -0.0550 -0.0887
23408W        W43688  11.105  19.215  13.425 -0.0378 -0.1254  0.3561
23409W        W43689  13.641   7.126   0.734  0.0737 -0.3239  0.2013
23410W        W43690   0.650  16.611   2.964 -0.2433 -0.3189  0.0881
23411W        W43691   0.800   8.122   2.525  0.0777 -0.2696 -0.0500
23412W        W43692   6.875  15.598   3.897  0.3602  0.2250 -0.1131
23413W        W43693   3.651   4.990  11.771  0.1431  0.0580  0.2556
23414W        W43694  17.369  13.818   1.008 -0.1139 -0.1203  0.1696
23415W        W43695   8.362  14.112   3.017 -0.0704  0.1114  0.3026
23416W        W43696   6.233   7.512  11.889 -0.8226 -0.1519 -0.2645
23417W        W43697   7.748  12.925  10.673 -0.1851  0.4294  0.0589
23418W        W43698   8.211  13.511  11.287 -0.5526  0.0454 -0.2205
23419W        W43699   3.360   4.100   3.055 -0.1717 -0.1224  0.0999
23420W        W43700   4.081  18.329   3.875  0.0776  0.0337  0.0863
23421W        W43701  16.281  16.887   1.282  0.3277 -0.0328 -0.1029
23422W        W43702   8.744   0.339   1.390  0.0411 -0.0850 -0.2819
23423W        W43703   7.224  18.802   3.423  0.2831  0.0948  0.1580
23424W        W43704   8.682  10.021   3.388 -0.0123  0.2341  0.0866
23425W        W43705   9.665  18.082   3.065  0.1617 -0.2436 -0.3123
23426W        W43706  12.100   8.275  14.027 -0.2467 -0.1332  0.0742
23427W        W43707   7.444  16.402   0.527  0.0147  0.0277 -0.2388
23428W        W43708   2.644  11.508  13.059  0.1186 -0.1405  0.2740
23429W        W43709  10.312   9.799  13.905  0.0643 -0.0249  0.2175
23430W        W43710  12.340  17.375  14.202 -0.4102 -0.1433 -0.1152
23431W        W43711  10.073  19.357   0.548 -0.1516  0.1240 -0.1354
23432W        W43712  13.097  17.347   1.315  0.1823  0.0316  0.3388
23433W        W43713   1.751  15.550   1.864 -0.0139 -0.1895 -0.1742
23434W        W43714  11.756  12.667  12.574 -0.3358  0.3047 -0.1968
23435W        W43715  10.103  12.425  14.267 -0.0658 -0.0700 -0.0822
23436W        W43716   6.708   8.096  10.254 -0.1696 -0.0865  0.3786
23437W        W43717  12.742   6.474  11.529 -0.1794  0.0907  0.0232
23438W        W43718   5.018  11.825  13.743 -0.2834  0.0428 -0.3667
23439W        W43719   5.461   2.574   1.480  0.0253  0.2542  0.0822
23440W        W43720   4.336  15.631   2.301  0.1085  0.3249  0.0859
23441W        W43721  12.549  16.149  13.341 -0.1898 -0.1103 -0.0797
23442W        W43722   0.270  18.961   0.787 -0.0648  0.1109 -0.0400
23443W        W43723  17.811   4.550  10.505 -0.2521 -0.2482 -0.0309
23444W        W43724  17.583   6.527   0.055 -0.0820 -0.1945 -0.1069
23445W        W43725  13.442   4.029  10.703 -0.0099  0.0964 -0.2113
23446W        W43726   7.786   1.443  11.788  0.0147  0.1680 -0.3349
23447W        W43727  18.640   9.180  10.249  0.4885 -0.0428  0.1783
23448W        W43728   5.222  12.054  10.327  0.2911  0.3050 -0.1338
23449W        W43729  15.212   5.447  12.176  0.5753 -0.1122 -0.3321
23450W        W43730   5.387   7.992   3.538 -0.1245 -0.3129 -0.3530
23451W        W43731  10.777  18.797   1.938  0.0752 -0.2656  0.2096
23452W        W43732  10.915  13.522  14.143 -0.0231 -0.3351  0.0469
23453W        W43733  10.075   9.315   2.376 -0.0698  0.1768 -0.1541
23454W        W43734  14.535   5.860  13.752  0.0357  0.0054 -0.1373
23455W        W43735  13.417   4.733  12.565  0.1873 -0.1169  0.1031
23456W        W43736  15.074   0.706  12.673 -0.3493 -0.1813 -0.0156
23457W        W43737  19.136   7.179   3.757 -0.1957  0.1204 -0.1055
23458W        W43738  14.867  10.288   0.899  0.1127 -0.0964 -0.0792
23459W        W43739  16.009   9.330  11.729 -0.0365  0.3530  0.1244
23460W        W43740   5.733   3.545   9.418  0.0283 -0.2946  0.1723
23461W        W43741   5.064  11.418  12.503 -0.2931 -0.1959 -0.0497
23462W        W43742   3.712   6.047   2.806 -0.0875  0.1466  0.0466
23463W        W43743   7.413   2.284   4.545  0.3145  0.1350 -0.1116
23464W        W43744  19.344   4.926   3.559  0.1086 -0.0784 -0.1214
23465W        W43745  16.176   2.995  10.920  0.0801 -0.2108  0.0673
23466W        W43746  16.730  19.241  10.666  0.0110 -0.0075  0.2561
23467W        W43747  17.748   1.105  11.417 -0.4946  0.1564  0.0260
23468W        W43748   8.646  17.669  12.897 -0.1423 -0.1749  0.1702
23469W        W43749  18.263  11.292   9.896  0.3742  0.2143  0.1148
23470W        W43750  17.323  16.954   2.367 -0.0933  0.2220 -0.1033
23471W        W43751   5.165   0.896  11.887  0.1873 -0.2930 -0.0984
23472W        W43752   8.147   2.924  13.751 -0.0314  0.1137  0.0741
23473W        W43753  13.397  11.556   3.810  0.2447  0.0637  0.3768
23474W        W43754  18.854   8.004  14.220 -0.0298  0.2212  0.0395
23475W        W43755  13.495  12.930   3.003  0.1093 -0.1571 -0.4114
23476W        W43756   2.703  13.662  12.563 -0.3139 -0.1707  0.1102
23477W        W43757  17.489   0.288   2.644 -0.1623  0.2675 -0.2522
23478W        W43758   3.813   7.938  11.054  0.1422  0.3759 -0.1426
23479W        W43759  16.738   1.647   3.098  0.0331 -0.0234 -0.3056
23480W        W43760  13.558  17.622  14.383 -0.0803  0.1410  0.1368
23481W        W43761   2.556  13.629   0.964  0.0601 -0.1362  0.2603
23482W        W43762  13.069  14.751   1.394  0.1565 -0.1084 -0.0350
23483W        W43763   2.944  18.755   3.209  0.0902  0.0273 -0.1883
23484W        W43764   9.612   9.593  12.279  0.2379  0.1002 -0.2563
23485W        W43765  13.780   7.995   2.683  0.2602  0.2550  0.0481
23486W        W43766   8.761  14.886   1.703 -0.3944  0.3302  0.2617
23487W        W43767   7.890   9.643   4.937 -0.2572  0.3801 -0.3441
23488W        W43768  15.515   9.863   2.234  0.2152 -0.0616  0.0965
23489W        W43769   0.731   7.514  14.197  0.0328  0.1330  0.0908
23490W        W43770   8.897   5.777  13.811 -0.0347 -0.0560 -0.0451
23491W        W43771   3.369  15.297  10.257  0.2754  0.1185  0.0451
23492W        W43772   4.504  11.328   0.635 -0.1242 -0.1871 -0.2438
23493W        W43773  17.311  10.342   1.262  0.0155  0.0548 -0.3483
23494W        W43774  14.247   8.979   0.597  0.4075  0.0754  0.1864
23495W        W43775   9.618   1.041  12.497  0.0917 -0.0129 -0.1446
23496W        W43776  17.508  13.565  11.418 -0.1288 -0.1532  0.1194
23497W        W43777  10.087   3.729  12.717  0.2738  0.0587 -0.0613
23498W        W43778  13.088  19.366   4.475 -0.1820 -0.2886 -0.0513
23499W        W43779   2.769  13.812  14.071 -0.1587  0.2239  0.2782
23500W        W43780   4.154  18.387  12.876  0.0014 -0.0092  0.0423
23501W        W43781  13.936   5.180  13.421  0.1003 -0.1081 -0.0894
23502W        W43782  17.445   1.674  12.990  0.1241 -0.1440 -0.1564
23503W        W43783  10.717  13.490  11.944 -0.1353 -0.3246  0.3873
23504W        W43784  15.260  14.975  11.640 -0.0778 -0.0385  0.0217
23505W        W43785  10.873   7.833  10.952 -0.0240 -0.2883 -0.2135
23506W        W43786   6.927  11.909  13.934 -0.2853  0.0386 -0.0754
23507W        W43787   1.693   8.505  10.255 -0.0340 -0.1433 -0.2371
23508W        W43788   6.279   8.302   2.425 -0.2292 -0.1549 -0.2014
23509W        W43789  15.656  18.480   3.410  0.0448 -0.2163  0.3772
23510W        W43790   0.363  15.244  10.029 -0.0168 -0.0873  0.0452
23511W        W43791  16.803  11.927   3.792  0.0797  0.2979  0.0318
23512W        W43792   8.003   3.027   0.830  0.2581  0.0459 -0.0356
23513W        W43793  12.873   3.599  13.943 -0.2572 -0.1619  0.1355
23514W        W43794  14.337   6.894   4.029  0.4034  0.2128  0.4609
23515W        W43795  10.967   5.369   9.886  0.1140 -0.1867  0.1625
23516W        W43796   4.724  12.220   0.854 -0.0999  0.0423 -0.0414
23517W        W43797  16.920   3.368  14.255  0.0767  0.0379 -0.0708
23518W        W43798   8.504   7.618   2.763  0.4007 -0.2176 -0.0415
23519W        W43799  12.934   4.230  13.179  0.0959 -0.0845 -0.3771
23520W        W43800  10.816  17.954  11.183  0.0123  0.0983 -0.1958
23521W        W43801  17.311   8.934   3.326 -0.0771 -0.1008  0.3762
23522W        W43802   6.082  10.972   3.337  0.2453 -0.2903 -0.0313
23523W        W43803  15.129  13.740   4.110 -0.0187  0.2163  0.3944
23524W        W43804  17.124   8.994  13.607  0.3215 -0.1820  0.0541
23525W        W43805  14.118  12.027  14.421 -0.0333 -0.0472 -0.0071
23526W        W43806  18.088  11.399  14.250  0.2977 -0.0980  0.3649
23527W        W43807  18.928   2.703  12.487 -0.0825 -0.0601 -0.1396
23528W        W43808   1.607  19.403   3.552  0.0049  0.1148 -0.0473
23529W        W43809  15.787   7.707   0.126 -0.0727 -0.0111  0.0150
23530W        W43810  18.097   2.539   1.559 -0.2350 -0.4132 -0.0627
23531W        W43811  13.706   9.523   1.442 -0.1628 -0.0113  0.0396
23532W        W43812  18.189  13.674  12.149  0.2058  0.0462 -0.0572
23533W        W43813  16.534  13.813  13.607  0.0554 -0.1312  0.0910
23534W        W43814  18.729   9.904  14.447 -0.4550  0.1605  0.0823
23535W        W43815   0.872   6.563  13.363  0.1435 -0.0902 -0.0256
23536W        W43816  10.268   5.626  13.679  0.1237  0.0321 -0.0731
23537W        W43817   5.321   9.589   3.833 -0.0201 -0.0290  0.0651
23538W        W43818  12.001  13.882   3.907 -0.2856 -0.1702 -0.0878
23539W        W43819  10.950  17.784   2.414 -0.4456 -0.3210 -0.0197
23540W        W43820   8.255   3.468   4.143 -0.0381  0.0027  0.0655
23541W        W43821  11.342   1.796   3.093 -0.0145 -0.1392 -0.1423
23542W        W43822  10.233  15.602  13.927 -0.1527 -0.1780 -0.1429
23543W        W43823   1.026   7.076  13.325 -0.0763 -0.0875 -0.0678
23544W        W43824  10.254  19.392   2.561  0.0574 -0.5453  0.1763
23545W        W43825  10.290   2.759   1.430 -0.1606  0.5130  0.0517
23546W        W43826  11.965  12.585   1.356 -0.1009  0.0814 -0.1649
23547W        W43827  10.365   9.407   1.987  0.1344 -0.2269  0.2506
23548W        W43828  19.263  12.978  13.894 -0.1031  0.0207  0.1049
23549W        W43829  18.240   0.583  10.891  0.2468 -0.0539  0.2598
23550W        W43830  16.711   2.167   3.129  0.2276 -0.1917 -0.1678
23551W        W43831   0.063   5.589   2.533 -0.2511 -0.2286 -0.1459
23552W        W43832  15.725   1.997   4.064 -0.1513  0.2308 -0.1059
23553W        W43833  12.474   7.333  13.543  0.0304 -0.2158 -0.1032
23554W        W43834   4.695   8.226   2.964 -0.1106 -0.0365  0.1861
23555W        W43835  12.708   3.391   2.511  0.0033  0.1307  0.1996
23556W        W43836  11.268   1.877  13.318 -0.1486 -0.0828  0.1701
23557W        W43837  16.560  18.398   1.417 -0.0072 -0.1363  0.1847
23558W        W43838  16.782   6.032  11.585  0.3378  0.2145  0.2410
23559W        W43839  10.323   0.526  13.126  0.0197 -0.1338 -0.0913
23560W        W43840   9.827  10.727   0.268  0.1263 -0.3093  0.1333
23561W        W43841   0.459  10.359  12.323 -0.0022  0.1256 -0.2969
23562W        W43842  19.379   2.837  11.367 -0.1935 -0.0289 -0.0480
23563W        W43843   7.815  14.892   0.509  0.1875 -0.3852  0.0319
23564W        W43844   2.482  10.624  13.536 -0.0589  0.0873 -0.1942
23565W        W43845  14.824  14.052  12.547  0.0869 -0.0275  0.2485
23566W        W43846   2.776  15.210  11.148 -0.0410  0.0193 -0.1103
23567W        W43847   7.906   4.855  13.760  0.3912  0.0180 -0.1224
23568W        W43848  12.969   9.872   1.887  0.1291  0.0466 -0.0857
23569W        W43849  17.081  14.437  11.581 -0.0065 -0.3236 -0.1489
23570W        W43850   7.216  14.980  12.422  0.1165 -0.1014  0.0133
23571W        W43851  15.093   6.264  10.651 -0.1782  0.6076  0.0570
23572W        W43852  16.268   5.913   3.512  0.0746 -0.1115 -0.0923
23573W        W43853   5.718   2.055  12.811  0.1358  0.2216  0.3371
23574W        W43854   9.724   3.603   3.882  0.1765 -0.1384  0.0016
23575W        W43855   7.044  15.796  13.179  0.2246  0.0117 -0.3121
23576W        W43856   3.008  13.520  13.720  0.4929 -0.3748 -0.0791
23577W        W43857   9.322   5.302   3.991  0.1560  0.1547 -0.2572
23578W        W43858  11.504  17.792   0.243 -0.0585  0.1084 -0.0954
23579W        W43859  16.067  14.582   2.898 -0.1159 -0.0757 -0.1649
23580W        W43860   9.868  17.899  13.047 -0.2248  0.0352  0.0386
23581W        W43861   9.358  17.828   1.240  0.3608 -0.1968 -0.0851
23582W        W43862   1.402   3.740  13.334 -0.0205  0.2212  0.2666
23583W        W43863  12.307  15.610   2.793 -0.0295  0.0461  0.0548
23584W        W43864   7.392   9.608   3.529 -0.0688 -0.1018  0.0151
23585W        W43865   0.556   3.995   4.522 -0.2479  0.0385  0.1631
23586W        W43866   1.663   6.003   3.104 -0.1798  0.2942  0.0164
23587W        W43867   4.976  14.663   4.842 -0.0239 -0.1686 -0.3136
23588W        W43868  15.462  15.629  11.847  0.2273 -0.0728  0.2361
23589W        W43869   5.392   5.393  14.099  0.3589 -0.2073 -0.2109
23590W        W43870   8.772  17.493   2.542  0.1772 -0.0008 -0.2537
23591W        W43871   4.984   0.928  12.712 -0.1702  0.0463 -0.0963
23592W        W43872  16.246   1.922  10.752  0.3046 -0.0255  0.0481
23593W        W43873   1.181   1.452   4.629 -0.1802 -0.1890  0.3344
23594W        W43874   7.315   5.683  10.666 -0.0946 -0.2471  0.3268
23595W        W43875   8.101   6.921   3.282  0.0880  0.3372 -0.1897
23596W        W43876   6.974  18.003   0.224 -0.1093  0.0255 -0.0286
23597W        W43877   5.827  18.311  12.823 -0.1393 -0.2398 -0.0530
23598W        W43878   5.893   6.714  10.941 -0.1738 -0.0233  0.0044
23599W        W43879   9.590  15.227   0.173 -0.0079 -0.1883  0.0254
23600W        W43880   8.849   5.078   0.391 -0.3998  0.0519  0.1036
23601W        W43881   8.287   7.674   5.321 -0.0249  0.0964 -0.0165
23602W        W43882   4.890   2.484   3.601  0.0506 -0.2033 -0.0553
23603W        W43883  17.835  18.756   1.616 -0.1238 -0.0087 -0.1064
23604W        W43884  12.381  12.697  11.165  0.1533 -0.1196  0.0169
23605W        W43885   0.875  17.583   2.872 -0.0389 -0.2387  0.2178
23606W        W43886  14.283  11.940  12.016  0.0971  0.0442  0.2647
23607W        W43887  11.662   8.310   1.937 -0.1308  0.2107 -0.2401
23608W        W43888   6.214  18.494   2.906  0.0698 -0.2592  0.1089
23609W        W43889   5.947   6.354   2.949  0.0989 -0.0277 -0.1357
23610W        W43890   3.189   9.174   9.369 -0.2281  0.3227  0.0123
23611W        W43891  19.345   1.849   2.806 -0.1012  0.3207 -0.3015
23612W        W43892   6.343   5.539  14.470  0.0181  0.2841  0.2071
23613W        W43893   1.757  10.429  13.120  0.4046  0.1517  0.2737
23614W        W43894   9.901  16.881   2.433 -0.3344 -0.3310  0.0249
23615W        W43895  18.719   2.082   0.789  0.0957 -0.2498 -0.2075
23616W        W43896   7.745  15.349   3.772  0.1190  0.1169 -0.0120
23617W        W43897  12.575   0.648  14.085  0.2305  0.0614 -0.4425
23618W        W43898  16.432   3.657   1.948  0.1308  0.2387 -0.0393
23619W        W43899  13.024   6.694   1.765  0.0767 -0.2074  0.2135
23620W        W43900   0.587  15.594   1.148 -0.0754  0.0575 -0.0688
23621W        W43901   5.905  11.900  10.408 -0.0449  0.0173  0.0284
23622W        W43902   1.683   9.762   2.151 -0.0286 -0.1566  0.0020
23623W        W43903   0.608   4.226   0.308  0.3395  0.1259 -0.0407
23624W        W43904   0.345  10.290  11.805  0.1732  0.1399  0.0374
23625W        W43905  16.010   2.355  14.470  0.0738 -0.0437 -0.3095
23626W        W43906   2.723   2.154   1.615  0.0795  0.1102 -0.0351
23627W        W43907   3.965   7.003   2.959 -0.2632  0.1708 -0.1418
23628W        W43908   7.238   7.014  13.070 -0.0197  0.1443  0.2760
23629W        W43909  10.914  10.966  13.043 -0.0431 -0.0897 -0.2197
23630W        W43910   3.610  17.854   0.459  0.0416 -0.1045  0.1077
23631W        W43911  11.755  15.451   3.781  0.0451 -0.1883 -0.0708
23632W        W43912   4.285  14.751  13.620  0.0186  0.1841  0.0287
23633W        W43913  16.829  18.269  14.274 -0.1843 -0.2519 -0.0591
23634W        W43914  18.505   5.961   1.599 -0.1587  0.0500 -0.4056
23635W        W43915  11.814   1.790   2.063 -0.4052 -0.1268  0.1166
23636W        W43916  17.178   7.154  12.312  0.1347 -0.0393  0.1971
23637W        W43917  14.640  12.458  13.755  0.0041  0.0215 -0.2370
23638W        W43918  13.473   0.925  10.628  0.1562 -0.0180  0.3505
23639W        W43919   7.977  17.998   3.766 -0.1171  0.0731 -0.0615
23640W        W43920  14.311  17.265  12.549 -0.2506  0.1296 -0.0966
23641W        W43921  14.501  16.564   3.885  0.2985  0.0164  0.4837
23642W        W43922  12.767   5.750  11.095 -0.1366 -0.2456 -0.0227
23643W        W43923  17.281   6.482   3.174  0.2248 -0.1168  0.2870
23644W        W43924  18.549  15.309   2.028 -0.2084 -0.0294  0.0004
23645W        W43925  12.884  12.900   3.025  0.1030 -0.1090 -0.5851
23646W        W43926   2.349  10.944  12.398 -0.0887  0.0818 -0.1873
23647W        W43927  14.725  14.523   0.802 -0.0256 -0.0107 -0.2800
23648W        W43928   6.578   4.706  10.534 -0.1216  0.1875 -0.0944
23649W        W43929  14.519  10.477   9.353  0.0010 -0.1375  0.1751
23650W        W43930   5.730  15.896   2.365 -0.1805 -0.0273  0.1422
23651W        W43931  19.306   9.277  14.451 -0.0012  0.2563 -0.0300
23652W        W43932  12.568   7.389   3.127 -0.0472  0.0578  0.3946
23653W        W43933  17.888   5.688  11.201  0.2624  0.1837 -0.0413
23654W        W43934  11.419   7.221   1.712 -0.1408 -0.0519 -0.0211
23655W        W43935   5.375   2.890   2.391  0.1469  0.0190  0.1736
23656W        W43936   3.306  19.321  12.148  0.5360 -0.2741  0.0107
23657W        W43937   1.769   3.147   3.105  0.3817 -0.1416  0.0693
23658W        W43938   6.705   8.876  10.470 -0.1174 -0.0795 -0.1115
23659W        W43939   8.678  16.175  14.479 -0.3753  0.5002 -0.2733
23660W        W43940  11.622   5.323  14.080 -0.0020  0.0480 -0.1379
23661W        W43941   1.076  15.208  14.379  0.1401  0.1340  0.2789
23662W        W43942   8.434  18.997  11.915 -0.2100  0.1658  0.0128
23663W        W43943  17.531  11.120   4.606  0.2493 -0.0118  0.1626
23664W        W43944   7.156   6.194   4.126  0.2643  0.2978  0.1566
23665W        W43945   0.222  11.818   0.970 -0.0060 -0.1321 -0.0449
23666W        W43946   5.896   2.753   2.271  0.0390 -0.3306 -0.1183
23667W        W43947   6.336  15.555   0.093 -0.1206  0.0283  0.1609
23668W        W43948   6.939   9.419   2.172  0.0551 -0.1256  0.1527
23669W        W43949  11.943  10.132  12.469 -0.1086  0.0928  0.1238
23670W        W43950   2.644  13.264  13.910  0.1376  0.0913 -0.0180
23671W        W43951   6.872   1.716  12.567 -0.1240  0.1166 -0.0633
23672W        W43952   9.384   2.294   3.260 -0.1122 -0.5169  0.0873
23673W        W43953   7.579   6.510   2.910 -0.1002 -0.0823  0.0236
23674W        W43954  15.623   2.399   3.710 -0.4131 -0.0533 -0.0906
23675W        W43955  12.734  16.387   3.177  0.1206  0.0430 -0.1741
23676W        W43956   9.162  11.673  13.326 -0.0901 -0.3354  0.0000
23677W        W43957  11.042   5.675   1.533  0.0829 -0.2127 -0.1936
23678W        W43958  11.140   6.811  11.014 -0.0594  0.0626  0.5335
23679W        W43959   8.049  11.610   1.692 -0.0068 -0.0250  0.0212
23680W        W43960  19.297   6.546  13.735 -0.1150  0.3460 -0.0778
23681W        W43961  16.937  14.022   1.723 -0.2444  0.0606 -0.2422
23682W        W43962   7.135   5.468   0.746  0.2264  0.3409  0.0676
23683W        W43963   4.932   7.039  11.196  0.0499  0.0988 -0.1809
23684W        W43964  13.667  15.049  10.728  0.2525 -0.0110  0.0132
23685W        W43965  19.280  18.560  12.388  0.0367  0.2326 -0.0297
23686W        W43966  11.583  18.806  12.710 -0.0844  0.2661  0.0765
23687W        W43967   1.856   8.842  12.116  0.0372  0.0180 -0.0871
23688W        W43968   0.679   3.381   2.763  0.2179 -0.0238  0.3331
23689W        W43969   0.040   6.003  10.567 -0.0610 -0.0965 -0.0454
23690W        W43970   4.063   7.986  13.185  0.0331 -0.1179  0.4356
23691W        W43971  11.393   7.467  12.508 -0.3168  0.1099  0.0784
23692W        W43972  14.499   9.854  11.023  0.0523  0.0759 -0.0664
23693W        W43973  16.879   3.534   3.601  0.4394 -0.1277  0.0601
23694W        W43974   6.565  15.104   1.119  0.0735  0.1935  0.0330
23695W        W43975   1.572  16.663  12.802  0.0265 -0.1199  0.1115
23696W        W43976  17.811  13.504   1.466  0.2494 -0.0261  0.0734
23697W        W43977   8.831   4.714   2.664  0.2936 -0.2331  0.0693
23698W        W43978   7.143   8.100   1.553  0.0431  0.0943  0.2756
23699W        W43979  18.063  13.928   0.740 -0.2960  0.0882 -0.0484
23700W        W43980  18.020  14.991   3.880 -0.4464  0.2535  0.0871
23701W        W43981  18.821  10.816  12.132 -0.2481  0.4012  0.0820
23702W        W43982   7.739  14.208  11.898 -0.1069 -0.0169  0.3755
23703W        W43983   0.216   7.745  11.758 -0.0371  0.0614 -0.2569
23704W        W43984  11.294  11.185  14.160  0.1024 -0.1006 -0.1724
23705W        W43985   4.029   6.426  13.458  0.0326  0.2707 -0.2557
23706W        W43986   4.282   5.589  11.071  0.1873  0.1259 -0.2619
23707W        W43987  18.520  14.743  14.277 -0.0999  0.3904 -0.0781
23708W        W43988  11.906   2.828  10.738  0.2385 -0.0348  0.2382
23709W        W43989   5.407  15.157   1.692  0.1599  0.1354 -0.0747
23710W        W43990   4.242   4.218  12.015 -0.0109 -0.1159 -0.3194
23711W        W43991  11.433   2.597  10.193 -0.0626  0.0825  0.0019
23712W        W43992   8.577   1.897   2.920 -0.1184 -0.2223 -0.2252
23713W        W43993  15.838  12.296   2.776 -0.0232 -0.0361  0.3864
23714W        W43994  16.763  13.237   3.553  0.0010  0.0069 -0.1611
23715W        W43995   9.270   6.967  12.205 -0.0034  0.0333  0.0613
23716W        W43996  12.879  10.300  13.803  0.0911 -0.2266  0.0488
23717W        W43997   9.020   1.386   2.961 -0.3188  0.0224  0.3519
23718W        W43998   2.663   7.592  11.647  0.0082  0.0976  0.2803
23719W        W43999  14.166   1.722   3.748 -0.3029  0.2765 -0.0061
23720W        W44000  10.537  10.685  12.724 -0.1383 -0.1535 -0.1779
23721W        W44001   5.016   7.602  13.452 -0.3652 -0.2160 -0.1097
23722W        W44002  15.590  18.953   2.230 -0.0778 -0.0089 -0.0843
23723W        W44003   4.126  11.549   0.372 -0.0361 -0.2992  0.1295
23724W        W44004  15.905  16.147   1.414 -0.1151  0.2764  0.1951
23725W        W44005  14.811  12.830  12.632  0.2284 -0.0478 -0.1922
23726W        W44006   9.750  12.651   3.058  0.1452 -0.0206 -0.3284
23727W        W44007   3.539   1.914  13.041  0.0484 -0.1463 -0.1499
23728W        W44008   3.294   9.899   3.088 -0.0261 -0.3051  0.3988
23729W        W44009   8.262  14.413   0.475  0.3863 -0.0748  0.2420
23730W        W44010   9.666   6.809  10.906  0.0480  0.1369 -0.1166
23731W        W44011  16.671   3.856  14.269 -0.0264 -0.1799  0.2007
23732W        W44012  15.308   2.716  11.197 -0.0055 -0.0189  0.0398
23733W        W44013   6.063  15.343   0.802  0.0532  0.1726 -0.3811
23734W        W44014  15.459  15.905   0.654  0.2048 -0.1320  0.1764
23735W        W44015  17.240   4.601   0.048  0.0086 -0.0984 -0.3343
23736W        W44016   3.530  11.150  10.570  0.1659  0.0468 -0.0156
23737W        W44017   0.891   0.118   5.159 -0.1545  0.1039 -0.0917
23738W        W44018   0.951  15.466  13.552 -0.0188 -0.1524  0.0223
23739W        W44019   2.462   4.249   1.672  0.2093  0.1977 -0.2981
23740W        W44020   6.094  12.575   2.038 -0.4832 -0.1619 -0.0564
23741W        W44021   5.508   0.781   2.729  0.1525  0.0978 -0.1724
23742W        W44022   5.353   3.619   0.955 -0.1326  0.0506 -0.0538
23743W        W44023   8.154  11.240   1.236 -0.0379  0.3265 -0.1048
23744W        W44024  14.793   6.126  14.144 -0.0367  0.1022  0.1199
23745W        W44025   1.563   1.735   0.913  0.0516  0.3406  0.2551
23746W        W44026   4.055   6.888   3.811 -0.2006 -0.0949  0.1435
23747W        W44027  19.335   8.365   1.860  0.0709 -0.0018  0.1612
23748W        W44028  12.861   6.739   0.062  0.1291 -0.3328 -0.1219
23749W        W44029   2.025   3.526  13.969  0.0656 -0.1049  0.1565
23750W        W44030   1.335   5.461   1.977  0.0000  0.0061  0.0491
23751W        W44031  14.490  16.812  11.222 -0.0049 -0.3979 -0.3750
23752W        W44032   8.378  14.945   0.519  0.2039  0.2665  0.1193
23753W        W44033   4.358  16.546  10.048 -0.1173  0.2644 -0.0718
23754W        W44034   1.376  17.003   0.765  0.3353 -0.1590 -0.1922
23755W        W44035  17.604   0.847   1.891 -0.2235 -0.1074 -0.1107
23756W        W44036   5.858  15.495  10.458  0.2131  0.1225  0.2393
23757W        W44037  14.382  16.564  11.655  0.1980  0.2363  0.2016
23758W        W44038  13.443  16.662   0.162 -0.0898  0.2958 -0.0571
23759W        W44039  14.919  11.112   1.674  0.1733  0.0695  0.2781
23760W        W44040  15.023  16.764  10.538 -0.1293  0.0715  0.1538
23761W        W44041  15.024   6.587  14.128 -0.1001  0.0899 -0.0477
23762W        W44042   8.985   1.371  11.170  0.2081  0.0208  0.1908
23763W        W44043  18.614  12.691  12.199  0.0959 -0.3207 -0.0830
23764W        W44044   1.431  15.699   2.991  0.1848 -0.0547 -0.2464
23765W        W44045  18.186  11.904  11.924  0.1543  0.0680  0.0290
23766W        W44046   7.865   1.672  12.469 -0.0298  0.0090 -0.0142
23767W        W44047  13.379   2.252  11.269  0.0913 -0.0686  0.1162
23768W        W44048   9.110  11.799  11.843 -0.1033  0.0361  0.1547
23769W        W44049   1.880  14.941   0.171 -0.0272  0.1101  0.0134
23770W        W44050   9.667  18.132   1.529 -0.2101 -0.2416 -0.2167
23771W        W44051   2.672   5.305   1.348  0.1026 -0.0802 -0.1062
23772W        W44052  19.133   3.665  11.178  0.0197 -0.1804  0.0295
23773W        W44053  11.344   7.789  13.900 -0.1855 -0.0057  0.3289
23774W        W44054   0.063  16.307   5.189  0.0609  0.0937 -0.1857
23775W        W44055  14.667   3.729  12.724 -0.0672  0.3940  0.2313
23776W        W44056  17.354  14.107   1.986  0.3506 -0.1758 -0.0074
23777W        W44057  15.772  16.434  12.088 -0.1778 -0.0356  0.0732
23778W        W44058  15.940   9.381  14.187 -0.1280 -0.0059 -0.3788
23779W        W44059   5.825   7.866   3.845  0.0591  0.1496 -0.0059
23780W        W44060  19.346  15.870   2.498  0.1129 -0.0676  0.1519
23781W        W44061  18.388  15.698   1.739 -0.1338  0.1177  0.0229
23782W        W44062   3.193   9.393   2.947  0.0154  0.0429 -0.2905
23783W        W44063  11.550   6.532   2.885 -0.2104  0.1525 -0.2675
23784W        W44064   2.578   8.522   3.455 -0.1505 -0.3386 -0.5684
23785W        W44065  16.592   1.705   2.129  0.0254 -0.1340 -0.2900
23786W        W44066  15.804  16.528  13.112  0.0817  0.0359 -0.1287
23787W        W44067  10.093   0.948   3.837 -0.1849 -0.1727 -0.0277
23788W        W44068   9.311   5.345   0.473 -0.0892  0.3750 -0.3467
23789W        W44069   8.650  15.669   1.350 -0.0663  0.1266 -0.2797
23790W        W44070   2.434   5.232  13.192 -0.0451 -0.0750 -0.0640
23791W        W44071  19.060  18.547  10.644 -0.0243 -0.2136  0.1636
23792W        W44072   4.854   8.250  11.876 -0.1404 -0.2491 -0.1141
23793W        W44073   9.561  11.766   1.964  0.1828 -0.0382  0.1332
23794W        W44074   3.699   4.211   0.548 -0.2718 -0.2134  0.0024
23795W        W44075  18.817  13.806  11.631 -0.1129  0.2727 -0.0425
23796W        W44076  13.560   6.305   2.118  0.1399 -0.2141  0.2672
23797W        W44077  19.251  14.480   1.734  0.0303  0.0541 -0.1121
23798W        W44078   6.308   2.632   9.619 -0.0134 -0.1986  0.3658
23799W        W44079   1.022   7.106  11.578  0.0588  0.1136  0.0610
23800W        W44080   7.320  14.214   0.292 -0.0155  0.0643 -0.0366
23801W        W44081  11.674   4.304  10.116 -0.3327 -0.1465  0.3736
23802W        W44082  11.030   4.577  13.980  0.1646  0.0700  0.1831
23803W        W44083  16.033  15.908   0.871 -0.0962  0.3322 -0.3284
23804W        W44084   9.945   1.463   2.962 -0.1973 -0.1570 -0.1173
23805W        W44085   0.306   9.370   3.104  0.0395  0.1263 -0.4147
23806W        W44086  17.921   1.531   1.185 -0.0498  0.0317  0.1902
23807W        W44087  10.575  12.435   2.565  0.2930  0.0931 -0.2109
23808W        W44088  11.700  14.665  10.005  0.0275  0.0708  0.0753
23809W        W44089  18.199  11.709  13.867 -0.0033 -0.0912 -0.1308
23810W        W44090  14.618   8.680   2.738  0.5099 -0.1828  0.5923
23811W        W44091  16.264  10.664   2.403 -0.2320  0.0788  0.4582
23812W        W44092  17.491  12.444  11.322  0.2313  0.2384 -0.0268
23813W        W44093   2.530   8.370  13.256 -0.0033  0.0116 -0.2439
23814W        W44094   3.768  12.311   0.828 -0.2156  0.0942  0.0289
23815W        W44095  15.866  13.098   1.562  0.0157 -0.2399  0.0873
23816W        W44096   5.331  18.639   3.053 -0.2098 -0.0525 -0.0846
23817W        W44097   8.548   1.964  10.606 -0.1231  0.1949  0.2266
23818W        W44098  16.294  17.549   2.426 -0.5258 -0.0704 -0.0970
23819W        W44099   5.610   9.342  10.568  0.0528 -0.4951  0.2526
23820W        W44100   6.599   8.806   1.753 -0.1167 -0.2144 -0.2366
23821W        W44101  10.566  12.814  14.079 -0.0527  0.0344 -0.0921
23822W        W44102  15.684   1.016   0.430 -0.1614  0.2909  0.1755
23823W        W44103   3.298  16.633  13.888  0.0437  0.2739 -0.1590
23824W        W44104   6.311  13.625  12.466 -0.3103 -0.0362  0.1029
23825W        W44105  18.663   0.447   4.222  0.1098  0.1195  0.0460
23826W        W44106  11.236   0.893   3.762 -0.2083 -0.1200 -0.1081
23827W        W44107  16.868  16.328   3.717  0.2818  0.0183  0.3708
23828W        W44108  10.060   4.773   0.836 -0.1417 -0.0884 -0.0222
23829W        W44109  19.271  16.652   0.669 -0.0194  0.1250 -0.0679
23830W        W44110  15.045  10.098   3.075 -0.1623  0.2365 -0.0494
23831W        W44111   9.844   0.302  12.761 -0.1509  0.2394  0.0740
23832W        W44112  10.905  12.253   3.866 -0.2386  0.0163 -0.2234
23833W        W44113   1.430  13.922  13.387  0.0285  0.4395 -0.1655
23834W        W44114   1.483  14.724   0.421 -0.1263  0.0764 -0.0598
23835W        W44115  12.450   1.925   9.530  0.2135 -0.4484  0.2653
23836W        W44116  14.501  19.336   4.254  0.3432  0.0150 -0.0061
23837W        W44117   3.462  16.433  12.942  0.2370  0.3612  0.3050
23838W        W44118  15.462   5.338   2.708 -0.0639  0.1637  0.1012
23839W        W44119   9.993   2.782  13.116 -0.0182  0.0693 -0.2561
23840W        W44120   9.369   9.482   3.341  0.1034 -0.0228  0.0804
23841W        W44121   0.263   8.828  14.374  0.0397  0.1108 -0.0252
23842W        W44122   5.466   3.245  12.198  0.0843 -0.0298  0.1545
23843W        W44123  13.126  13.118   2.117 -0.0944 -0.0657  0.0812
23844W        W44124  13.370   1.822   2.709 -0.1600  0.0157  0.1520
23845W        W44125   8.392   7.434   1.159 -0.0248 -0.3501  0.0706
23846W        W44126   3.150   1.957   0.627 -0.0743 -0.1954  0.0857
23847W        W44127  17.051   6.258  13.177 -0.1368 -0.0244 -0.3615
23848W        W44128   7.737  12.116   0.741  0.0417  0.2710  0.2185
23849W        W44129  14.200  11.469   2.332 -0.1246 -0.1753  0.3920
23850W        W44130  17.633  10.168  13.254  0.0860  0.0784 -0.0132
23851W        W44131   0.817   7.912  11.061  0.1199  0.2656  0.0902
23852W        W44132  18.741   4.916  13.597  0.2754 -0.2692  0.2582
23853W        W44133  11.071  11.510   0.847  0.0737  0.0385 -0.0971
23854W        W44134   7.246  10.971  12.472 -0.0586  0.2250 -0.0815
23855W        W44135   0.075  14.425   0.212 -0.0176  0.0794  0.1236
23856W        W44136  17.023  14.373  12.893  0.1402  0.0537  0.0716
23857W        W44137   3.047   2.241  13.081  0.2256 -0.0798  0.1954
23858W        W44138   6.252   7.565  13.817 -0.1410  0.2529 -0.0696
23859W        W44139   7.147  16.173   2.418  0.1129 -0.0979 -0.1952
23860W        W44140   7.719   4.374  13.895  0.0067  0.1211 -0.0528
23861W        W44141  19.417  12.742  14.336  0.2047  0.2354 -0.2408
23862W        W44142  11.511   2.147  12.198 -0.0082 -0.0018  0.0178
23863W        W44143   6.223   4.201  10.383 -0.3136  0.1721  0.0239
23864W        W44144  15.928   4.409  12.498 -0.0407 -0.0871 -0.0162
23865W        W44145   8.034   4.629   2.113 -0.1893 -0.0122 -0.1368
23866W        W44146  15.807  16.825   0.722 -0.0716  0.0361  0.0549
23867W        W44147  18.706  13.357  11.347 -0.1141 -0.0938 -0.0970
23868W        W44148  10.551   6.378   2.941  0.1449 -0.3266  0.0701
23869W        W44149   4.757  16.067  12.439  0.3236  0.0872  0.1342
23870W        W44150   9.899   4.816   1.331  0.1311 -0.1043  0.1283
23871W        W44151   1.620  14.694   2.851  0.0042 -0.0642  0.3328
23872W        W44152   0.611   0.777  13.485 -0.0136  0.2456 -0.2172
23873W        W44153   4.906  16.045  10.587 -0.0230 -0.2367 -0.5137
23874W        W44154  12.815   1.746  12.406 -0.1411  0.3941  0.0101
23875W        W44155   8.584   0.921  13.968 -0.1110 -0.1390  0.2167
23876W        W44156  16.639   7.096   0.169  0.3847  0.1390 -0.1663
23877W        W44157   3.567   9.798  13.367 -0.1258  0.3095  0.0713
23878W        W44158  11.189  13.093  12.544  0.0640 -0.1939 -0.3143
23879W        W44159  15.106   9.042  13.239  0.1345 -0.2312 -0.4154
23880W        W44160   8.734  10.113   1.246 -0.1856 -0.0407 -0.1565
23881W        W44161  19.228   0.409  10.945 -0.0007  0.1460  0.0189
23882W        W44162  18.650  10.427   3.044 -0.0636  0.0396 -0.1426
23883W        W44163  11.268   3.761  12.851 -0.3175 -0.0035  0.1990
23884W        W44164   6.268  10.734   1.653  0.1033  0.1497  0.2084
23885W        W44165   6.188   1.704   4.011  0.2273 -0.3955 -0.1372
23886W        W44166   9.573   2.172   2.806 -0.3532 -0.2020  0.2481
23887W        W44167  18.267  18.864   3.866 -0.2516  0.3341  0.0498
23888W        W44168  11.080  17.386  13.457 -0.2010  0.2697 -0.3048
23889W        W44169   3.045   5.800   3.220 -0.0043  0.0540  0.1328
23890W        W44170  11.913  16.971  11.197 -0.0356 -0.0511  0.1549
23891W        W44171  18.313  14.886  12.001 -0.0993  0.0459 -0.1238
23892W        W44172  12.682  13.596  10.717  0.1096  0.1081  0.0870
23893W        W44173   0.087   9.959  12.839 -0.3863 -0.0352  0.0716
23894W        W44174   7.149   5.967   5.014  0.0697  0.2528  0.1929
23895W        W44175   3.836  19.362  11.909 -0.0702 -0.1000  0.1719
23896W        W44176   9.169   7.213   1.856  0.0265 -0.0687 -0.0530
23897W        W44177   1.461  16.736   1.627  0.1976 -0.2053  0.2156
23898W        W44178   9.193  11.266  11.914  0.1567  0.2848  0.2440
23899W        W44179   3.035   3.869   0.975  0.0639 -0.0221 -0.0862
23900W        W44180  17.272  14.570   0.889  0.2611 -0.0907  0.2542
23901W        W44181   8.775   8.963   3.507 -0.0047  0.2199 -0.2079
23902W        W44182  13.532   3.549   3.431  0.1453  0.0483 -0.0991
23903W        W44183   5.890  10.747  14.102 -0.1115 -0.3361 -0.2497
23904W        W44184   6.520   2.347   1.449  0.2145 -0.0161 -0.2453
23905W        W44185   2.396  12.376   1.488  0.1387  0.1743  0.1467
23906W        W44186  11.465   1.782   1.076 -0.0522 -0.2431 -0.1090
23907W        W44187   4.947  17.986   1.061 -0.0077  0.2207  0.4576
23908W        W44188  12.042  13.520  11.500 -0.0024 -0.0021  0.0561
23909W        W44189   2.309  17.252  12.566 -0.4113  0.3251 -0.0801
23910W        W44190  13.429   0.391   2.233  0.2041 -0.2755 -0.3184
23911W        W44191   7.747  10.390   3.326  0.0117  0.0229 -0.0927
23912W        W44192   3.428  12.728  13.966  0.1199 -0.1241 -0.0425
23913W        W44193  11.255   2.891  11.434 -0.0760 -0.1339 -0.0970
23914W        W44194   8.808  19.254   0.991  0.0857 -0.0341 -0.3337
23915W        W44195  15.210   9.401   0.583 -0.0377  0.3191 -0.1675
23916W        W44196  18.926  10.950   0.079  0.0808 -0.0182 -0.3075
23917W        W44197  10.096   0.396  10.911 -0.1592  0.0428  0.0474
23918W        W44198   3.812   9.085   0.249  0.3478  0.0232  0.1730
23919W        W44199  12.815   6.173  13.994 -0.0300  0.0327 -0.1911
23920W        W44200  10.665  13.056   3.864  0.1493  0.1016 -0.0706
23921W        W44201  18.997  12.219  10.479  0.0122 -0.2250 -0.1033
23922W        W44202  12.824   4.646   4.016 -0.0830 -0.0026  0.1306
23923W        W44203   4.044   9.659  13.239  0.2264 -0.0822  0.0870
23924W        W44204   1.788  15.581  10.916 -0.2666 -0.1252  0.0856
23925W        W44205  13.322  18.761   3.843 -0.5167  0.2822 -0.2031
23926W        W44206  16.812  18.220  11.570  0.0455  0.0438 -0.2133
23927W        W44207  18.495   5.922  14.110  0.0979 -0.1556  0.1091
23928W        W44208   9.159   3.955  10.350  0.2274 -0.1424  0.1779
23929W        W44209  15.073  17.047   2.390 -0.2128  0.2494  0.3167
23930W        W44210   3.008   3.404  11.826  0.0918  0.5749  0.1411
23931W        W44211   2.057  17.557  12.182 -0.1969  0.0571  0.0125
23932W        W44212  17.957  12.254  11.608  0.1686  0.0738  0.0946
23933W        W44213   4.244   1.036   3.193 -0.2260 -0.0283  0.0406
23934W        W44214   6.295   2.742  12.991  0.0590 -0.1952 -0.0776
23935W        W44215  17.779  17.642   0.311 -0.2153  0.2602 -0.4635
23936W        W44216   7.836   9.008  13.524  0.1112  0.2264  0.0193
23937W        W44217  10.375  10.458  10.534  0.0186  0.1727 -0.1422
23938W        W44218   6.579  12.896  12.165 -0.2141 -0.0966  0.1207
23939W        W44219  10.325  18.686   2.842 -0.0020  0.0429  0.1557
23940W        W44220   7.439   6.407  11.527  0.0550  0.1767  0.3356
23941W        W44221  18.021   0.182   1.703 -0.0560 -0.1496  0.0485
23942W        W44222  18.739   3.310   4.334  0.2609 -0.0176  0.1057
23943W        W44223   7.076  14.019   1.113 -0.1769 -0.0612  0.1692
23944W        W44224   2.802   7.216  11.318 -0.3124  0.1483 -0.3308
23945W        W44225   1.291   6.443  13.663  0.0816 -0.0427 -0.0774
23946W        W44226  11.804   8.016   1.511  0.1047 -0.0663 -0.1445
23947W        W44227  14.058  15.423  10.838  0.0568 -0.0921 -0.0975
23948W        W44228  14.441   1.015   2.331 -0.2334 -0.2227 -0.1163
23949W        W44229   8.079  15.682   0.312  0.5418 -0.0186  0.0421
23950W        W44230  10.897  10.941   2.931  0.4718  0.0435  0.0644
23951W        W44231  12.658  17.105   0.160  0.0164 -0.1191 -0.0102
23952W        W44232   5.664  16.030  13.865  0.0846 -0.1561 -0.2291
23953W        W44233   2.565  17.684   0.703  0.1693 -0.0230 -0.1042
23954W        W44234  14.363   2.866  11.854  0.1075  0.0168 -0.1347
23955W        W44235   7.326  10.496   2.272 -0.0185 -0.1368  0.1073
23956W        W44236   2.955   2.391  14.366 -0.0042  0.2311  0.1717
23957W        W44237  16.286   1.319   3.083  0.0651  0.1112 -0.0479
23958W        W44238  14.416   1.373   0.343  0.0615  0.0976  0.0543
23959W        W44239  12.237   9.261   3.674  0.0066 -0.4417  0.1952
23960W        W44240  17.296   7.916   1.781  0.0555 -0.0352 -0.0856
23961W        W44241   3.764   4.628  13.357 -0.0709  0.1226 -0.1559
23962W        W44242  19.156  14.599   2.227  0.0832  0.1922 -0.2822
23963W        W44243  15.211   0.299  10.637 -0.3763  0.0242 -0.3417
23964W        W44244   6.084  12.756  11.107  0.0003 -0.0226  0.0424
23965W        W44245   8.964  12.457  11.159 -0.0646 -0.1175 -0.0854
23966W        W44246   0.775  17.656  12.756  0.0874 -0.0741 -0.2376
23967W        W44247  11.342  14.715  13.481 -0.2233 -0.5992 -0.0557
23968W        W44248   1.825  12.553  13.653  0.0837  0.1252  0.0094
23969W        W44249  12.047   4.157  13.192 -0.2662  0.0783  0.2634
23970W        W44250  11.684  17.650   2.094 -0.0845  0.0070 -0.1136
23971W        W44251   9.584  18.889  12.987 -0.2163 -0.0700  0.1289
23972W        W44252  14.373   8.846   1.047 -0.0875  0.4382  0.1073
23973W        W44253   0.822   2.029  13.003  0.0543 -0.1806 -0.2330
23974W        W44254   2.936  13.919   0.326  0.1013 -0.1410  0.0031
23975W        W44255   6.921   3.248   1.492  0.0284  0.2473 -0.1341
23976W        W44256  15.115   0.281  13.613 -0.0972  0.2704 -0.0669
23977W        W44257  16.740  10.467   2.232 -0.1030  0.3839  0.1002
23978W        W44258  15.317   5.339   4.296 -0.2789  0.2552  0.0106
23979W        W44259   6.966   6.039  10.718  0.2088  0.0554 -0.5287
23980W        W44260   4.447   2.532   0.234  0.1915  0.0251  0.0577
23981W        W44261   7.477  15.755   2.789 -0.1240  0.2044  0.0052
23982W        W44262   1.054  16.306  13.673  0.0125 -0.0273 -0.1094
23983W        W44263   2.499  13.399   3.039  0.2755  0.1265 -0.4764
23984W        W44264  10.515  18.240  14.243  0.0216 -0.0078  0.0507
23985W        W44265   3.560  14.830   0.850 -0.0850  0.0877  0.1142
23986W        W44266  10.371   4.263  14.415 -0.0450  0.2730  0.1567
23987W        W44267   7.470   7.442  12.218  0.0561  0.0580 -0.1714
23988W        W44268   0.114  18.417   3.923 -0.1982  0.0738  0.1984
23989W        W44269  16.883   0.733  10.883 -0.0162 -0.0318 -0.0976
23990W        W44270  16.288   9.939   0.965 -0.1388 -0.1933  0.1633
23991W        W44271   2.542   3.085  10.848  0.2904 -0.0648 -0.2544
23992W        W44272   2.116  18.010  11.913 -0.3697  0.1979 -0.3103
23993W        W44273   9.730   7.460   4.010 -0.2516  0.0848  0.1304
23994W        W44274   9.347   7.140  13.220  0.1229  0.1431 -0.0988
23995W        W44275   7.440  14.786   3.663  0.1021 -0.1413  0.0820
23996W        W44276  14.385  12.582   2.159 -0.0747 -0.1860  0.0338
23997W        W44277   5.621  16.160   0.566 -0.0814 -0.2545 -0.1878
23998W        W44278  14.832   0.706  14.409  0.2118 -0.3041  0.0813
23999W        W44279  18.062  17.259   1.110 -0.1249 -0.0098  0.1522
24000W        W44280   9.692   9.344   4.162 -0.0927 -0.1307 -0.2728
24001W        W44281  17.071  11.110  14.120  0.1198 -0.0554  0.0963
24002W        W44282   9.986  14.300  12.601 -0.1559 -0.1257  0.2939
24003W        W44283  18.077  16.592   5.179 -0.0854  0.0415  0.1839
24004W        W44284  10.589  18.511   4.352 -0.1586 -0.1273  0.4159
24005W        W44285  13.620  14.353  13.623  0.2300 -0.1358  0.2223
24006W        W44286  13.180   3.546   3.886 -0.0372  0.1128  0.2783
24007W        W44287   0.361  13.573  10.301 -0.1371  0.1670 -0.1028
24008W        W44288   6.209   2.520   4.034 -0.4222 -0.0681 -0.1990
24009W        W44289  16.051  10.842   0.944  0.2676 -0.0895 -0.0542
24010W        W44290  11.379   6.027   1.643 -0.0597  0.0047  0.0164
24011W        W44291  18.694   7.328  10.651 -0.0640  0.0793  0.1358
24012W        W44292  15.514   3.900   1.323 -0.0402  0.1158 -0.0297
24013W        W44293  17.305   4.669   3.865 -0.0734 -0.2263 -0.1468
24014W        W44294   9.935   1.492   3.490 -0.0008  0.0590  0.2362
24015W        W44295  16.805  15.929   0.922 -0.2556 -0.0986  0.0921
24016W        W44296   9.627   6.477   1.050 -0.1542  0.0070 -0.1041
24017W        W44297   0.314   9.309  11.929 -0.3306 -0.0688  0.0198
24018W        W44298   4.421  12.773  10.402  0.0507  0.0494 -0.0700
24019W        W44299  13.117  14.662   2.739  0.1472 -0.2276  0.2709
24020W        W44300  18.608   5.013   1.925  0.0361  0.0036  0.1086
24021W        W44301   4.636  10.242   0.277  0.1488 -0.1093  0.1322
24022W        W44302   2.270  10.892  10.352  0.0933 -0.0871  0.0689
24023W        W44303  10.134   4.447  12.571 -0.2696 -0.0078  0.1884
24024W        W44304  16.480   5.088  13.490 -0.1283  0.0014 -0.2290
24025W        W44305  11.509   0.904  14.158 -0.7610  0.0725  0.1525
24026W        W44306  19.319   1.880   0.160  0.1735  0.0306  0.1076
24027W        W44307  19.144  17.824  14.408  0.2328 -0.0702  0.0227
24028W        W44308  10.099   9.454   3.889  0.0545 -0.1962  0.2304
24029W        W44309  12.618   8.402  11.613  0.0081 -0.0717  0.1168
24030W        W44310  15.460  18.417  10.951 -0.2964 -0.0087  0.3087
24031W        W44311   9.517  11.775  11.098 -0.0834 -0.1303 -0.0204
24032W        W44312   1.565   0.630   2.777  0.0396  0.0795 -0.0244
24033W        W44313   6.154  17.446   4.086 -0.3030 -0.2708  0.0973
24034W        W44314   3.430   9.140  11.311  0.0478  0.5136  0.0572
24035W        W44315  16.511   3.124   1.192 -0.0359  0.3756  0.1426
24036W        W44316  11.775  16.084  13.821 -0.1792 -0.3484  0.1908
24037W        W44317  12.050   6.940  12.739  0.2340  0.0506  0.0095
24038W        W44318   4.005  16.254  11.023 -0.1470 -0.2353  0.0190
24039W        W44319  15.131  13.770   0.424 -0.1973  0.1341 -0.1377
24040W        W44320   8.655  16.865   3.149 -0.2634  0.1955 -0.0884
24041W        W44321   7.394   2.073   3.054 -0.0649  0.0322 -0.0739
24042W        W44322  10.015  14.331  11.199 -0.1496  0.2224  0.2802
24043W        W44323   3.914  18.901   1.194 -0.0988  0.0953  0.3677
24044W        W44324  18.516   9.241   2.724  0.2685 -0.2644 -0.2059
24045W        W44325  19.215  15.516   1.410 -0.1527  0.0364 -0.2465
24046W        W44326   6.857   8.212  11.409 -0.3901  0.0896  0.0634
24047W        W44327   1.951   6.108   1.640  0.1715  0.1903 -0.1325
24048W        W44328  11.960  18.790  12.179  0.0242  0.2888  0.0966
24049W        W44329   8.868   1.990   2.131 -0.1898 -0.0630  0.1613
24050W        W44330  14.282   4.372  12.320  0.0267 -0.1866 -0.0057
24051W        W44331  13.944   0.795   5.167  0.0210  0.1298 -0.2060
24052W        W44332   6.251   7.273   1.184 -0.1185 -0.1571  0.0970
24053W        W44333  18.131  14.472   3.067 -0.2637  0.0198 -0.1886
24054W        W44334  11.485   7.113   3.004  0.1416 -0.2310 -0.2601
24055W        W44335  13.885   7.548   3.319 -0.1824 -0.0078  0.2111
24056W        W44336   4.250  19.215  12.434  0.1135 -0.2142  0.0457
24057W        W44337   7.284   7.757   1.946 -0.0136  0.2994  0.0785
24058W        W44338  14.529  13.793   1.828  0.2178 -0.0361 -0.2142
24059W        W44339  14.447  14.379   3.261 -0.1467  0.1074  0.1192
24060W        W44340   1.701   6.920  12.661 -0.2843 -0.1751 -0.0027
24061W        W44341   9.749   9.193   3.649 -0.1844  0.0281  0.2449
24062W        W44342   1.351   0.909  11.487 -0.3764 -0.4511 -0.1425
24063W        W44343   6.755   1.127  12.513  0.1324  0.4237 -0.0500
24064W        W44344   1.464  16.352  14.007 -0.0482 -0.1061 -0.1147
24065W        W44345   4.649  12.434   1.313  0.1395  0.0359  0.1960
24066W        W44346  13.285   4.865   1.944  0.2561 -0.2596 -0.0937
24067W        W44347  17.360  14.767  11.886 -0.2761  0.1760 -0.1265
24068W        W44348   9.374  16.409   0.807  0.1151  0.1687 -0.2538
24069W        W44349   4.080   9.242   3.309  0.0857  0.1855  0.0893
24070W        W44350   9.776  16.923  11.409 -0.0769 -0.0372  0.1118
24071W        W44351   2.771   8.329  10.376  0.2068 -0.0471  0.0782
24072W        W44352  14.847  15.502  11.997  0.0588 -0.1724 -0.1372
24073W        W44353   8.974   5.522   0.935  0.2214 -0.1084 -0.2732
24074W        W44354  18.232   4.498   3.680  0.0093 -0.1694 -0.0199
24075W        W44355   4.264  17.148   1.054 -0.2734 -0.3755 -0.3555
24076W        W44356   5.615  14.916   3.209  0.1245  0.3583  0.3420
24077W        W44357   3.117  13.570   0.010 -0.2771 -0.1772 -0.0461
24078W        W44358   9.922  12.928  11.348 -0.0328  0.3627 -0.0304
24079W        W44359   3.147  10.710  11.695 -0.0371 -0.1650  0.0007
24080W        W44360  12.328  10.527  10.504 -0.1297  0.0398 -0.2920
24081W        W44361   7.442  15.656  14.073  0.0309 -0.0647  0.0129
24082W        W44362  17.338   2.884   3.321 -0.1272 -0.0692  0.2130
24083W        W44363   7.903   2.204  13.722 -0.0287 -0.1868 -0.2451
24084W        W44364  15.904  10.769  13.836 -0.2798  0.1328  0.0583
24085W        W44365  12.327   0.250   0.245 -0.0969 -0.1502  0.1047
24086W        W44366   5.264   6.608   3.226 -0.1719 -0.2222 -0.0863
24087W        W44367   3.702   6.583  12.141 -0.1563  0.0048  0.4206
24088W        W44368   5.708  12.331   3.085 -0.1623  0.1586  0.1459
24089W        W44369   2.800   0.760  12.774  0.0636  0.0787  0.0356
24090W        W44370   2.857  12.038   1.887  0.0964  0.4984 -0.3041
24091W        W44371  13.491   8.684   0.757  0.3269  0.2879  0.3091
24092W        W44372   4.277  15.559  12.131  0.1461 -0.1415  0.4948
24093W        W44373  18.760  18.982  10.872 -0.0032 -0.0466 -0.0055
24094W        W44374   6.493  12.105  11.674  0.4779 -0.0039  0.1326
24095W        W44375   7.065   0.724   1.992  0.2295  0.2905 -0.0745
24096W        W44376  13.452   9.402  13.385 -0.0680 -0.1622  0.1149
24097W        W44377  16.724  18.516   2.291  0.2565  0.3213 -0.1204
24098W        W44378   9.719   0.516  13.781 -0.1945 -0.3039  0.1894
24099W        W44379  16.586  13.093  12.304  0.0570 -0.0427  0.0067
24100W        W44380  18.054   0.251  12.015 -0.0633 -0.0074  0.0621
24101W        W44381  14.455   5.601  12.898  0.0846 -0.0327 -0.3501
24102W        W44382  14.439  14.966  14.125  0.0543  0.1413  0.3115
24103W        W44383   0.134  14.487  11.089  0.0652 -0.3217  0.4279
24104W        W44384   1.874   2.098  11.418  0.0419 -0.3917  0.0322
24105W        W44385  14.405   5.269  12.484  0.0219 -0.0229 -0.2749
24106W        W44386  19.306   9.828   0.982  0.1609  0.1089  0.0056
24107W        W44387  13.617  19.291   1.232 -0.0393 -0.0435  0.0039
24108W        W44388   4.075   5.468   1.189 -0.0324  0.0342 -0.2672
24109W        W44389   9.413  18.040   2.306 -0.0622 -0.1008  0.1003
24110W        W44390   4.440   0.442  11.162 -0.2584 -0.1242  0.2536
24111W        W44391   4.694   9.546   0.891  0.4412  0.1600 -0.0244
24112W        W44392   6.626  14.779  11.979 -0.2812 -0.1474  0.1245
24113W        W44393  19.318  13.595  11.482 -0.0209 -0.0438 -0.3663
24114W        W44394   6.490  15.486   2.278  0.2146  0.2607 -0.0375
24115W        W44395  12.511  16.584   1.866 -0.0274 -0.0451  0.1476
24116W        W44396   2.460  16.173   4.044 -0.0426  0.3076  0.0433
24117W        W44397   9.667  10.016  11.522  0.1095 -0.1647 -0.2339
24118W        W44398  15.228   9.898  13.017  0.2108  0.1027  0.1331
24119W        W44399  11.824   0.550   0.377 -0.1670  0.1577 -0.1049
24120W        W44400  14.149   7.932   3.012  0.0102 -0.2006 -0.0477
24121W        W44401   3.152  17.798  13.580  0.2400 -0.0101  0.0488
24122W        W44402   8.588  12.365  11.513  0.0954  0.0736  0.1874
24123W        W44403  13.564  10.802   3.701 -0.2983  0.1186 -0.0945
24124W        W44404   8.394  10.599  14.358 -0.0194 -0.0277  0.0731
24125W        W44405   2.847   7.696   3.101 -0.0280 -0.0286 -0.4390
24126W        W44406   5.153  18.985  10.355  0.0876  0.1612 -0.1170
24127W        W44407   6.404   4.141  13.437  0.0934  0.0779  0.2540
24128W        W44408   7.463   7.868  10.843  0.1843  0.0043  0.1866
24129W        W44409  14.817   6.172  12.328  0.1862  0.0731 -0.0244
24130W        W44410  17.599  15.060  10.557 -0.0507 -0.1545  0.0773
24131W        W44411  10.786  16.204   3.754 -0.0428 -0.0229 -0.1350
24132W        W44412   2.885   7.913   0.039  0.0676  0.0566 -0.3037
24133W        W44413   1.102   0.223  12.439  0.0260 -0.3081  0.0003
24134W        W44414   4.562  16.394   2.802 -0.0056  0.3116  0.1073
24135W        W44415  17.967   6.357  13.109  0.0003 -0.0327  0.1577
24136W        W44416  13.330  11.325   0.858 -0.0889  0.0320  0.2034
24137W        W44417  10.881   5.623   0.299 -0.1168 -0.1855  0.1491
24138W        W44418   5.658  16.558   4.882  0.2324  0.0121 -0.1420
24139W        W44419  10.419  16.589   9.988 -0.2035 -0.0321  0.3234
24140W        W44420  14.135   1.077   1.080 -0.0695  0.1738 -0.3266
24141W        W44421  11.104   1.121  13.332 -0.1614 -0.0446  0.1093
24142W        W44422   4.215  15.328   1.402  0.1518 -0.3983 -0.1862
24143W        W44423  13.285  13.045   4.057 -0.1345  0.2606 -0.0772
24144W        W44424  18.100  12.370   0.173 -0.2565  0.1002  0.2753
24145W        W44425  10.066  16.527   2.773  0.4226 -0.0348 -0.2566
24146W        W44426  16.283   3.144  12.723 -0.1343  0.0839 -0.1992
24147W        W44427   5.043   5.933   3.944  0.1475  0.2654  0.0453
24148W        W44428  15.415  12.013  12.193 -0.0200  0.4661 -0.3022
24149W        W44429  11.370  15.439   2.429 -0.0910  0.1427 -0.0036
24150W        W44430  13.571   4.899  12.108  0.0354  0.0557 -0.3010
24151W        W44431   8.207   2.142   5.051 -0.0333  0.2313  0.2629
24152W        W44432  13.953   0.593   0.395  0.1419  0.1808  0.0127
24153W        W44433  13.169  14.115  12.362 -0.0985 -0.1358 -0.1606
24154W        W44434  13.597  14.309   4.012 -0.1195  0.1811  0.0615
24155W        W44435   2.617   5.600   0.577  0.2799 -0.2857  0.3653
24156W        W44436  18.012  16.600   1.614  0.3717  0.0322 -0.0912
24157W        W44437   8.415  17.075   0.951 -0.4092  0.0992 -0.1177
24158W        W44438  10.396   6.179  11.035  0.0963  0.0715  0.2401
24159W        W44439   1.832   2.341  12.616  0.2020 -0.0249 -0.0718
24160W        W44440   5.918   5.463   4.435  0.1612 -0.3893 -0.0640
24161W        W44441   8.084  18.905   1.810  0.2350  0.0270  0.3159
24162W        W44442   4.517  13.462   0.554  0.1710 -0.0140  0.0868
24163W        W44443  15.293  12.074  11.651 -0.3590  0.1695  0.0248
24164W        W44444  15.114   8.471   3.553  0.3325  0.0709  0.0689
24165W        W44445   5.591   8.293   3.928  0.0893  0.0078 -0.0650
24166W        W44446  17.713  15.398  14.457 -0.1967  0.2145 -0.1644
24167W        W44447   8.819   2.978  12.620  0.2353  0.1362 -0.0900
24168W        W44448   9.717  10.597   4.173 -0.0891 -0.2920  0.0446
24169W        W44449  18.133  14.490  11.703  0.0080 -0.3468 -0.1066
24170W        W44450  10.921   5.951  12.209  0.0064 -0.1203 -0.0544
24171W        W44451  17.053   4.326   2.078 -0.2043 -0.0538  0.1740
24172W        W44452   5.761  18.186   2.285 -0.0407 -0.1062 -0.3316
24173W        W44453   8.821  13.797   3.442 -0.4064 -0.0919 -0.0923
24174W        W44454  10.306  11.837   1.223  0.1139  0.0295  0.0846
24175W        W44455   5.739  10.081   9.364  0.1188 -0.0539  0.3044
24176W        W44456   1.584  10.709   0.449  0.0193  0.0965 -0.0891
24177W        W44457   8.398   3.314   0.527  0.0683  0.3959 -0.0672
24178W        W44458   5.861  12.773   3.993  0.2179 -0.1533  0.0651
24179W        W44459  13.793  14.249  12.774 -0.0453 -0.2426  0.1912
24180W        W44460  15.227  14.830  13.561  0.0676 -0.2033  0.1966
24181W        W44461  14.738   6.482   3.483  0.1079 -0.1656 -0.0197
24182W        W44462   6.091  11.204  13.284 -0.1509 -0.0495 -0.0418
24183W        W44463  13.152   2.290  13.530  0.3964 -0.1955 -0.1437
24184W        W44464   6.163  11.080  10.719  0.3835 -0.1491  0.1905
24185W        W44465  17.458   1.650   3.906  0.0593  0.0894  0.1621
24186W        W44466   2.797   7.567   2.124  0.2595 -0.1489 -0.0316
24187W        W44467   7.806  18.830   0.872 -0.2166  0.1166 -0.0968
24188W        W44468  18.196  17.765   4.473  0.0259 -0.3198 -0.1645
24189W        W44469  18.924  15.736   3.659  0.2296  0.2637  0.0159
24190W        W44470  14.525   2.227   3.594  0.2304  0.3791  0.1276
24191W        W44471   5.738   1.799   2.460 -0.1345 -0.1011 -0.1030
24192W        W44472   6.525   1.160  11.934  0.1162  0.0923 -0.0135
24193W        W44473   7.591  17.156  12.341  0.2849 -0.0941 -0.2158
24194W        W44474   1.305  12.141   0.081 -0.1281 -0.1515  0.1375
24195W        W44475   6.381   9.847  13.069  0.0978  0.0282  0.1308
24196W        W44476   5.645   5.794   0.918 -0.0117 -0.0575 -0.1699
24197W        W44477  16.051  11.330   0.085  0.1436  0.2203  0.0749
24198W        W44478   9.845  16.330   3.175 -0.1622 -0.1490 -0.1337
24199W        W44479   4.056   4.784   2.268 -0.0205 -0.2584  0.0669
24200W        W44480  16.772  15.332  12.151  0.0581  0.0835 -0.1765
24201W        W44481   9.202   1.349   0.972 -0.0145  0.4441  0.2395
24202W        W44482  16.028   3.830  11.721  0.1355  0.0274 -0.2986
24203W        W44483   6.648   5.168  10.755 -0.0069  0.0688  0.0817
24204W        W44484  16.638   3.773   0.505  0.0771  0.1970 -0.0031
24205W        W44485  16.643  17.124  13.119 -0.0603  0.1905  0.0236
24206W        W44486  14.751   4.323  12.126 -0.1394  0.1329 -0.0472
24207W        W44487  12.714   0.568   1.795  0.0037 -0.1661  0.1985
24208W        W44488   6.346   7.731   0.907 -0.1600 -0.0004 -0.1001
24209W        W44489  19.333   3.847  12.148 -0.1895  0.0358  0.0316
24210W        W44490   7.414   3.321   1.667  0.0285 -0.2380 -0.0339
24211W        W44491  11.872  19.100  11.169  0.1704 -0.2601  0.1069
24212W        W44492  15.662  17.906  12.182 -0.4152  0.0955 -0.4121
24213W        W44493  13.663  15.941   3.889 -0.0689  0.3251  0.1817
24214W        W44494  17.982   4.913  12.127  0.0559 -0.1919  0.1387
24215W        W44495   3.046  18.015   3.171  0.1256  0.0148 -0.0816
24216W        W44496   9.533  16.582  10.964 -0.2212  0.0721 -0.0384
24217W        W44497   3.736   5.637   3.824 -0.3626 -0.0760  0.0472
24218W        W44498   1.845  10.638   0.845 -0.4805 -0.0819  0.0235
24219W        W44499   3.124   6.255   2.164  0.0591  0.0893  0.2570
24220W        W44500   9.758  13.578   0.948 -0.1931 -0.1393  0.1682
24221W        W44501   1.775   8.800  13.396  0.0917  0.1589 -0.0820
24222W        W44502   2.403  14.676  13.872  0.1560 -0.2309  0.0976
24223W        W44503   9.253   4.645  12.111 -0.3833 -0.2894  0.0877
24224W        W44504  13.909   8.294   2.179 -0.0274  0.6095  0.2998
24225W        W44505  13.623   5.639   5.132  0.0009 -0.0880  0.2464
24226W        W44506  13.259  17.748   4.026  0.0745  0.1934  0.3022
24227W        W44507  12.853   3.352   4.237 -0.2521 -0.0613 -0.0528
24228W        W44508  10.885   9.244   0.036  0.1677 -0.1962 -0.3394
24229W        W44509   0.790   7.236   2.721  0.2424  0.2616  0.1148
24230W        W44510   8.026   6.005  14.038 -0.2866 -0.2432 -0.0035
24231W        W44511  17.455   8.388   2.085 -0.0527  0.2541 -0.1066
24232W        W44512  13.085   4.531   4.690 -0.0403  0.1308  0.0553
24233W        W44513  17.394  12.066  13.599 -0.1408 -0.0327  0.0138
24234W        W44514   7.874   1.370  11.296  0.0331  0.1960 -0.3852
24235W        W44515   1.930  17.719   3.011  0.0939  0.1377 -0.1804
24236W        W44516  16.218   5.299   0.232  0.2018  0.0202  0.2382
24237W        W44517   9.687   5.132   0.809 -0.0513 -0.1747 -0.3453
24238W        W44518   0.792  15.748  10.548  0.0143  0.0186 -0.1959
24239W        W44519   7.399  10.038   2.513 -0.2574 -0.1164  0.2243
24240W        W44520  13.221   0.874  14.351  0.0642  0.3970  0.2445
24241W        W44521   2.339   4.309   4.149 -0.0797  0.0098 -0.1407
24242W        W44522  18.164  12.676   2.942  0.2570 -0.0963  0.0674
24243W        W44523  17.075   0.367  14.488 -0.1818 -0.2617  0.2587
24244W        W44524  13.819   7.838  12.980  0.0735 -0.0946 -0.0881
24245W        W44525  10.787  14.508  14.344  0.3334  0.0693  0.0083
24246W        W44526  19.210   5.367   3.412  0.4310  0.0623 -0.2562
24247W        W44527  17.732   7.281   1.264  0.2512 -0.0094 -0.0810
24248W        W44528   2.345  18.582   2.724  0.0945  0.3110  0.1619
24249W        W44529  11.805   9.497   3.379 -0.1308  0.2366  0.0720
24250W        W44530   8.167  16.009  14.446 -0.2901 -0.0291 -0.2233
24251W        W44531   9.881   7.870   3.021 -0.1538  0.4905 -0.2158
24252W        W44532   1.116   5.888   0.960 -0.1167 -0.1902 -0.0846
24253W        W44533  10.047   1.466   4.020  0.3001  0.0497  0.1360
24254W        W44534   3.691   5.710  14.179  0.1613 -0.0988 -0.4060
24255W        W44535   7.980   0.285  13.882 -0.1171  0.1557  0.0548
24256W        W44536   1.506   7.838   1.130  0.0036  0.1391  0.1244
24257W        W44537   1.884   4.999  13.190  0.4276 -0.1057 -0.0702
24258W        W44538   6.163   5.324   3.939  0.1507  0.1650  0.1945
24259W        W44539   0.142   1.049   3.224 -0.1005  0.0819  0.1450
24260W        W44540   1.882  11.480  13.853 -0.0682 -0.0839 -0.0401
24261W        W44541   3.321  18.009   3.589 -0.3726  0.3841  0.2949
24262W        W44542  16.465   0.784   4.230  0.1225  0.1969 -0.0219
24263W        W44543  15.734   6.129  14.238 -0.3675 -0.0536 -0.2226
24264W        W44544   2.056  12.129  13.493  0.0917  0.1208  0.3851
24265W        W44545   3.919  18.820  12.608 -0.0970  0.1823  0.1155
24266W        W44546   1.586   4.295  11.864  0.1266  0.0095  0.1909
24267W        W44547  14.697   2.607   1.793  0.2185  0.0216  0.1194
24268W        W44548  13.936   9.505  12.675  0.2367  0.2003 -0.3364
24269W        W44549   0.337   6.509  11.032 -0.1557  0.0681  0.1165
24270W        W44550  15.228   3.218   3.415 -0.0059 -0.1167 -0.1657
24271W        W44551   4.090  16.145  12.604 -0.0215 -0.0887  0.1114
24272W        W44552   9.517  17.111   3.332  0.0081  0.0836  0.3831
24273W        W44553   5.831  13.548  12.055 -0.0956  0.1343  0.0633
24274W        W44554  10.764  14.438   0.354  0.0776 -0.0441  0.0908
24275W        W44555   1.638  18.570   3.390  0.0536 -0.0490  0.2222
24276W        W44556  14.399  19.002   0.267  0.3195 -0.2952  0.1193
24277W        W44557  17.183   3.984  10.773 -0.0731 -0.3748 -0.0216
24278W        W44558   4.901   8.556   1.366  0.2300  0.1966  0.0542
24279W        W44559  18.673   2.449  13.777 -0.1106  0.2452 -0.0749
24280W        W44560   4.140   7.021   1.548  0.1882 -0.3951  0.0973
24281W        W44561  17.920   6.119  14.453  0.0101 -0.2088  0.1623
24282W        W44562   6.012   1.961   0.707 -0.2405  0.2109 -0.2072
24283W        W44563  12.892   8.015   0.500  0.2324  0.1835 -0.0665
24284W        W44564   5.843   1.226   0.039  0.1193 -0.0620 -0.0320
24285W        W44565   2.260  12.988  13.721 -0.0774  0.2659  0.2550
24286W        W44566  12.026   7.140  11.934 -0.1105  0.3958 -0.2799
24287W        W44567  14.671   7.964   0.942  0.2351  0.0260 -0.0722
24288W        W44568  17.440   2.124   1.912 -0.0038  0.0347  0.1185
24289W        W44569  14.177   3.243  13.516 -0.0413 -0.0835 -0.0201
24290W        W44570  15.093  14.706   1.109  0.2997  0.0386  0.3277
24291W        W44571  11.365  18.374   3.657 -0.1400  0.0662 -0.3768
24292W        W44572   9.443   5.548  13.013 -0.2718 -0.2534 -0.2621
24293W        W44573  14.254   6.870   0.001  0.1460  0.0588 -0.0992
24294W        W44574   5.460  12.724   3.723 -0.1188  0.2090  0.0496
24295W        W44575   2.844   4.562   3.756 -0.4215 -0.0637 -0.2922
24296W        W44576  12.277   0.493   2.181  0.0167  0.2521  0.0224
24297W        W44577   4.891   6.077  12.244  0.0098 -0.3320 -0.0242
24298W        W44578  14.728  14.995   0.928  0.2641  0.0387  0.0670
24299W        W44579  14.753   9.484   3.644  0.2132  0.3494  0.3227
24300W        W44580  10.516  16.900  14.094 -0.2008 -0.1411 -0.2271
24301W        W44581  16.596  12.796   3.725  0.4279  0.1038 -0.0462
24302W        W44582   1.592  15.393   2.277 -0.2846  0.0169 -0.5539
24303W        W44583  18.736  19.044   4.128  0.0609 -0.0671 -0.2489
24304W        W44584  12.036  16.585  13.680  0.0230 -0.0432  0.0039
24305W        W44585   9.735  12.099   0.400 -0.0579 -0.2615 -0.1789
24306W        W44586   2.888  13.043   3.773 -0.1247 -0.0320 -0.1383
24307W        W44587   5.449   9.776   0.904 -0.0760 -0.0898 -0.0415
24308W        W44588   7.410  11.513  13.745 -0.1240  0.2049 -0.0090
24309W        W44589   3.387   5.950  11.337  0.2224 -0.5375  0.1244
24310W        W44590  15.526   6.440  10.714 -0.2488 -0.1568  0.0292
24311W        W44591   9.069   5.693   1.419  0.4202 -0.0449 -0.2091
24312W        W44592  13.929  14.230   4.364  0.2478 -0.0385  0.3049
24313W        W44593  14.539  15.895   1.036 -0.0087 -0.0594  0.0821
24314W        W44594   3.366  12.660   1.495  0.5180  0.0338  0.2158
24315W        W44595   6.114   1.242   4.072 -0.0739 -0.3076  0.3361
24316W        W44596  12.014  13.800   0.258 -0.1331 -0.3157 -0.0564
24317W        W44597  10.601   5.962   1.785 -0.1107  0.0166 -0.2368
24318W        W44598   9.995  10.058  13.644 -0.2077 -0.0631 -0.0062
24319W        W44599  12.334   5.985   3.991  0.0118  0.0536 -0.4689
24320W        W44600   4.818   9.558  11.121 -0.1545  0.0930  0.1522
24321W        W44601   4.224   6.074   2.465 -0.0831  0.0459 -0.0997
24322W        W44602   9.874   4.191  14.316  0.0968 -0.0778 -0.0460
24323W        W44603   2.002   3.655   2.860  0.1499  0.0042  0.0876
24324W        W44604  11.636   7.946   2.537  0.1676 -0.2585 -0.1314
24325W        W44605   0.701   6.867  11.941  0.1783  0.1037  0.2762
24326W        W44606   3.637  11.054   0.280 -0.3328 -0.2920  0.0178
24327W        W44607  12.076   8.595   0.876  0.1372 -0.1104 -0.1159
24328W        W44608   4.434   3.685   4.460  0.2982 -0.0229  0.3970
24329W        W44609   8.414  16.348   0.809  0.1408  0.0386  0.1813
24330W        W44610  14.353  16.612  13.065 -0.2738  0.0326 -0.1249
24331W        W44611  18.247  10.990  12.333 -0.2044  0.0207  0.1710
24332W        W44612   4.341   5.364   1.620  0.0305  0.0747 -0.0256
24333W        W44613  10.524   4.614   0.784 -0.3216  0.0526  0.1925
24334W        W44614   0.364  10.529   1.049  0.0135 -0.1585 -0.1244
24335W        W44615   2.288  14.407  14.486 -0.0648  0.0414  0.0304
24336W        W44616   9.028   0.900  13.752 -0.2297  0.5963 -0.1612
24337W        W44617   1.590  15.737   3.443 -0.1104 -0.1383  0.0293
24338W        W44618  10.873  15.487   2.553 -0.0216 -0.2147  0.1279
24339W        W44619   6.397  11.540   3.891 -0.3840 -0.0883 -0.0957
24340W        W44620  14.948  15.964  14.126 -0.1957 -0.0463 -0.1300
24341W        W44621   5.333   1.077  13.337  0.0382  0.1328  0.0722
24342W        W44622  16.121  11.030  14.187  0.3079  0.2902 -0.1166
24343W        W44623   7.241  14.475   1.008  0.0364 -0.2079  0.0028
24344W        W44624   9.491  16.205  14.042 -0.0638 -0.2543 -0.0044
24345W        W44625  17.663   4.847  10.837 -0.1135  0.1324 -0.0516
24346W        W44626   7.808  16.822   2.110  0.0850 -0.1112  0.0143
24347W        W44627  17.285  14.220   1.297 -0.0040 -0.3541 -0.0545
24348W        W44628   7.515   9.332   2.719  0.0110 -0.1900  0.1512
24349W        W44629   1.876  17.493   2.446  0.0651 -0.0920  0.0614
24350W        W44630  12.245   0.075   3.023 -0.1634  0.0248 -0.0371
24351W        W44631   3.353   9.933   0.330  0.1390  0.3817 -0.0534
24352W        W44632  17.534   4.224  13.421  0.1859 -0.0781  0.2796
24353W        W44633  11.169   5.509   2.035  0.1384 -0.1935  0.1280
24354W        W44634   5.212  11.748   1.538 -0.0491  0.0837 -0.1544
24355W        W44635  11.732  14.074  12.057 -0.0898  0.0618 -0.1841
24356W        W44636   8.369   5.607  13.944  0.0221  0.0819  0.1828
24357W        W44637   7.638  13.533   2.145  0.1718  0.1172 -0.0958
24358W        W44638  17.646   6.760   2.923  0.1896  0.2336  0.2356
24359W        W44639   2.944  13.788   4.823  0.1300 -0.0540 -0.2050
24360W        W44640   0.099  15.369   2.381  0.2325 -0.0126  0.0400
24361W        W44641  17.224  12.872  12.071 -0.1477 -0.1568 -0.1521
24362W        W44642   3.495   4.482  12.704  0.0934 -0.1279  0.1971
24363W        W44643  13.654   6.592  13.845 -0.2046  0.2048 -0.0022
24364W        W44644  14.965  12.012   2.967 -0.2077 -0.1568 -0.1193
24365W        W44645  15.109   5.813   4.461 -0.3034  0.1396  0.1295
24366W        W44646   0.122   2.928   1.221  0.0472 -0.2714 -0.1283
24367W        W44647   4.741   6.007   2.720 -0.2939 -0.1764  0.0068
24368W        W44648  16.943   1.952  13.010  0.0175 -0.1428 -0.0305
24369W        W44649   0.175  17.413   1.198  0.1032 -0.1572 -0.2173
24370W        W44650   6.018  13.948  13.876 -0.2257  0.0835 -0.0377
24371W        W44651   8.393  19.292  12.384  0.0373 -0.3129  0.4296
24372W        W44652  11.854  12.041  13.266 -0.3072 -0.2965  0.1266
24373W        W44653  17.651   1.688   1.621  0.0536  0.0654 -0.0892
24374W        W44654  11.807   9.251  13.507  0.0526 -0.3434  0.2756
24375W        W44655   4.937  16.778   0.312  0.3205 -0.0962  0.0841
24376W        W44656   2.382  19.229   2.038  0.0211  0.0862 -0.1872
24377W        W44657   6.397  17.465  14.082 -0.1073  0.1212 -0.0266
24378W        W44658  18.329  10.100  10.181  0.2060  0.1008 -0.2022
24379W        W44659  13.578  17.886  12.525 -0.0536 -0.0528  0.1841
24380W        W44660  11.361  15.195   1.552 -0.1677  0.3184  0.2386
24381W        W44661  18.606   5.935   3.386 -0.1138 -0.4448 -0.1734
24382W        W44662   9.288   9.175  12.926  0.0558 -0.0567  0.3204
24383W        W44663  14.753  12.423   0.865  0.1316 -0.1180  0.2057
24384W        W44664   8.453   3.832   3.849 -0.0480  0.0107  0.2375
24385W        W44665  15.012   9.746   2.152  0.2860  0.1068 -0.0995
24386W        W44666  17.036   1.248   3.653  0.2089 -0.1481 -0.1932
24387W        W44667   7.480  17.008   2.945  0.2576  0.2357  0.0021
24388W        W44668   7.156   3.155   0.297  0.0870  0.0539  0.1591
24389W        W44669   1.179   2.367  12.913  0.1062  0.1627  0.3074
24390W        W44670  11.036  18.385  11.931 -0.0629 -0.0917 -0.2144
24391W        W44671   0.666   9.802   0.738 -0.3153 -0.1662 -0.0933
24392W        W44672  11.297  17.848  14.209  0.1974 -0.0658  0.0730
24393W        W44673   0.223  15.728   1.529  0.1479 -0.1396  0.0794
24394W        W44674   5.706  10.348   3.540 -0.3676  0.0270 -0.0769
24395W        W44675  16.885  18.940   4.130 -0.0121  0.3198  0.0988
24396W        W44676   3.528   7.718  11.432  0.2889 -0.0326 -0.0192
24397W        W44677  17.970  10.613  13.252 -0.1950 -0.0712 -0.0661
24398W        W44678   8.910   3.265   3.819  0.2564  0.3047 -0.0182
24399W        W44679   4.013   4.867   3.936  0.0554 -0.2443 -0.1707
24400W        W44680   5.980   3.167   3.261  0.2618  0.3514  0.1997
24401W        W44681  11.010  12.067  13.961 -0.2479  0.1880 -0.0605
24402W        W44682   6.219   5.410  13.093  0.0158  0.1332 -0.1706
24403W        W44683   2.252  14.453  12.552 -0.0398 -0.1768 -0.2514
24404W        W44684  14.466   8.115   1.506 -0.0127 -0.2153  0.1337
24405W        W44685   8.744   7.574   2.307 -0.1385 -0.0008  0.1670
24406W        W44686   6.450  10.402   1.336  0.0842  0.1984 -0.0913
24407W        W44687   2.035  12.762   2.093 -0.2281  0.0652 -0.0736
24408W        W44688   2.916  17.306   4.163  0.0903  0.0739  0.1057
24409W        W44689  15.311  15.584  14.091  0.0892 -0.0717 -0.2062
24410W        W44690  11.460  10.475   1.745  0.2596  0.1645 -0.0752
24411W        W44691   1.930   0.243  13.199 -0.0746  0.2118  0.1298
24412W        W44692  19.397   4.118  12.714  0.3128 -0.0366  0.1669
24413W        W44693   2.081  16.460   1.809 -0.1748 -0.1875  0.0427
24414W        W44694  10.825  18.213  12.410  0.1703 -0.1803  0.1964
24415W        W44695  12.844  10.368   9.887 -0.1649  0.1303 -0.2688
24416W        W44696   7.449  17.876   3.982  0.1437 -0.2311 -0.0447
24417W        W44697  11.732  17.616   3.374  0.1117 -0.2454 -0.2211
24418W        W44698  12.821  18.025  12.003 -0.1318 -0.4145  0.1471
24419W        W44699  12.017   9.618  12.267 -0.0657 -0.0454 -0.0068
24420W        W44700   6.688  10.879   2.560  0.2043 -0.1216  0.3441
24421W        W44701  18.506   1.124  11.593  0.0193  0.2632 -0.2696
24422W        W44702  10.987   6.545   2.591  0.0961  0.1240  0.2558
24423W        W44703   4.512  17.389  13.618 -0.0623  0.2404 -0.6932
24424W        W44704   8.362   2.449  11.452  0.1933 -0.1632  0.0762
24425W        W44705  12.781   4.196  12.291 -0.4047  0.0761  0.0001
24426W        W44706  18.715   2.181  11.821 -0.1587 -0.2083  0.0198
24427W        W44707  15.589   8.731  14.461  0.2261  0.1181  0.3595
24428W        W44708   4.613   4.059  13.825  0.4277 -0.0935 -0.1261
24429W        W44709  10.242  10.553  13.113 -0.0181  0.2183  0.0648
24430W        W44710   1.913  14.239   2.816  0.0546 -0.3210 -0.2521
24431W        W44711  17.863   5.693   1.651  0.2295 -0.1790  0.1526
24432W        W44712  11.800   6.035   3.831  0.1088 -0.2508  0.3541
24433W        W44713   0.912   0.731  14.399 -0.2099 -0.0452 -0.0685
24434W        W44714   1.771   3.105   1.653 -0.1734  0.4327  0.0549
24435W        W44715   1.513   0.954   1.748  0.1456  0.3695 -0.2518
24436W        W44716   7.932  12.359   2.753 -0.0067 -0.4722 -0.0395
24437W        W44717  15.101   7.539  13.543 -0.2077  0.1050 -0.1441
24438W        W44718  15.330  10.440  10.983 -0.4579  0.2811 -0.3155
24439W        W44719  17.214  18.564  14.477 -0.3462 -0.0742  0.2164
24440W        W44720  10.117  14.698   1.596 -0.1168 -0.2550  0.0379
24441W        W44721   2.595   9.585  14.491  0.0361 -0.0602 -0.0969
24442W        W44722  18.882   4.375   0.575  0.0329  0.0848  0.1055
24443W        W44723   8.163  10.401   0.313  0.0216  0.1075  0.1154
24444W        W44724   6.214  10.493  13.770  0.1048  0.2712 -0.2742
24445W        W44725   0.710  14.367   9.505 -0.1215  0.1094 -0.0415
24446W        W44726  18.972  18.347   3.393 -0.3571  0.0317 -0.0175
24447W        W44727   3.034   3.685  13.785 -0.0938  0.0142  0.3395
24448W        W44728   2.283  10.585  10.792 -0.2427 -0.2415 -0.1398
24449W        W44729   8.594   0.507   4.742  0.0995  0.0975  0.0294
24450W        W44730  11.541   7.253  11.911 -0.1855 -0.0839  0.2599
24451W        W44731   1.537  16.466  11.480 -0.2379 -0.3716  0.2788
24452W        W44732  10.398  11.291  11.527 -0.2434  0.2224 -0.1039
24453W        W44733   0.818  11.117   0.334  0.0331 -0.1683 -0.2160
24454W        W44734   0.728  19.071   1.637 -0.0562  0.4439 -0.0424
24455W        W44735   0.180   3.387   1.459  0.0253 -0.1026 -0.1084
24456W        W44736  11.028   6.966  13.655 -0.0236  0.2029 -0.1817
24457W        W44737  14.235   2.202  13.567  0.2398  0.1075 -0.1958
24458W        W44738  15.399  17.012  10.882 -0.0147 -0.0594  0.0517
24459W        W44739   9.091  12.002   1.654  0.3748 -0.0624  0.0449
24460W        W44740   5.441   1.161   0.445  0.0726  0.1708  0.0335
24461W        W44741   2.674   4.890  10.827 -0.0292  0.2049 -0.0594
24462W        W44742  12.128   1.107   3.681  0.0830 -0.1393  0.0257
24463W        W44743  16.223   3.052   3.916  0.0693  0.1062  0.1479
24464W        W44744   4.704   8.174   2.396  0.1125  0.0744  0.2489
24465W        W44745   7.999   3.122   0.317  0.1053 -0.3386 -0.0665
24466W        W44746  12.071  12.244   2.158  0.1359  0.3147 -0.1029
24467W        W44747   4.095  14.000  10.762 -0.2071 -0.1704 -0.0648
24468W        W44748  16.790   5.935   1.017  0.0504 -0.3820  0.0896
24469W        W44749   2.531  18.995   3.085 -0.0814  0.0283  0.0357
24470W        W44750   0.305   7.183   2.614 -0.1106  0.1423 -0.1475
24471W        W44751  10.756  14.132   2.380 -0.0367 -0.2362  0.1771
24472W        W44752   5.965  19.259   0.794  0.1452 -0.0260 -0.0894
24473W        W44753  17.173   1.082   0.463  0.0543 -0.0150  0.1818
24474W        W44754  13.689   4.276   3.992 -0.3410  0.1772 -0.0996
24475W        W44755   8.575  16.301   1.303 -0.0827 -0.1269  0.1910
24476W        W44756  13.129   9.651   0.045  0.0094  0.3288 -0.0058
24477W        W44757   9.472  14.640  11.875  0.0527 -0.1906  0.2365
24478W        W44758   5.198  10.180  10.506 -0.0767  0.0149 -0.1343
24479W        W44759   2.612  17.453  14.250 -0.0341 -0.5891  0.0474
24480W        W44760  16.713   6.370   2.447 -0.0289 -0.0481  0.0229
24481W        W44761   9.630  12.677  13.589  0.1815 -0.0282 -0.0197
24482W        W44762  10.842   3.136  13.588  0.2669 -0.3614  0.0173
24483W        W44763  11.484   5.967  10.807  0.0690  0.0108 -0.1613
24484W        W44764   7.240  19.327   0.006 -0.2127 -0.2264 -0.1008
24485W        W44765   9.074   5.520  11.503 -0.1692 -0.1422 -0.4051
24486W        W44766   0.392   2.600  12.413  0.1945 -0.1536  0.0351
24487W        W44767   8.749   5.257   1.831 -0.1382  0.1776 -0.1314
24488W        W44768  19.214  11.923   3.448 -0.0392  0.0863  0.3609
24489W        W44769  14.273   2.420  11.576 -0.4012 -0.0143 -0.0095
24490W        W44770   5.419  13.511   0.457 -0.0623 -0.1242 -0.1836
24491W        W44771  13.759   8.398   1.681 -0.1762  0.1953  0.3323
24492W        W44772  13.681  15.536  14.423 -0.0711  0.4882 -0.0379
24493W        W44773  17.624  18.682  13.217 -0.1771  0.0265 -0.0282
24494W        W44774  10.783   8.077   3.018  0.0838 -0.0342 -0.0686
24495W        W44775   8.732  16.903  12.369 -0.1952 -0.0155 -0.1069
24496W        W44776  13.303   3.015  12.966  0.0319  0.0308 -0.2655
24497W        W44777   4.173  12.069  14.140 -0.1198  0.0367 -0.1982
24498W        W44778   7.431  18.911  14.146 -0.1762  0.0377  0.1618
24499W        W44779  10.763   9.606  11.681 -0.0042  0.0724 -0.1070
24500W        W44780   1.749  14.769   9.298 -0.1459 -0.2970  0.4468
24501W        W44781   4.399   7.491  12.315 -0.0216 -0.0955 -0.1180
24502W        W44782   2.862   0.376  13.523 -0.3038  0.1916  0.0741
24503W        W44783  10.569   3.792   2.571 -0.2696  0.1345  0.1288
24504W        W44784   3.760  10.160   0.506 -0.0183  0.0318 -0.3081
24505W        W44785   6.838  17.014  12.441 -0.2855 -0.1390 -0.2601
24506W        W44786   9.187   6.833   0.091 -0.0072 -0.0358  0.2107
24507W        W44787   8.395   0.644   1.199 -0.1690  0.0312  0.1128
24508W        W44788   4.640  16.949   2.410  0.1019 -0.2215  0.1201
24509W        W44789   9.887   9.218  11.918  0.0679 -0.0115 -0.0304
24510W        W44790   3.567   0.788   3.975  0.1007  0.0759 -0.1239
24511W        W44791  14.853  10.702  12.894  0.0382  0.2272  0.0205
24512W        W44792   3.262  12.463   0.133  0.3072  0.0493  0.0169
24513W        W44793   4.027   5.146  13.333  0.1251 -0.3831 -0.0428
24514W        W44794   3.215  12.849  10.181 -0.1012  0.0210  0.1603
24515W        W44795  19.422   2.013   1.586  0.4051  0.0360  0.1928
24516W        W44796  13.619   5.770   3.546  0.2995  0.1988  0.0051
24517W        W44797  17.079   7.931  13.714 -0.2055 -0.3488 -0.0317
24518W        W44798  14.809   3.479   3.499  0.0411  0.1034  0.0715
24519W        W44799  14.062   1.269  14.224 -0.2274  0.2007  0.0563
24520W        W44800   4.742   9.129  11.411  0.2160  0.3566 -0.0269
24521W        W44801  10.521  12.686   0.585 -0.2611 -0.2915 -0.0590
24522W        W44802   5.968   4.956  11.504 -0.2401  0.0630 -0.0852
24523W        W44803  16.179  11.101  13.655  0.0837 -0.2872  0.2143
24524W        W44804   0.629   6.465  13.873  0.0207  0.1048 -0.1037
24525W        W44805   2.017   9.882  10.482  0.0043 -0.2263  0.2146
24526W        W44806   7.819  10.312  13.267 -0.0410 -0.0270 -0.1532
24527W        W44807  11.130   2.785  12.311 -0.0397  0.0356 -0.0907
24528W        W44808  12.968  14.009  11.922  0.0314 -0.3019 -0.0331
24529W        W44809  15.503  17.001   3.416  0.1758 -0.4795 -0.0563
24530W        W44810   6.158   7.697   0.343 -0.0791 -0.0704  0.2283
24531W        W44811  15.691   9.463   2.702 -0.1688 -0.2159 -0.3810
24532W        W44812   1.448   6.372   2.556 -0.1042  0.0024 -0.1253
24533W        W44813  18.164  14.475   4.655  0.2593  0.1307  0.1698
24534W        W44814  17.305  18.210  11.541  0.1354  0.1992  0.1266
24535W        W44815  17.179  11.301  13.629 -0.1062 -0.0964  0.0399
24536W        W44816   0.532  12.634  11.507 -0.0686 -0.0713  0.0636
24537W        W44817   3.815  17.392   2.958 -0.3910  0.0850  0.1225
24538W        W44818   6.745   4.965  12.376 -0.1330  0.1404 -0.1651
24539W        W44819  16.664   9.883   0.156 -0.1441 -0.0591 -0.2313
24540W        W44820  11.478  12.829  10.967 -0.1260 -0.2183 -0.1351
24541W        W44821   1.874  15.783   3.826 -0.4708  0.2755  0.0014
24542W        W44822   0.186  15.452   0.206 -0.3297 -0.2233  0.2878
24543W        W44823  13.424   2.051   2.221 -0.1571  0.2573 -0.1322
24544W        W44824   9.823  13.954   2.200 -0.5004  0.0049 -0.2179
24545W        W44825  15.025  16.731   3.295 -0.1776  0.2958  0.0104
24546W        W44826   0.017   1.941   2.120  0.2161  0.0860 -0.3496
24547W        W44827   5.483   8.812   0.405 -0.0679  0.0619  0.1810
24548W        W44828   2.474   2.558   1.822 -0.0200 -0.1428  0.1814
24549W        W44829   9.121  14.308   0.582 -0.1481 -0.1723  0.4772
24550W        W44830  12.679   0.721   0.197  0.1716  0.1646 -0.2013
24551W        W44831   8.704  12.760   1.809  0.2207 -0.0269  0.0185
24552W        W44832   5.921   6.154  10.899  0.2619  0.1348 -0.3442
24553W        W44833   2.095  10.729  11.462 -0.1568 -0.0144  0.0319
24554W        W44834  11.591   4.603   0.192  0.1261 -0.2022 -0.2933
24555W        W44835  18.809   3.051  13.231 -0.0570 -0.1092  0.1557
24556W        W44836  18.484  11.861   1.841  0.1556  0.0809  0.0102
24557W        W44837   2.032  17.307  11.311  0.0366 -0.1024 -0.0359
24558W        W44838  13.885  17.225   3.515 -0.2199 -0.0749 -0.2703
24559W        W44839  19.367  12.996   1.359  0.0628  0.0144  0.3100
24560W        W44840   3.021   5.729   2.089 -0.2575  0.1294  0.1278
24561W        W44841   9.624  17.439  11.393 -0.1956  0.1146  0.3633
24562W        W44842   3.603   2.010   2.997  0.0336 -0.0004  0.0268
24563W        W44843  13.896  11.871   2.344  0.2760  0.0220 -0.1746
24564W        W44844   0.402   0.720  14.108 -0.0939 -0.0723  0.0312
24565W        W44845  18.367  19.210   2.311  0.0016  0.1658  0.0335
24566W        W44846   8.085   1.235  12.260 -0.0957 -0.0424 -0.1790
24567W        W44847  10.567  10.932  13.602  0.2105  0.1505  0.1190
24568W        W44848   6.592  12.682   2.273 -0.2406 -0.2220  0.2430
24569W        W44849  10.510  18.589   0.960 -0.1377  0.0050 -0.2983
24570W        W44850  12.784  11.069  10.036  0.1538  0.0589  0.2047
24571W        W44851   5.961   4.332  14.010 -0.0899 -0.1852 -0.0358
24572W        W44852  10.047   6.594  13.115 -0.1299  0.1634  0.0444
24573W        W44853   8.862  15.208   1.334 -0.0024 -0.0167  0.0501
24574W        W44854  17.365   1.180  13.106  0.1517 -0.2044  0.1491
24575W        W44855   0.803  16.264  10.849  0.2863  0.0564 -0.3286
24576W        W44856   2.421   9.630   2.798  0.2111 -0.0749 -0.1384
24577W        W44857  17.818   2.733  11.125 -0.3432 -0.1399  0.1626
24578W        W44858  12.213  11.394   2.634  0.0491 -0.0547  0.1503
24579W        W44859  11.320  18.678   0.244 -0.1123  0.3481 -0.0973
24580W        W44860  12.165   3.469  11.082  0.0458 -0.2587 -0.4008
24581W        W44861   7.066  17.989   2.167  0.0709 -0.3793 -0.0682
24582W        W44862  18.444  17.703  11.277 -0.2568 -0.3525 -0.3443
24583W        W44863   9.430   0.421  10.358 -0.0906 -0.0146 -0.0098
24584W        W44864   7.621   0.868  13.606 -0.0987  0.1324  0.0815
24585W        W44865   0.309   1.104   0.929  0.0537 -0.1867 -0.0687
24586W        W44866  13.900   2.309  10.747 -0.3781  0.1012  0.1213
24587W        W44867  15.173   4.591   0.760 -0.5444 -0.1972  0.1736
24588W        W44868  16.452  11.319   0.400 -0.0531 -0.0275 -0.2626
24589W        W44869   9.401  14.216   1.195 -0.2093  0.0310 -0.0835
24590W        W44870   0.425   5.784  11.699  0.0929 -0.3261 -0.1930
24591W        W44871   0.860  12.608   0.145  0.0465  0.1162  0.1911
24592W        W44872  14.560  13.369   0.572  0.0200 -0.3035  0.1567
24593W        W44873   9.860   3.269  12.977 -0.0726 -0.0634  0.0527
24594W        W44874   6.797  18.038  11.546  0.0747  0.3588 -0.1108
24595W        W44875   8.543  16.944  13.961 -0.0654 -0.2033  0.0985
24596W        W44876  17.300   2.503   0.115  0.1947  0.1562 -0.2389
24597W        W44877  17.710  18.738   3.514  0.0481 -0.0640 -0.2359
24598W        W44878   2.580   0.838   3.813  0.1774  0.2270  0.2442
24599W        W44879   0.547  16.124  10.330  0.0570  0.0685  0.0828
24600W        W44880   9.970  14.926  13.913 -0.4374 -0.2063  0.0310
24601W        W44881  12.203  14.277  13.425 -0.4438  0.0650 -0.1636
24602W        W44882  17.677   0.363  10.662  0.1027 -0.1784 -0.1343
24603W        W44883  10.734   4.214   4.458  0.4314  0.2001  0.0102
24604W        W44884  14.285  10.636  10.692  0.0320  0.2558 -0.0030
24605W        W44885  14.007   7.080   3.701 -0.1346 -0.2042  0.0804
24606W        W44886   3.706  17.827   1.089 -0.1278 -0.0438  0.3060
24607W        W44887   7.399  13.634  13.929  0.1484  0.0304 -0.1648
24608W        W44888  11.915  12.042   4.131 -0.0436  0.1235 -0.1097
24609W        W44889  16.060   3.982   0.567 -0.2712 -0.0901 -0.0140
24610W        W44890   6.054   7.260   2.857 -0.0672  0.0241  0.4064
24611W        W44891   5.461  13.648  10.593 -0.2348  0.3739  0.1270
24612W        W44892   5.631   7.868   0.292  0.1863  0.1424  0.1167
24613W        W44893  10.031  11.085  14.480  0.1583  0.0311 -0.0467
24614W        W44894  10.532  17.895   3.351  0.1264  0.1197  0.1132
24615W        W44895   3.420   7.151  10.755 -0.0382 -0.3579 -0.1474
24616W        W44896   4.356   9.183   1.434  0.4088 -0.0319  0.0099
24617W        W44897  17.729   9.221   1.285 -0.0506 -0.0966 -0.0221
24618W        W44898  11.857  15.557  14.165  0.4170  0.1658  0.3256
24619W        W44899   8.369   6.946  11.295 -0.2288  0.0268  0.0916
24620W        W44900   6.478   6.399   2.429 -0.0028 -0.1793 -0.3844
24621W        W44901   5.130  14.343  10.980  0.3667 -0.2665  0.5291
24622W        W44902   8.543  13.988   2.146 -0.3656  0.1032 -0.0096
24623W        W44903   0.922  18.296  14.296 -0.0016  0.1940 -0.3162
24624W        W44904   2.527   9.729   0.695 -0.1924  0.0542 -0.0754
24625W        W44905  17.977  11.581   3.780 -0.2178  0.2483 -0.0805
24626W        W44906  16.894   8.225  14.097 -0.0755 -0.4383 -0.2288
24627W        W44907   7.542  13.470  14.401 -0.2007 -0.0252  0.0987
24628W        W44908   9.483  11.606  10.435 -0.0743  0.4812 -0.3186
24629W        W44909   0.992  14.094  13.615  0.1811 -0.1628 -0.2297
24630W        W44910  11.474  17.787   2.698 -0.0329  0.1987 -0.0154
24631W        W44911   1.748   0.802  14.279  0.2274 -0.0886  0.1458
24632W        W44912  10.552  15.748  12.451 -0.4474  0.0755  0.0203
24633W        W44913   4.615   6.173   0.465  0.0351  0.0759 -0.1761
24634W        W44914  12.788   8.296  13.724  0.1146 -0.0616 -0.1015
24635W        W44915  16.691   7.792   2.636 -0.1104 -0.2222 -0.0506
24636W        W44916  15.182   7.789   1.002  0.0036 -0.1106  0.3590
24637W        W44917   0.717   3.345  11.712 -0.0668  0.1217  0.0884
24638W        W44918  11.585   9.914  12.171 -0.1796  0.1420  0.3955
24639W        W44919   5.205  16.479  14.024 -0.1775  0.0144 -0.2581
24640W        W44920  13.293  18.298   3.911  0.1070  0.3618  0.3100
24641W        W44921  13.654  18.363   1.864  0.3019  0.0069 -0.1114
24642W        W44922  15.504   7.427   3.653 -0.1045  0.2225 -0.1647
24643W        W44923   4.280  16.514  14.456  0.3470  0.0297 -0.1839
24644W        W44924   8.488   8.283   3.181  0.1017  0.2813  0.0830
24645W        W44925  15.549   7.590  12.791 -0.3221  0.0263 -0.1392
24646W        W44926  19.284  18.723   3.591 -0.2702  0.0005 -0.0485
24647W        W44927  15.444   9.696  11.112  0.2963 -0.2780 -0.0914
24648W        W44928  15.088   4.343  13.496  0.0620 -0.0023  0.5900
24649W        W44929  11.937  17.970   3.054 -0.0223  0.0917  0.3273
24650W        W44930   1.306   1.166   3.701  0.1273 -0.2172 -0.1838
24651W        W44931  10.878   0.234   2.717  0.0424  0.3407  0.0292
24652W        W44932   0.518  17.471   0.082  0.1806  0.2395  0.2588
24653W        W44933   2.848  16.994  11.847 -0.1320  0.0634 -0.3263
24654W        W44934   3.379   9.430  10.350  0.0734 -0.1953 -0.0844
24655W        W44935  18.506   8.093  11.134  0.1688  0.0401 -0.0617
24656W        W44936  13.465  11.802  14.149  0.1036  0.1961 -0.2158
24657W        W44937  10.224   5.496   3.116 -0.1744  0.4729  0.1370
24658W        W44938  17.506   0.989   3.189 -0.1067  0.3285 -0.0270
24659W        W44939  13.234   0.110   0.082 -0.2670 -0.2271 -0.0682
24660W        W44940  12.132  13.394   9.991 -0.0650  0.0039 -0.0556
24661W        W44941   7.110   7.248  13.488 -0.1236 -0.1606  0.2513
24662W        W44942   9.079  12.721   0.512 -0.1349  0.0813 -0.2843
24663W        W44943  12.798   4.306   4.385 -0.1753 -0.0472  0.0042
24664W        W44944   9.252  19.104   0.797  0.2433 -0.1498 -0.1404
24665W        W44945  10.347   7.306   2.619 -0.0111 -0.1257  0.1331
24666W        W44946   7.107  11.000   1.010  0.2264 -0.1859  0.0469
24667W        W44947   8.143   1.010  13.375 -0.0426  0.1938  0.0617
24668W        W44948  11.874   2.081   1.238  0.4269  0.0035  0.0400
24669W        W44949   4.187   1.481  11.775  0.1215  0.0298 -0.0088
24670W        W44950   8.913  19.266   3.404  0.0750  0.0224 -0.0088
24671W        W44951   2.903  10.399   1.084  0.0466  0.0211 -0.2788
24672W        W44952  10.147  15.862  11.305 -0.5828  0.2051 -0.1827
24673W        W44953   4.913  17.242  14.137 -0.0147 -0.1815 -0.2598
24674W        W44954   6.675   9.141   3.842 -0.0378 -0.2134  0.0624
24675W        W44955  16.132   0.564   1.879  0.1282 -0.4186 -0.0103
24676W        W44956  10.491   4.632  13.973  0.1459 -0.2077  0.0188
24677W        W44957  15.101  13.364   0.731 -0.1382 -0.2050  0.0402
24678W        W44958   4.560   8.986  13.129  0.0378 -0.0425 -0.0746
24679W        W44959  17.666   9.447  12.697  0.1325  0.0091 -0.0934
24680W        W44960  13.015   3.092  10.832  0.2072  0.1460  0.2373
24681W        W44961   5.787  18.771   2.847  0.1117  0.1013  0.0441
24682W        W44962  17.378   3.438  11.860  0.0375  0.0666  0.3348
24683W        W44963  10.134  15.472   0.200 -0.0878  0.0043 -0.2978
24684W        W44964   6.131  12.959   3.429  0.1394  0.0728 -0.0728
24685W        W44965   6.049   6.553   0.389 -0.1880  0.2473  0.1175
24686W        W44966   0.274   7.297  14.386 -0.0986 -0.3055 -0.0258
24687W        W44967   4.795   5.002  10.789 -0.0428 -0.0413 -0.3093
24688W        W44968  18.476  18.253  13.024  0.0466 -0.2326 -0.2383
24689W        W44969   9.748   0.124   2.838 -0.0777 -0.0903  0.1342
24690W        W44970   6.488  12.535   1.284 -0.1779  0.1374 -0.1966
24691W        W44971   4.073  10.880  11.656  0.2747 -0.0583  0.1081
24692W        W44972  15.675  15.759   2.883  0.3091  0.3389 -0.2895
24693W        W44973  11.348   7.823   1.789  0.1427  0.0632  0.0293
24694W        W44974   4.230  11.409  12.796  0.1048  0.1515  0.2712
24695W        W44975   7.074   7.307   1.923 -0.1391  0.1476  0.4290
24696W        W44976  19.339  16.691  14.205  0.0382  0.1262  0.1990
24697W        W44977   0.046  14.406  10.363  0.1265  0.2089 -0.5405
24698W        W44978  12.062  19.383  13.185 -0.2804 -0.1662  0.2536
24699W        W44979  10.407   9.776   0.439 -0.0198 -0.2127  0.1270
24700W        W44980  11.533   8.661  12.278 -0.0371  0.0283 -0.1808
24701W        W44981  13.364   7.532  11.280 -0.0376  0.1564  0.0850
24702W        W44982  11.835   4.212  12.291 -0.0315 -0.0365 -0.0938
24703W        W44983  11.506   2.884  14.361 -0.1958 -0.1331  0.0741
24704W        W44984   6.364  19.148   1.403 -0.2620  0.0438 -0.0299
24705W        W44985  17.626   0.108   3.504 -0.0244  0.1047  0.0058
24706W        W44986  13.262  10.076  12.753 -0.2118 -0.1405 -0.1181
24707W        W44987   3.626   8.640   0.811  0.1314 -0.0508 -0.1393
24708W        W44988  15.666   0.657  13.151 -0.0445 -0.3623 -0.0713
24709W        W44989  10.299   9.922  11.604 -0.1453 -0.0239  0.0935
24710W        W44990  19.016   1.688  13.815 -0.0563 -0.0961 -0.3319
24711W        W44991   9.673   9.802   3.150 -0.0203  0.1136  0.0892
24712W        W44992  14.683   3.987   0.252 -0.1393  0.1675  0.1120
24713W        W44993  16.636   5.443   1.012 -0.0760  0.1520  0.2231
24714W        W44994   2.062   3.353  11.119 -0.2905 -0.1830  0.0889
24715W        W44995   8.400  19.279  10.996 -0.3144 -0.1430  0.1126
24716W        W44996   5.217  12.753  13.484 -0.1848  0.1995  0.1811
24717W        W44997  12.985   7.384   0.475  0.0533  0.0466 -0.0138
24718W        W44998  12.923   6.623   4.127  0.0856 -0.2333 -0.0681
24719W        W44999   6.056  16.437   0.602  0.0694  0.0401  0.0596
24720W        W45000  13.467  15.057   2.201  0.2542 -0.2599  0.0412
24721W        W45001  16.082  14.000   2.049  0.3744 -0.1201  0.2467
24722W        W45002   3.324   1.858   2.546 -0.0605 -0.2318 -0.2770
24723W        W45003  13.315   2.656   1.040  0.0316  0.2144 -0.1563
24724W        W45004  17.502  14.500   1.731 -0.0013  0.1838 -0.1520
24725W        W45005   4.653  15.930   1.357 -0.2055 -0.0496  0.0742
24726W        W45006   3.042   4.944   1.560  0.1707  0.0475  0.1587
24727W        W45007  14.641  17.847  13.587  0.3660 -0.1456 -0.0511
24728W        W45008   6.432   0.329  11.893  0.0369  0.0031  0.2726
24729W        W45009  12.777   3.142  11.861 -0.2186 -0.1585 -0.3064
24730W        W45010  10.841  12.198  10.874  0.0852  0.1229  0.0615
24731W        W45011  10.096  18.602   4.197 -0.1822 -0.2206 -0.2006
24732W        W45012   5.834   5.425   4.940 -0.2222 -0.0880 -0.3879
24733W        W45013   1.482   0.404  11.666  0.3480  0.0066 -0.2455
24734W        W45014   9.823   5.613  10.993 -0.1471  0.0679 -0.0678
24735W        W45015  17.448   9.703  14.051  0.1946 -0.1161  0.0591
24736W        W45016  11.595   0.171  12.720 -0.1100 -0.0554  0.2741
24737W        W45017  11.029  10.072  12.214  0.3333 -0.1025 -0.2309
24738W        W45018  16.568   1.619  10.999 -0.0529  0.0521  0.0538
24739W        W45019  17.508   5.365   1.849 -0.1151 -0.0142  0.2187
24740W        W45020   2.099  16.713   2.722  0.0070  0.0549  0.1366
24741W        W45021  16.829  18.269  12.883  0.1403  0.1659 -0.0147
24742W        W45022   7.969  15.913  13.831  0.1663 -0.2043 -0.0534
24743W        W45023   6.002   3.178  11.351  0.2178  0.3422 -0.0886
24744W        W45024  13.378  11.746   2.364  0.3657 -0.0116  0.1936
24745W        W45025  15.285  14.348  13.550 -0.1640  0.1061 -0.0277
24746W        W45026  14.520   4.572  11.753 -0.3128  0.0111  0.1880
24747W        W45027  10.781  11.214  10.662 -0.0198  0.0065 -0.1163
24748W        W45028  15.430   1.831  11.601 -0.3429  0.0608  0.1004
24749W        W45029  12.734  16.264   0.638 -0.0777 -0.1567 -0.5277
24750W        W45030   3.623   0.435   3.560  0.3022  0.0373  0.1760
24751W        W45031   6.599   2.852   2.232 -0.0292 -0.2825 -0.3489
24752W        W45032   7.735   7.881  13.703 -0.1053  0.3456 -0.3869
24753W        W45033  17.077   9.963  14.366  0.0492 -0.2320  0.3638
24754W        W45034  15.111  13.394  13.801  0.5108 -0.0648 -0.0245
24755W        W45035  17.167  13.367   1.152  0.2980 -0.0504  0.0432
24756W        W45036   6.321   5.939  12.455 -0.2628 -0.1671 -0.1015
24757W        W45037   4.083   4.037   1.107  0.0365 -0.2406 -0.2481
24758W        W45038  17.379   8.904   0.384 -0.0956 -0.1353 -0.1900
24759W        W45039   9.903  16.041   4.095  0.0729  0.0826  0.0209
24760W        W45040   7.205  18.751  12.209 -0.0206  0.0458  0.0282
24761W        W45041  10.705   2.219  11.616  0.2001 -0.0839 -0.1585
24762W        W45042  16.999  17.278  14.283  0.0513 -0.0866  0.0936
24763W        W45043  12.703  18.455   2.768  0.0292  0.0631 -0.0540
24764W        W45044  16.854   0.806   1.715  0.2662 -0.1039 -0.0531
24765W        W45045   1.033  17.293   0.632  0.2661 -0.0751 -0.1468
24766W        W45046  17.304   2.946  11.964  0.1180 -0.2259  0.2776
24767W        W45047  14.467  16.272  14.099  0.1491 -0.1304 -0.1939
24768W        W45048   3.507   5.576   1.117 -0.1220  0.1811 -0.0625
24769W        W45049   0.430  10.182  13.188  0.1674 -0.1361 -0.1330
24770W        W45050  18.108  15.861  11.219  0.3139 -0.2091 -0.1522
24771W        W45051   7.546   2.815   0.977 -0.0780 -0.0119 -0.0585
24772W        W45052   9.806  13.301   3.959 -0.1053 -0.1894  0.2301
24773W        W45053   4.214   5.406  12.889  0.2325 -0.0812 -0.0820
24774W        W45054  18.710  15.265  10.790 -0.1072 -0.2194  0.2404
24775W        W45055   2.540  16.758   0.300  0.1069 -0.1154  0.0556
24776W        W45056  18.325  18.497  10.931  0.0825 -0.0197 -0.2679
24777W        W45057   3.670  16.185   0.245  0.2444 -0.1321 -0.3283
24778W        W45058   7.052  11.490  12.785  0.0596 -0.1867  0.1441
24779W        W45059  12.283   1.709   2.205  0.0775 -0.1770  0.0395
24780W        W45060  10.310   1.825  13.736  0.1280  0.4079 -0.0043
24781W        W45061   0.569  15.503   2.033  0.1497 -0.1569 -0.0229
24782W        W45062  16.223  11.618  12.344  0.1623  0.0665  0.0596
24783W        W45063   7.907  15.904   2.587 -0.1605 -0.0118 -0.0253
24784W        W45064  12.816  10.547   1.900 -0.0866 -0.1516 -0.0087
24785W        W45065  18.636  11.839  13.571  0.1143  0.0296  0.0430
24786W        W45066   1.633   9.923  11.173 -0.0403 -0.1657  0.1699
24787W        W45067   4.361   3.626   2.381 -0.0539 -0.1865 -0.2455
24788W        W45068  11.542   3.201   1.052  0.0295  0.2361  0.1389
24789W        W45069   0.865  15.120  12.332 -0.0654 -0.2121  0.0428
24790W        W45070  18.714   3.203  10.999  0.1205  0.1783 -0.1129
24791W        W45071   0.895  10.342  13.287  0.1631  0.0258  0.1296
24792W        W45072   4.560   0.231  12.122  0.1566  0.0057 -0.2230
24793W        W45073  13.048   8.463  14.122 -0.0698 -0.0530  0.0734
24794W        W45074  15.153  10.724   2.659  0.2565  0.0349 -0.2222
24795W        W45075  15.394  14.939  11.170 -0.1503  0.5237 -0.2393
24796W        W45076  13.779   2.429  11.766 -0.0130 -0.0101 -0.0153
24797W        W45077  18.979   8.407   1.300  0.0826 -0.1720 -0.0793
24798W        W45078   8.609  14.887  12.862  0.3259 -0.1596 -0.0212
24799W        W45079   7.648  12.744   3.668  0.1481  0.2311  0.2442
24800W        W45080   0.379   9.979   1.111 -0.1185  0.1721  0.1226
24801W        W45081  10.669   1.729   5.051 -0.0244  0.2635 -0.1021
24802W        W45082  14.540   5.696   3.828 -0.0309  0.1736  0.0389
24803W        W45083   7.430   0.691   1.579 -0.0078  0.0785  0.1930
24804W        W45084  16.600   5.022   3.171 -0.0486  0.2815 -0.3917
24805W        W45085  10.858  15.761   4.014 -0.0145 -0.1968 -0.1725
24806W        W45086   5.904   7.656   1.222 -0.3092  0.4253 -0.2408
24807W        W45087   0.402  17.758  13.290 -0.2838 -0.2456  0.2868
24808W        W45088  10.122  11.517   0.876  0.2549  0.1767 -0.0887
24809W        W45089   2.758   4.992  13.900  0.0544 -0.1902  0.0204
24810W        W45090   6.047  13.241  11.389 -0.0419  0.1654  0.0019
24811W        W45091   9.921   6.631  11.407 -0.2491  0.2367 -0.3260
24812W        W45092  18.477   3.421  12.796 -0.1367  0.3529  0.1380
24813W        W45093   5.530  14.888   1.294 -0.4437  0.1528 -0.1199
24814W        W45094   0.888   4.250   1.715  0.3836 -0.0314 -0.0116
24815W        W45095   9.621   5.313  13.478  0.0038  0.0507 -0.0191
24816W        W45096   7.780  16.134  11.288 -0.3956  0.1484  0.2405
24817W        W45097  18.166   0.650  14.086  0.1066  0.1312 -0.2244
24818W        W45098   9.248  14.567   3.852  0.3999 -0.0626 -0.0249
24819W        W45099   9.226  16.847  12.522  0.2558 -0.2217  0.1469
24820W        W45100  14.556   3.111  12.708 -0.1769 -0.1274 -0.1628
24821W        W45101  18.600   4.708   4.354 -0.1147 -0.0353 -0.2304
24822W        W45102   6.619   0.648  14.403 -0.0097  0.1142 -0.0484
24823W        W45103  19.070  18.820  11.525 -0.2551 -0.3799  0.1774
24824W        W45104   6.205   3.159   0.729  0.6225 -0.1961 -0.1311
24825W        W45105  18.903  16.831  10.760 -0.3716  0.0678  0.2798
24826W        W45106   9.554   4.641   1.003 -0.0773  0.0867 -0.0595
24827W        W45107  18.679  14.712   0.505 -0.0720 -0.2526 -0.1438
24828W        W45108  16.393  18.158  12.613 -0.1586 -0.1472 -0.3363
24829W        W45109   5.289  17.715  12.562 -0.0913  0.4787  0.0492
24830W        W45110  14.098   5.547   1.090  0.1404  0.2494 -0.1874
24831W        W45111  17.872  17.410  13.041 -0.0051  0.1858 -0.1121
24832W        W45112  12.416  13.643  10.284 -0.0408  0.0143 -0.1021
24833W        W45113   8.810   9.284   0.037 -0.0824 -0.0955  0.2779
24834W        W45114  11.031  15.767  10.683 -0.1846  0.1595  0.0268
24835W        W45115  19.347  17.757   3.611  0.2037 -0.0904 -0.4925
24836W        W45116  14.097   4.105  14.458 -0.0684 -0.0612 -0.0032
24837W        W45117  12.772   2.095   3.598  0.1310  0.0319  0.2990
24838W        W45118  16.163  15.222  11.377  0.0051 -0.4249 -0.1635
24839W        W45119   2.884   4.011   3.271  0.2053  0.0908  0.1787
24840W        W45120   6.787   4.486  14.287  0.2661  0.0206  0.0827
24841W        W45121   1.783   4.879   0.837  0.2860 -0.0748  0.2598
24842W        W45122  17.078  16.458  10.759 -0.0673 -0.0624  0.5532
24843W        W45123   6.357   7.902  13.327  0.0846 -0.0637 -0.4727
24844W        W45124  14.579   9.231   1.358  0.0910 -0.2825 -0.2173
24845W        W45125  18.917   0.118   3.921 -0.1049 -0.2260  0.0306
24846W        W45126   6.275  18.203   1.098  0.2613  0.2488  0.0058
24847W        W45127  11.761   4.114   1.038  0.0609 -0.3663  0.2043
24848W        W45128  15.958   7.837  10.759  0.1819  0.1536  0.2189
24849W        W45129  13.297  15.601   3.568 -0.2246 -0.1241  0.0310
24850W        W45130  12.212  14.405   0.570 -0.0435  0.1922 -0.0683
24851W        W45131  12.380   4.957   4.003  0.0861 -0.0235  0.2074
24852W        W45132   1.711   0.133   3.074  0.0660 -0.1041 -0.1609
24853W        W45133  13.271  17.065  12.630 -0.4518 -0.0504  0.0232
24854W        W45134   2.753  10.620   0.623  0.0685  0.0136 -0.2693
24855W        W45135  14.265  17.901   1.546 -0.1712 -0.1561 -0.0875
24856W        W45136   5.902   1.030   0.628 -0.4630 -0.0559  0.4398
24857W        W45137  10.451   0.859   1.529 -0.0672 -0.1690  0.1101
24858W        W45138  12.142   6.205  11.855  0.0163 -0.0221  0.0183
24859W        W45139   5.183   5.312   0.417  0.0724 -0.0198 -0.3280
24860W        W45140   7.552   4.775   0.836 -0.0006  0.2563  0.1088
24861W        W45141  16.800  17.769   2.351 -0.3297 -0.0269  0.1460
24862W        W45142   0.699   3.376   2.242  0.3001  0.0563  0.2500
24863W        W45143   0.657  17.450   3.869 -0.2589  0.0763 -0.0665
24864W        W45144   8.390  10.105  12.091  0.0656  0.2884 -0.1865
24865W        W45145  17.230  10.547  11.562  0.0752 -0.2113 -0.1667
24866W        W45146   9.891   3.667   2.973 -0.2204  0.3566  0.2110
24867W        W45147  17.185   8.140  12.366 -0.3867  0.2079  0.1500
24868W        W45148   3.609  10.634  12.536 -0.2800  0.2030  0.1744
24869W        W45149  14.540   6.328   0.098  0.2097  0.1250 -0.2446
24870W        W45150  13.599   9.904  12.398  0.0294 -0.0528 -0.2589
24871W        W45151   1.602  10.077   0.661  0.0167  0.2608  0.0413
24872W        W45152  11.036   7.155  12.843  0.1623 -0.3551  0.0770
24873W        W45153   7.876  18.208  12.460  0.0627 -0.0839  0.0058
24874W        W45154  11.012  14.311  11.501  0.0006 -0.1043 -0.1837
24875W        W45155   4.444  18.832  12.930  0.1502 -0.0263  0.2630
24876W        W45156  16.518  17.534  12.353 -0.2100 -0.0487  0.2137
24877W        W45157  10.825  11.162  11.717  0.3004  0.0917  0.0585
24878W        W45158   9.725   1.125  13.148 -0.2463  0.3504  0.0920
24879W        W45159   3.165   6.499  14.033 -0.0479  0.0929  0.1161
24880W        W45160  15.933   4.955  12.405  0.0851 -0.0273  0.0835
24881W        W45161   1.620  10.773   1.323  0.1863 -0.1629 -0.0593
24882W        W45162  12.884   9.149   1.453 -0.3712 -0.2798  0.3405
24883W        W45163  12.976   4.719   0.498 -0.0302  0.1629 -0.0637
24884W        W45164   2.318   2.736  10.574  0.0705 -0.0237  0.2552
24885W        W45165  14.594   4.132  13.662  0.1078 -0.2195 -0.1684
24886W        W45166   1.971  18.166   3.358  0.4243  0.1666  0.0426
24887W        W45167  16.100  15.076  12.357 -0.0120  0.2883 -0.0721
24888W        W45168   0.927  12.620   3.625  0.0290 -0.0456 -0.0744
24889W        W45169  17.788   6.283   2.380  0.0377 -0.2335 -0.0643
24890W        W45170  15.579   3.016   1.404 -0.0820 -0.1467  0.1699
24891W        W45171   5.111   2.431   2.471 -0.0330  0.2391  0.1244
24892W        W45172   5.449  14.162  12.556  0.2010 -0.1595  0.0213
24893W        W45173   0.534  17.900   2.200  0.1197 -0.0949 -0.1586
24894W        W45174  13.864   1.675  12.244  0.1784  0.2136 -0.0292
24895W        W45175  16.690  16.218   2.387  0.0542 -0.0149  0.4799
24896W        W45176   0.228   0.827   0.474  0.2310  0.0629  0.0568
24897W        W45177  10.278   4.746   0.366  0.0407  0.0310  0.0462
24898W        W45178   3.749  13.218  10.140  0.2277  0.2835  0.3780
24899W        W45179  10.618   7.116   3.936 -0.3571  0.0302 -0.0827
24900W        W45180   3.632   6.401   2.227  0.1293 -0.0305  0.0877
24901W        W45181  18.375   1.328   2.210 -0.0853  0.1158 -0.2355
24902W        W45182  16.576   4.628  11.724  0.0369 -0.0969  0.2175
24903W        W45183  10.433  15.117   2.368 -0.0425  0.2387  0.1625
24904W        W45184   4.288   3.752   0.657 -0.1329 -0.1137 -0.1743
24905W        W45185   3.507  11.194  11.543 -0.1034  0.1578  0.1768
24906W        W45186  11.883   0.725   3.832  0.0210  0.3200  0.1144
24907W        W45187  18.604   6.873  13.679 -0.0117 -0.1245 -0.1195
24908W        W45188   8.478  12.181  12.936 -0.0467 -0.1281 -0.0182
24909W        W45189  18.757  14.668   1.441 -0.3258  0.2718  0.3779
24910W        W45190  10.315  15.948  12.084 -0.0747  0.4463 -0.1706
24911W        W45191   6.162   1.039   2.730 -0.1494 -0.0397 -0.6242
24912W        W45192   3.825  18.614   2.644  0.1250 -0.1112 -0.3980
24913W        W45193  11.737   1.226  11.151 -0.1493  0.0510  0.0493
24914W        W45194   6.235  11.457  12.782  0.1688 -0.2324  0.1177
24915W        W45195  12.750  14.394   2.944 -0.0662  0.1939 -0.0470
24916W        W45196   7.485  15.710   2.202 -0.1199 -0.0802  0.0076
24917W        W45197   6.116   3.879   3.042 -0.3855  0.2243 -0.0646
24918W        W45198   8.948   3.718   2.635 -0.3487  0.0819 -0.2412
24919W        W45199   4.381  13.993  13.099  0.0644 -0.2923 -0.0650
24920W        W45200   3.632  13.795   0.073 -0.0113 -0.0441  0.1795
24921W        W45201  11.624   2.799   4.336 -0.1899  0.0367  0.0042
24922W        W45202   9.761  14.821   3.124 -0.4235  0.0720  0.0821
24923W        W45203   9.036   1.929  11.275 -0.1690 -0.0369 -0.1381
24924W        W45204  12.630   6.612  10.477 -0.2441  0.0479  0.0414
24925W        W45205  10.592  18.583   9.379 -0.1978 -0.1266  0.0467
24926W        W45206  17.953   5.343   3.918  0.0333 -0.1240  0.2811
24927W        W45207   8.136  18.170  10.891 -0.0327  0.1002 -0.2006
24928W        W45208   4.342  10.553   5.258  0.1625  0.0870  0.3699
24929W        W45209   7.142  13.039   0.017  0.2090  0.1101  0.1026
24930W        W45210   8.348  17.007   3.460  0.1981 -0.0524 -0.1303
24931W        W45211   9.750   8.080   3.454 -0.1933  0.0852  0.1927
24932W        W45212  17.559  12.826   1.159 -0.0315  0.1977 -0.0636
24933W        W45213   7.445   3.442   2.347  0.0344  0.0540  0.1288
24934W        W45214   5.874   6.193   2.341 -0.1585  0.2282  0.2864
24935W        W45215  13.136   4.492   3.521  0.0494 -0.1780 -0.0442
24936W        W45216   4.112   5.329   2.864 -0.0854  0.0126 -0.2315
24937W        W45217  18.564  15.333   2.602 -0.1039 -0.1867 -0.2885
24938W        W45218   4.377  19.114  14.133  0.1170  0.0714 -0.1720
24939W        W45219   4.984  11.893  12.393  0.2311 -0.0559 -0.1619
24940W        W45220   1.772  10.101   1.712  0.0666  0.1677 -0.2891
24941W        W45221   6.428   6.955   0.195 -0.2715  0.0372  0.2958
24942W        W45222   4.192   8.097   3.903 -0.0779  0.2501 -0.0298
24943W        W45223  18.486  15.522  12.197  0.0295  0.0338  0.0265
24944W        W45224   7.344  15.196  13.690  0.1751 -0.0487 -0.0767
24945W        W45225   9.132   5.997  12.310  0.0661  0.1109 -0.1184
24946W        W45226   6.362  14.941  12.372  0.1811  0.1991  0.1568
24947W        W45227   5.177   6.814  13.853 -0.1126 -0.0999 -0.0341
24948W        W45228   4.897   5.563  10.809 -0.1098  0.0118  0.0226
24949W        W45229  11.170  16.040  12.061  0.2696 -0.0937  0.3002
24950W        W45230  18.165  16.649  14.024  0.1736 -0.0950  0.0283
24951W        W45231  18.210   3.296  10.850 -0.3000  0.0765  0.5130
24952W        W45232  11.281   7.817  11.225  0.0633  0.2318  0.0295
24953W        W45233   3.244   4.543  11.059 -0.2610  0.0048  0.3781
24954W        W45234   9.822  11.404  12.427  0.1431 -0.0107  0.0443
24955W        W45235   9.631  10.230  11.043 -0.4579  0.0172 -0.1417
24956W        W45236   2.056  10.258   2.161  0.1506  0.0168 -0.2067
24957W        W45237  18.028  17.769  10.428 -0.0531 -0.1010 -0.1426
24958W        W45238  16.863   1.941   0.439 -0.3492  0.0767  0.1440
24959W        W45239  14.331  17.791  10.303 -0.3322 -0.3900  0.2788
24960W        W45240  10.654  14.225   2.910 -0.0029 -0.1908  0.0271
24961W        W45241  13.810   2.398   1.634  0.2406 -0.0380  0.2744
24962W        W45242  10.178  11.344   1.375 -0.4170 -0.1678  0.0325
24963W        W45243  17.124  15.602   1.143 -0.0480  0.0439 -0.0028
24964W        W45244  11.841   5.131   1.111  0.2432 -0.0640  0.0633
24965W        W45245   8.857  19.411  13.119 -0.2062 -0.4658  0.1331
24966W        W45246  18.642   5.941  10.878 -0.1619  0.3509 -0.0183
24967W        W45247  10.981  11.349  11.296 -0.2148  0.0332  0.2187
24968W        W45248  14.649   2.923  13.846 -0.1017 -0.1098 -0.1264
24969W        W45249  16.819   7.149   3.180 -0.3425  0.0020 -0.0229
24970W        W45250   2.656  15.587  11.766 -0.2632  0.1850  0.1179
24971W        W45251  14.911  10.101   2.586  0.1659 -0.0084 -0.0065
24972W        W45252  14.950   5.358   2.818 -0.1958 -0.7032 -0.0690
24973W        W45253   9.652   6.394   3.217 -0.1001  0.2078 -0.1025
24974W        W45254   1.011  14.061  13.061 -0.0314  0.1254  0.1856
24975W        W45255   9.090  16.829  12.014 -0.2189  0.0060  0.2709
24976W        W45256  14.021  18.541  11.114  0.1169  0.0586 -0.0680
24977W        W45257   3.987   0.083   1.348  0.0726 -0.1857  0.0883
24978W        W45258  17.340  14.698  13.209 -0.0451  0.0764 -0.2485
24979W        W45259   4.210   5.924  13.680  0.0074 -0.0394  0.1213
24980W        W45260   2.500   5.889  12.927 -0.3492  0.1801  0.0193
24981W        W45261  12.852  11.469  11.664  0.2263 -0.0454  0.2790
24982W        W45262   9.916   0.026  13.982  0.0273 -0.2288 -0.0158
24983W        W45263   5.284  15.371  13.804 -0.1814 -0.2833 -0.2447
24984W        W45264  15.330   8.254  12.113 -0.2798  0.2052  0.0480
24985W        W45265   0.710  16.585  11.686 -0.2336  0.0835  0.1595
24986W        W45266  17.062   3.493  12.236  0.0060 -0.2138  0.3110
24987W        W45267  15.798  12.880  10.907  0.0699 -0.2780  0.1547
24988W        W45268   6.700   0.040   3.690  0.1155  0.4991  0.2535
24989W        W45269   7.972  15.714   9.376  0.2718 -0.2275  0.2383
24990W        W45270  18.434  12.329  11.021  0.1140  0.0633 -0.0582
24991W        W45271  17.905   3.602  13.655 -0.2291 -0.2800 -0.2447
24992W        W45272  15.942   7.603  14.115 -0.0341 -0.5349  0.1257
24993W        W45273   2.554   2.674   0.832  0.0118  0.2162  0.0452
24994W        W45274   2.753   3.736   1.876 -0.1445  0.0275  0.3588
24995W        W45275  18.126   1.125   2.660  0.0046 -0.0903  0.0991
24996W        W45276  14.142   0.775  10.831  0.0288 -0.0142  0.0934
24997W        W45277   1.324  13.461   1.696 -0.3391 -0.0452  0.3494
24998W        W45278   1.425  15.781   1.492 -0.0879 -0.2437  0.1332
24999W        W45279  11.837  12.012   3.648 -0.3220  0.1378  0.1079
25000W        W45280  12.498   1.121  12.304  0.0608 -0.0038  0.1158
25001W        W45281  11.452  18.611  12.076 -0.0648  0.1117 -0.1962
25002W        W45282  16.991   6.446  12.739 -0.0600  0.0674  0.1213
25003W        W45283   6.529   8.051   3.218 -0.0262  0.1392 -0.1275
25004W        W45284   3.225  17.136  10.846  0.2169 -0.1702 -0.0910
25005W        W45285   1.338  10.638   2.435  0.0273 -0.2997  0.0843
25006W        W45286   2.673  13.894   3.405  0.2351  0.5426  0.1418
25007W        W45287   0.346  17.329  14.083 -0.1238  0.2553 -0.5540
25008W        W45288   6.686  14.905   2.041 -0.0715 -0.0926  0.1476
25009W        W45289  16.669   0.945  13.918  0.2345  0.4081  0.3974
25010W        W45290  19.190  16.067  13.646  0.0077 -0.0353  0.1632
25011W        W45291   9.714   0.276   1.270  0.2398 -0.2648  0.1960
25012W        W45292  19.305  10.598   2.408 -0.0263 -0.0485 -0.0769
25013W        W45293   1.713  10.139  13.573 -0.1523  0.1126  0.0302
25014W        W45294   7.753  10.265  10.419  0.0516 -0.0392 -0.0053
25015W        W45295  15.810   0.256  10.334  0.1367  0.2890 -0.0201
25016W        W45296  14.822   1.729   1.952 -0.0666  0.0005  0.3587
25017W        W45297  12.409   8.169  10.472  0.0150  0.1101 -0.0935
25018W        W45298  17.122   9.476   2.424 -0.0564 -0.0838 -0.1108
25019W        W45299   5.285   2.385  11.922 -0.1940 -0.1507  0.1032
25020W        W45300  15.081   9.619   3.265  0.0082 -0.0538 -0.2903
25021W        W45301   4.320   0.228  14.039 -0.1505  0.1173 -0.2567
25022W        W45302   0.607   4.493  13.114 -0.0194  0.1550  0.1005
25023W        W45303   2.926  15.394   1.784  0.0352 -0.1183 -0.0554
25024W        W45304  10.825   8.908  12.010  0.1356 -0.1346  0.3877
25025W        W45305  12.623  15.131   3.022  0.1422  0.1634 -0.0748
25026W        W45306  15.819   1.235   2.324  0.3904  0.5704 -0.2390
25027W        W45307   7.972   3.457   2.508  0.2127 -0.0313 -0.2549
25028W        W45308  16.552   9.239  12.913  0.0694 -0.1339 -0.0758
25029W        W45309   8.786   8.651   3.122 -0.1349 -0.0193  0.1933
25030W        W45310   1.153   8.295   4.189 -0.2678 -0.0021 -0.2842
25031W        W45311  17.486   9.233   2.118 -0.0834  0.0686 -0.0471
25032W        W45312   1.452  10.910  11.019  0.1184  0.5282 -0.2150
25033W        W45313   8.427   5.112   1.523 -0.1666 -0.2185  0.0460
25034W        W45314   3.120   6.886   1.286 -0.1265  0.4343  0.1504
25035W        W45315  11.852   6.066  11.343  0.2002  0.0939  0.1616
25036W        W45316  17.370  15.885   1.585  0.0396 -0.0563  0.0263
25037W        W45317  13.932  15.150   0.206  0.2578  0.1393 -0.1188
25038W        W45318  12.629   7.500  13.986  0.1636  0.2044  0.1091
25039W        W45319   6.632  18.559  13.610  0.2577  0.0330  0.1157
25040W        W45320  11.363  15.431  13.174  0.0630  0.0451  0.0085
25041W        W45321  12.702   1.951  10.790 -0.0833 -0.2360 -0.1237
25042W        W45322  17.015  16.370  12.052 -0.0612  0.4017  0.3081
25043W        W45323   0.005  17.491   0.251  0.1501  0.0503 -0.1583
25044W        W45324   7.161   3.941   0.579 -0.2968 -0.1327  0.4194
25045W        W45325  14.886  17.650   2.138  0.0280 -0.1155  0.0950
25046W        W45326   6.292   3.658   1.083 -0.1641 -0.1373 -0.4550
25047W        W45327   6.806  12.455  11.948  0.1079 -0.0310 -0.0553
25048W        W45328   9.836  15.197   3.789  0.1068  0.2545  0.1005
25049W        W45329   1.586   6.949   1.236  0.4910 -0.0568  0.0969
25050W        W45330   7.231  18.291  11.729  0.1298 -0.1077  0.2270
25051W        W45331  16.548  11.528  13.078 -0.0836  0.0792 -0.2794
25052W        W45332   7.828  18.129  13.769  0.2135 -0.1629  0.0061
25053W        W45333   7.941  15.871  11.685 -0.2305  0.2210  0.0502
25054W        W45334   8.426   0.450  11.047  0.1110 -0.1695 -0.2508
25055W        W45335  11.359  13.338  14.013  0.0556  0.0531  0.0819
25056W        W45336  11.346  11.065  11.432 -0.1209  0.1307  0.0074
25057W        W45337   9.552   7.608   1.925  0.2496  0.1953  0.0318
25058W        W45338   8.172   8.983   0.646  0.1149  0.0863 -0.0543
25059W        W45339   7.641   4.139   3.323  0.1167  0.0973 -0.2751
25060W        W45340  11.019  12.410  14.320 -0.1548 -0.0074  0.2341
25061W        W45341  14.539   3.090   1.891 -0.2468  0.1295 -0.1091
25062W        W45342  15.868  11.594   2.095  0.0057  0.2761  0.2131
25063W        W45343   5.027   3.302   3.143 -0.0660 -0.1032  0.0839
25064W        W45344   5.674  17.072  11.983 -0.3492  0.2564  0.0552
25065W        W45345  17.191  18.021  13.060  0.0942  0.2506 -0.1006
25066W        W45346  14.366   5.118   0.191 -0.0278  0.1170  0.0940
25067W        W45347   4.555   6.442   2.569 -0.0265 -0.0608 -0.0686
25068W        W45348   8.335  12.617   1.176 -0.0790  0.3540 -0.0178
25069W        W45349  11.491   1.989   1.564  0.1906 -0.1490  0.1007
25070W        W45350   3.086  17.870  10.501  0.0868 -0.2918 -0.0410
25071W        W45351   4.221  13.535  13.420 -0.3238 -0.2800  0.1502
25072W        W45352  14.078  18.544   0.692 -0.0790  0.4828  0.1375
25073W        W45353   4.057   9.580   3.693 -0.1457 -0.0344 -0.0584
25074W        W45354   3.764  16.791   2.815 -0.1529  0.4654  0.0133
25075W        W45355   4.222  15.354   1.909 -0.2732  0.0453  0.0768
25076W        W45356  16.835  14.813   2.818 -0.2747 -0.1243  0.3027
25077W        W45357   9.417   7.691   4.694 -0.1960  0.4767  0.1369
25078W        W45358   7.363  12.446   0.736 -0.1024  0.1022 -0.1527
25079W        W45359  19.382   3.327  11.997 -0.0219 -0.0328 -0.0095
25080W        W45360  17.213   2.547   3.639 -0.1659 -0.0850 -0.2588
25081W        W45361   5.992  19.204  12.302 -0.0417  0.2530  0.0041
25082W        W45362  16.532  14.897  12.351 -0.0220 -0.0470 -0.0707
25083W        W45363  11.109   2.390  11.393  0.2931 -0.0775 -0.0262
25084W        W45364  16.675   6.113   2.033 -0.0201 -0.4292  0.1242
25085W        W45365  10.435   9.009  11.629  0.4210 -0.1266 -0.1082
25086W        W45366   3.820  17.127   3.427  0.2291  0.1214  0.1284
25087W        W45367   0.148   8.412  11.923  0.0009 -0.0068 -0.3028
25088W        W45368   8.647  12.381  13.939 -0.2243  0.2722 -0.1420
25089W        W45369  19.339   7.225   3.287 -0.0885 -0.3564 -0.2850
25090W        W45370  16.733  11.657   1.283  0.1431  0.1060 -0.0320
25091W        W45371   7.538   1.973  10.771 -0.0250  0.0497  0.0070
25092W        W45372  10.086   2.252  12.765  0.0604  0.2492 -0.1018
25093W        W45373  11.749   4.994  13.735  0.1224 -0.0208 -0.0271
25094W        W45374   0.326  12.216  11.200  0.0899 -0.0330  0.0531
25095W        W45375   3.017  14.412  10.049  0.1660  0.3247  0.0769
25096W        W45376  16.462   7.155  11.892  0.0631  0.0647 -0.2341
25097W        W45377  11.133   2.237   2.002 -0.1746  0.5279 -0.3315
25098W        W45378  10.315  13.150  13.103 -0.1076  0.1975 -0.0381
25099W        W45379   1.723   4.670  12.772 -0.1371 -0.2661  0.1298
25100W        W45380  11.602   6.249  13.933 -0.1815  0.0086 -0.1545
25101W        W45381  10.650   5.854   1.218 -0.2389 -0.0904  0.0532
25102W        W45382   0.423  18.002  12.798  0.3466  0.1329 -0.3018
25103W        W45383  14.003  10.222   0.059  0.3643 -0.0326  0.2006
25104W        W45384   3.682   8.268  14.392 -0.1718  0.0979  0.0688
25105W        W45385  10.163   6.406   4.016  0.3841 -0.0759 -0.0956
25106W        W45386  19.368  13.740  10.515 -0.1308  0.1447 -0.0856
25107W        W45387   2.061  13.385  13.717 -0.3624 -0.1618  0.2290
25108W        W45388  19.257   3.294  13.090 -0.2276 -0.2180 -0.2021
25109W        W45389   6.725  15.604  13.606 -0.2007 -0.0115  0.1686
25110W        W45390  15.165  11.550  10.753 -0.0670 -0.1862  0.1100
25111W        W45391   0.089  11.090  10.759 -0.0508  0.0573 -0.0803
25112W        W45392  14.578   3.280  12.230 -0.1039 -0.3722 -0.0003
25113W        W45393  17.462   0.188  13.228  0.2637  0.0549  0.3581
25114W        W45394   1.677  10.660   1.848  0.0939  0.2640  0.1794
25115W        W45395   8.272   6.540   2.894  0.2345  0.0973 -0.1288
25116W        W45396   6.465   5.570   1.775 -0.1955  0.1679  0.0267
25117W        W45397   4.927  15.994  11.542 -0.1151 -0.2817 -0.2041
25118W        W45398  17.078   8.591   1.259  0.1470 -0.0701  0.0115
25119W        W45399  18.208   0.619   0.261  0.3499 -0.1000 -0.3243
25120W        W45400   0.518  17.973  11.788 -0.1235 -0.0205 -0.0687
25121W        W45401   1.288   8.391   1.645  0.2330 -0.0591  0.0696
25122W        W45402   5.074   6.301  13.966 -0.1579 -0.0527  0.1333
25123W        W45403  16.304   0.640  11.633  0.1461 -0.1191 -0.1330
25124W        W45404  15.590   8.296  13.124  0.1504  0.0091  0.1919
25125W        W45405   9.990  15.010  11.034  0.0738 -0.1326  0.1496
25126W        W45406   0.670  16.520   0.566  0.2085  0.0706 -0.0549
25127W        W45407  15.008   7.027   2.135 -0.1441 -0.0527 -0.2523
25128W        W45408   0.752   5.872  13.939 -0.2126 -0.0360 -0.4530
25129W        W45409   5.129  15.001   3.231 -0.3042 -0.1561  0.1291
25130W        W45410   5.471  11.560   3.849  0.3029 -0.0106  0.1821
25131W        W45411  12.058  10.644   0.284  0.1535  0.2006  0.0924
25132W        W45412   7.409  11.397  13.125 -0.0749  0.1940 -0.1629
25133W        W45413   9.774  16.846   2.965 -0.0515 -0.0309 -0.0671
25134W        W45414   4.854   0.977  13.239 -0.1360  0.0048 -0.0530
25135W        W45415   2.140   3.883  12.736 -0.1498 -0.0640 -0.0931
25136W        W45416  17.771   8.163   1.727  0.1002  0.0174 -0.1163
25137W        W45417  14.173  11.282  12.833 -0.0072 -0.0304  0.2169
25138W        W45418  14.432   8.178  11.890  0.0799  0.1017  0.1772
25139W        W45419   8.446   9.462   3.370 -0.0255 -0.0414  0.0529
25140W        W45420   8.755  11.535  14.095 -0.1044  0.0334  0.0436
25141W        W45421   1.960   7.463   2.973  0.0028 -0.1359  0.0666
25142W        W45422   3.877   2.140   1.380 -0.0160 -0.1798 -0.1464
25143W        W45423  13.778  12.502   1.173 -0.0237  0.2085  0.1614
25144W        W45424   2.563  15.256  14.134  0.3397  0.2002 -0.0871
25145W        W45425  15.029  11.945   2.163  0.1650 -0.0077 -0.2645
25146W        W45426  12.604   2.320   3.172 -0.1575  0.3288 -0.1345
25147W        W45427   6.156   8.649  10.803  0.2864 -0.3834  0.1683
25148W        W45428  15.831  16.326  14.456  0.0861  0.1340 -0.0889
25149W        W45429   0.736  14.056   1.409  0.0135  0.0939 -0.0227
25150W        W45430  13.995  14.294   2.515  0.1086 -0.0817 -0.0325
25151W        W45431  16.840   5.826   2.447  0.0968  0.2540  0.0188
25152W        W45432   3.074   4.973   3.577  0.0804  0.2643  0.0725
25153W        W45433  12.728  18.180   0.737  0.1505  0.1462 -0.5512
25154W        W45434  11.967  17.935   4.189  0.1728 -0.1071 -0.0098
25155W        W45435  15.932   8.984  12.156  0.1339  0.3137 -0.0019
25156W        W45436   8.121  15.734   3.879 -0.0984  0.2458 -0.4179
25157W        W45437   1.341   3.967  11.423 -0.1962 -0.2946 -0.3152
25158W        W45438  13.755  13.064  12.127 -0.4008 -0.1464  0.0422
25159W        W45439   1.224  14.417   2.551 -0.0557  0.2276  0.1364
25160W        W45440   0.498   1.021   0.110 -0.0300  0.1246  0.2123
25161W        W45441   6.974  16.164  11.331 -0.1147 -0.0685 -0.1648
25162W        W45442  16.448  18.233   0.877  0.2306  0.2090 -0.1760
25163W        W45443  11.928  18.511   0.930 -0.0921  0.1001 -0.0527
25164W        W45444  16.007  16.447   4.028  0.1653 -0.0906  0.3226
25165W        W45445  18.643  18.680   3.116  0.0879  0.2051 -0.1898
25166W        W45446  14.655   8.776   3.327 -0.1128 -0.0846 -0.3929
25167W        W45447  18.985   6.871   9.970 -0.0509  0.0159 -0.2326
25168W        W45448  12.658  18.519   2.272  0.0985 -0.1454  0.4847
25169W        W45449  14.549  15.758  12.881  0.1757  0.2777 -0.0046
25170W        W45450  19.046   0.851  11.098  0.2275 -0.3100 -0.0543
25171W        W45451  17.591  15.133   1.249  0.1594 -0.0662  0.1835
25172W        W45452   1.481  14.706  13.028  0.4561  0.2021 -0.0896
25173W        W45453  15.061   4.441  14.411  0.1808 -0.0845 -0.0965
25174W        W45454  11.939   4.112  13.889  0.4161  0.0642  0.3417
25175W        W45455   2.425   8.057   9.121  0.0595 -0.1636 -0.2556
25176W        W45456  10.877   9.385   1.885  0.1761  0.1912  0.3168
25177W        W45457  14.463   7.778  13.593 -0.1330  0.0544 -0.1164
25178W        W45458  18.584  17.496   2.794 -0.0109 -0.1486 -0.4393
25179W        W45459   4.726  19.082  12.178 -0.1935  0.2399  0.0746
25180W        W45460  11.448   3.950  11.424 -0.1992 -0.4159  0.0896
25181W        W45461  11.784  10.541   2.784 -0.3053 -0.0339 -0.1988
25182W        W45462   8.076   4.928  11.352 -0.1412  0.0322 -0.4156
25183W        W45463   7.688  19.273   3.931  0.4347  0.0950  0.0444
25184W        W45464   6.969  17.472   2.019  0.0498  0.0263  0.1137
25185W        W45465   4.067   3.873  11.161 -0.0696  0.0133  0.0540
25186W        W45466   1.603  12.752   2.968  0.1000 -0.2490  0.0439
25187W        W45467  10.914  16.322   2.475  0.1087 -0.2648 -0.1688
25188W        W45468   6.348  17.685  11.842 -0.0600  0.0220 -0.0826
25189W        W45469   8.637  12.279  12.407 -0.1443  0.0005  0.1045
25190W        W45470   7.497  10.453   3.857 -0.1675  0.3583  0.1860
25191W        W45471   2.113  12.638  12.640 -0.0573 -0.2193  0.3036
25192W        W45472  16.853  14.835  11.835 -0.0496 -0.4411 -0.0324
25193W        W45473   3.518   9.135   4.777 -0.2965 -0.0096 -0.0506
25194W        W45474  14.185  18.489   0.198 -0.1223  0.0928  0.0673
25195W        W45475  10.344  15.322   3.979  0.2943 -0.1610 -0.0161
25196W        W45476   6.909   6.606   2.371  0.1022 -0.1382  0.2211
25197W        W45477   3.914   4.501   2.946 -0.0175  0.1349 -0.1186
25198W        W45478  18.861   9.928  13.961 -0.0552 -0.4249 -0.1103
25199W        W45479   3.378   6.312  13.481  0.3696  0.0935  0.3416
25200W        W45480   2.490   8.578  11.601 -0.0737 -0.0474  0.3506
25201W        W45481  13.318  11.310   1.376  0.1064  0.0096  0.0946
25202W        W45482  11.478   5.832   1.132  0.1391 -0.0875 -0.1831
25203W        W45483   3.491   3.342  14.234  0.0672 -0.3242 -0.0678
25204W        W45484   3.020   7.667   3.706 -0.0343  0.0100  0.0530
25205W        W45485  11.912  18.370  13.524 -0.0670  0.4543  0.1963
25206W        W45486  19.423   3.264   0.411 -0.1336  0.3443  0.0850
25207W        W45487   8.245  16.496   3.262 -0.0697 -0.0481 -0.3283
25208W        W45488  13.816  16.455  12.203 -0.0279 -0.3138  0.1918
25209W        W45489   2.997   5.212  13.039 -0.2180  0.1425  0.0361
25210W        W45490  11.459  16.657  13.062 -0.0251  0.0048  0.1625
25211W        W45491   4.636  13.533  11.728 -0.1659  0.0501  0.0197
25212W        W45492  16.542  14.461  12.657 -0.1722  0.2319 -0.0110
25213W        W45493   4.490   5.795  10.563  0.0441 -0.0747  0.1241
25214W        W45494   3.640  13.323   0.738  0.1053 -0.0355 -0.1280
25215W        W45495  18.723   5.555  13.428  0.0173 -0.0337 -0.1527
25216W        W45496   1.779   9.255   0.496 -0.2064 -0.1350 -0.0965
25217W        W45497  12.925   7.393  11.520  0.1261  0.0296  0.2943
25218W        W45498   7.390  13.318   0.353 -0.0728 -0.0773 -0.0814
25219W        W45499  17.195  11.268   1.995 -0.2048  0.0943  0.0542
25220W        W45500  11.957   6.492  13.630 -0.1355  0.0201 -0.2700
25221W        W45501  17.290  10.443   1.760 -0.0328  0.1426  0.2452
25222W        W45502   2.524   9.427  10.206 -0.0181 -0.1228  0.0551
25223W        W45503   8.266   9.388  13.713 -0.0590  0.1023 -0.1851
25224W        W45504  13.380  14.466   0.562  0.1106  0.1167 -0.2291
25225W        W45505  18.591   8.379  11.494  0.0368 -0.0202  0.2521
25226W        W45506  10.354  14.175  14.478 -0.1747  0.3042 -0.0144
25227W        W45507   9.653  13.425   1.414 -0.0219 -0.1945  0.0495
25228W        W45508   7.538   5.872  13.187  0.1958  0.3123 -0.0697
25229W        W45509   5.890  10.571   4.096  0.0078  0.1908  0.0148
25230W        W45510   1.608  13.849  12.432  0.0563 -0.0902 -0.0602
25231W        W45511   8.868  15.030   4.083  0.3086 -0.2730  0.1473
25232W        W45512  15.576  10.474  10.598  0.2584  0.0411  0.2271
25233W        W45513  18.886  15.328   4.355  0.3925 -0.0635  0.1190
25234W        W45514   1.828  15.083   1.992  0.1081  0.3951 -0.0709
25235W        W45515  18.003   6.616   1.828 -0.0074  0.1794  0.3436
25236W        W45516   5.429   7.595   1.382 -0.1773 -0.1349  0.1727
25237W        W45517   3.286   9.086   3.808  0.0655  0.0165  0.1809
25238W        W45518  12.926   6.928   1.334  0.2186  0.1921  0.0926
25239W        W45519   1.917   7.675   2.431 -0.0451  0.1473  0.0297
25240W        W45520   4.428   8.634   0.164  0.1042 -0.0894  0.2068
25241W        W45521   5.186  11.775   2.566  0.1249  0.0559  0.0071
25242W        W45522   6.643   1.742   0.182  0.0904 -0.1159  0.2219
25243W        W45523  18.875  17.880   3.569 -0.0999  0.3309 -0.2218
25244W        W45524   7.329  11.582  10.763 -0.0212 -0.2334 -0.1851
25245W        W45525  13.655  12.202   4.368  0.1649  0.1459  0.2121
25246W        W45526  10.078   4.679  14.344  0.2083 -0.1847 -0.1431
25247W        W45527  11.288  13.756  14.358 -0.1667 -0.1661  0.3218
25248W        W45528   4.973   0.118   2.144 -0.2475 -0.0980  0.0551
25249W        W45529  16.749   7.563  13.628  0.1207 -0.0407  0.1368
25250W        W45530  15.128   2.310  11.609 -0.1078 -0.2238  0.1562
25251W        W45531  11.527   1.273   1.889 -0.0242  0.0280  0.2688
25252W        W45532  17.979  16.934  11.181  0.0053  0.0497 -0.0377
25253W        W45533   2.009  13.137  12.945 -0.1596 -0.2370  0.0798
25254W        W45534   6.875   5.903  12.451  0.0251 -0.1551 -0.3464
25255W        W45535   7.807  18.304   0.713 -0.1218 -0.1012 -0.2071
25256W        W45536  14.538  14.228  12.188 -0.0202  0.1605  0.0478
25257W        W45537  15.635   9.522   3.243  0.2555 -0.2281  0.4237
25258W        W45538   0.384  14.501  12.440 -0.0716  0.3734  0.0864
25259W        W45539   9.776   4.487   0.257  0.3161 -0.2061 -0.0016
25260W        W45540  14.685   8.188  12.862  0.0762  0.0222  0.2026
25261W        W45541   7.892  13.389   1.433  0.0838 -0.0442 -0.0488
25262W        W45542  13.673  17.833  11.483 -0.0166  0.1367 -0.0462
25263W        W45543   3.295  11.649   3.027  0.0663  0.0850 -0.3010
25264W        W45544  17.444  13.171   2.154  0.0598  0.1750  0.0060
25265W        W45545  18.126   5.916  12.136 -0.0508 -0.0835  0.0454
25266W        W45546   9.681  11.745  13.597  0.2702 -0.1734 -0.1799
25267W        W45547   0.562   2.823   0.113 -0.0293 -0.0326  0.1261
25268W        W45548  16.364   5.800   0.771  0.1094  0.3191  0.1663
25269W        W45549   6.864  17.817  12.051 -0.0370 -0.3418  0.0156
25270W        W45550  17.004  10.523   3.131  0.4090 -0.4873 -0.0140
25271W        W45551  10.080  13.855  12.421 -0.2552 -0.1542 -0.0244
25272W        W45552   3.085   3.124   1.347  0.0345 -0.1371  0.2840
25273W        W45553  10.175  14.548  14.218  0.1223 -0.0292  0.0060
25274W        W45554   8.153  16.501  13.522  0.0880 -0.2123 -0.1409
25275W        W45555   3.835  15.072   4.917  0.0367 -0.1870  0.2668
25276W        W45556  18.112   0.735  10.425  0.1436 -0.0200 -0.1606
25277W        W45557   7.994   2.198  11.737  0.2064 -0.0430  0.1075
25278W        W45558   1.111   5.209   1.537 -0.1168  0.0098 -0.0603
25279W        W45559   3.388   0.958   2.193 -0.2294  0.0210  0.3114
25280W        W45560   2.144  19.343  10.018  0.1065  0.0964 -0.0060
25281W        W45561   4.858   7.411  12.054  0.1251  0.2406 -0.1990
25282W        W45562   9.237  17.849  14.018 -0.0917 -0.4544 -0.1877
25283W        W45563  15.412   8.930  12.317  0.4375 -0.1908 -0.1279
25284W        W45564   7.593   3.084  11.945 -0.1332 -0.1698  0.1914
25285W        W45565  13.263   4.872  11.671 -0.0611  0.0419  0.2260
25286W        W45566   9.896  19.216  12.703  0.2491  0.3160  0.0468
25287W        W45567   0.809   5.667   2.891  0.1390 -0.2678 -0.1589
25288W        W45568   7.051   4.831   2.086 -0.3851  0.0227  0.1437
25289W        W45569   6.405   1.570   2.079  0.1418 -0.1213 -0.0694
25290W        W45570   7.460   4.761  12.965 -0.0322  0.4330  0.1884
25291W        W45571  13.704   7.301  12.266  0.0098  0.0665  0.2946
25292W        W45572   3.227  14.202   2.657  0.1371 -0.0877  0.3332
25293W        W45573   9.082  15.238   0.008  0.1807  0.0252 -0.1019
25294W        W45574  10.739  11.680   0.364 -0.1500  0.2072 -0.0754
25295W        W45575   8.687  12.403   3.356  0.0054  0.0242 -0.0146
25296W        W45576   7.924  11.338   2.695 -0.0991  0.2005  0.1747
25297W        W45577   2.161  10.606   2.942  0.1413  0.0164 -0.3539
25298W        W45578  11.451   4.251  12.896  0.1365  0.3579  0.0617
25299W        W45579   5.463   4.358  14.229 -0.0990  0.1503 -0.0250
25300W        W45580  13.141   3.289  13.376  0.0046 -0.1428 -0.1198
25301W        W45581   0.827   4.998  13.853  0.1715  0.1829 -0.1052
25302W        W45582  10.957  10.742  11.409  0.3142 -0.0499  0.0978
25303W        W45583   2.041  14.919   3.168  0.1449  0.3672 -0.0065
25304W        W45584   0.070   8.307  13.361  0.1539 -0.0518 -0.3056
25305W        W45585   5.051   5.444   2.039  0.4253  0.1279  0.1510
25306W        W45586   7.072   7.360   3.712  0.2446  0.0111 -0.0327
25307W        W45587   0.511   4.080   3.021  0.1069  0.0091  0.3750
25308W        W45588  12.638  16.845  14.071 -0.0672  0.2637  0.0305
25309W        W45589  13.580  13.901  13.277  0.1051 -0.2464 -0.0610
25310W        W45590   7.851  12.044  11.734 -0.3753 -0.1614 -0.0416
25311W        W45591   2.414   7.138   4.410 -0.2828  0.1352  0.0816
25312W        W45592   9.932   7.547  11.390 -0.1120  0.0553  0.0647
25313W        W45593  11.791   6.783   3.350 -0.1727  0.2660  0.1178
25314W        W45594   4.678   5.519   0.706  0.2023 -0.0715  0.1648
25315W        W45595   0.731  11.626   0.308  0.1417  0.2352  0.0484
25316W        W45596   7.175  15.590  10.507 -0.0854  0.2554 -0.0478
25317W        W45597   8.243  17.682  13.970  0.1031 -0.1040  0.0399
25318W        W45598  19.101   2.682  12.969 -0.1357  0.0264  0.0940
25319W        W45599   8.603  16.079  10.436 -0.0119  0.2030 -0.2065
25320W        W45600  11.286  11.291   3.695  0.0414  0.1351 -0.0547
25321W        W45601   7.909   6.225  10.741  0.1072  0.2174 -0.2877
25322W        W45602   0.764   3.834   0.903 -0.1378  0.2208  0.4683
25323W        W45603   6.516   8.209   0.790 -0.3815  0.0871 -0.2761
25324W        W45604  12.481  15.586   3.282 -0.1259  0.0398 -0.1583
25325W        W45605  17.475   3.433   9.605 -0.1117  0.2020  0.1862
25326W        W45606  11.955   2.019   3.928 -0.1311 -0.0633 -0.0210
25327W        W45607  16.710  18.900  11.538 -0.1273  0.1394  0.1457
25328W        W45608  10.698  12.532  13.002 -0.0677 -0.2493  0.1055
25329W        W45609   8.363  14.003  10.076  0.0120 -0.1020 -0.0857
25330W        W45610  15.380   0.382   3.259 -0.0112  0.1712 -0.1072
25331W        W45611  15.569   9.451  13.086  0.0400  0.1956 -0.0901
25332W        W45612  17.448   4.759   4.885 -0.0738 -0.0521  0.0438
25333W        W45613   8.448  15.874  11.790 -0.0121  0.0012  0.0554
25334W        W45614  13.378  16.196  12.197  0.0248 -0.1272 -0.3468
25335W        W45615  14.838  19.075  10.896 -0.0843 -0.1968  0.0542
25336W        W45616  14.483  10.221  13.544  0.2042  0.3020 -0.3555
25337W        W45617  14.326  12.462  13.390 -0.2234 -0.0101  0.0643
25338W        W45618  10.202  16.103   0.931  0.1524  0.0802 -0.2784
25339W        W45619   5.611   3.629   0.381 -0.1000  0.1467 -0.0091
25340W        W45620  17.258   9.465  13.611 -0.0211  0.0986 -0.2304
25341W        W45621   3.496  11.004  12.076  0.1636  0.1575 -0.2845
25342W        W45622  10.551  10.500   9.644 -0.0959  0.1369  0.1941
25343W        W45623  12.864   4.693  12.519  0.0870 -0.1450  0.0501
25344W        W45624   6.611   5.663  13.840  0.3096 -0.0151  0.2223
25345W        W45625  10.493   3.951   1.357 -0.0843 -0.0271  0.2617
25346W        W45626  10.120  17.716  11.636 -0.0511 -0.0143 -0.1252
25347W        W45627   2.943   1.939  11.949  0.0389  0.1577 -0.4292
25348W        W45628   7.021   4.065  11.448  0.1673  0.2106 -0.0868
25349W        W45629  17.797  10.402  12.807 -0.2115  0.0965  0.1018
25350W        W45630   5.981   4.310   1.282 -0.4537  0.1943  0.0429
25351W        W45631  17.641  13.603   1.934 -0.1402  0.0476 -0.4486
25352W        W45632  16.534  13.697   3.805 -0.0316 -0.1850  0.1120
25353W        W45633  19.131   6.058  13.855 -0.2696  0.0791 -0.0441
25354W        W45634   4.524   7.339  13.546  0.4467  0.0526 -0.1280
25355W        W45635   8.084   5.173   0.666  0.0283  0.1517 -0.4182
25356W        W45636  11.762  19.071   0.866 -0.0614  0.1190 -0.1786
25357W        W45637   0.699  10.697  12.078  0.0128  0.1382 -0.0534
25358W        W45638   8.538   3.188   2.409 -0.0589  0.2041 -0.0701
25359W        W45639  19.268   5.298  12.595 -0.0558  0.2087 -0.1943
25360W        W45640   7.051  15.385  11.723  0.0032 -0.0769  0.1320
25361W        W45641   1.130   7.207   3.601 -0.1744 -0.2224 -0.0847
25362W        W45642  18.422   1.934  12.219 -0.0416  0.4113  0.0553
25363W        W45643  13.637  13.395   3.123  0.2555 -0.0034 -0.1252
25364W        W45644   2.573   3.520  11.160 -0.1572  0.1653 -0.3295
25365W        W45645   2.111   7.518  13.893  0.1040  0.0997  0.1691
25366W        W45646   7.124   1.032  12.161 -0.2918 -0.2215 -0.6393
25367W        W45647   6.731  13.747   4.679  0.2806  0.2579  0.2052
25368W        W45648  10.076  18.166   3.662 -0.3508  0.2844 -0.1774
25369W        W45649  11.598  11.105   5.042 -0.1170 -0.1636 -0.0997
25370W        W45650   3.655  14.658   1.787  0.1055 -0.5989 -0.0658
25371W        W45651  12.375  12.403  14.468  0.3148  0.0617 -0.2017
25372W        W45652  11.360  12.604   1.504 -0.0244  0.1077 -0.2612
25373W        W45653  16.733  13.106  13.871 -0.2781  0.2609 -0.0867
25374W        W45654  12.451  12.064   2.965 -0.2835 -0.0746  0.2217
25375W        W45655   2.283  12.115   2.471 -0.1391  0.1820 -0.0478
25376W        W45656  16.826   6.698  11.197 -0.0713  0.1545  0.1128
25377W        W45657   5.360  15.900  11.271 -0.0688 -0.0638 -0.0380
25378W        W45658   3.580   6.033   3.339 -0.1949 -0.1068  0.0824
25379W        W45659  17.878   9.955  10.602 -0.0572 -0.1482 -0.0402
25380W        W45660   7.762   3.001  10.783  0.0800 -0.0015  0.0133
25381W        W45661   0.126  16.337  11.705 -0.1317  0.2768 -0.2215
25382W        W45662   8.670   6.323  12.894 -0.0655 -0.0132  0.1364
25383W        W45663   0.695  14.608  11.117 -0.2188 -0.2471  0.0765
25384W        W45664  10.563   0.308  14.273  0.1739  0.2421  0.0426
25385W        W45665   3.413  14.928   3.390 -0.1227 -0.4647  0.1052
25386W        W45666  12.493  17.242   3.015 -0.0483  0.1985 -0.0549
25387W        W45667  14.020   1.295   2.409 -0.1091  0.2582 -0.2779
25388W        W45668  16.027  13.692   3.852  0.1758  0.0391 -0.2045
25389W        W45669  10.942  10.226   2.526  0.1878 -0.1357  0.1255
25390W        W45670   8.614  11.062  13.685 -0.2674 -0.0770 -0.1949
25391W        W45671  14.346   3.475   1.054 -0.0614 -0.0835  0.2069
25392W        W45672  16.940  14.981  14.056 -0.0893  0.1771 -0.1720
25393W        W45673   2.690  16.635   1.726  0.0525  0.0134 -0.0476
25394W        W45674   9.685  12.973  10.879  0.0336  0.1508  0.3834
25395W        W45675   7.863  12.509   1.376 -0.2118 -0.0146 -0.0438
25396W        W45676  15.793  14.721  10.379  0.0376  0.0244 -0.2232
25397W        W45677   1.772  10.436  14.113  0.0125  0.1157 -0.1281
25398W        W45678  15.807  15.287   3.605  0.2263  0.2765  0.1757
25399W        W45679   0.376   9.584  10.957  0.0468  0.0347 -0.1418
25400W        W45680   7.076   6.515   4.971  0.4119  0.5161  0.0634
25401W        W45681  16.246  14.441   2.187  0.1447  0.3408  0.0162
25402W        W45682   5.845   4.615  14.433  0.0029 -0.0090 -0.3948
25403W        W45683  14.548   9.205   2.627  0.1058  0.1263 -0.0255
25404W        W45684  11.664   0.932  13.192 -0.2038  0.1823 -0.0687
25405W        W45685  15.473  14.808  14.172 -0.1371 -0.1309 -0.2733
25406W        W45686   7.348   6.608   3.792  0.1181  0.4209 -0.0580
25407W        W45687   5.238  12.631  12.990  0.0703 -0.0491 -0.3653
25408W        W45688  15.301   9.343  11.400  0.2621 -0.0367  0.1504
25409W        W45689   0.894   0.167   1.844 -0.2236  0.1160  0.1889
25410W        W45690  13.851   1.945  11.493  0.1329 -0.0394  0.1729
25411W        W45691  11.990   5.168   1.638 -0.2786 -0.0274 -0.2682
25412W        W45692  16.243  15.809  13.978 -0.2404 -0.0674 -0.3239
25413W        W45693  13.089  14.479  12.069  0.2221  0.3920 -0.0068
25414W        W45694  14.911   3.773  10.639 -0.0765 -0.1520  0.2543
25415W        W45695  12.528  14.876  14.491 -0.0924 -0.0303 -0.1820
25416W        W45696   5.381   4.705   0.171  0.1382  0.2595  0.0492
25417W        W45697   5.062  17.743  14.126  0.0158 -0.4253  0.3472
25418W        W45698  12.314   2.987  12.439  0.0160  0.0595  0.2404
25419W        W45699   0.258  13.951   4.720 -0.1971  0.0905 -0.3819
25420W        W45700  18.542   5.807   2.628 -0.1810 -0.6520 -0.3185
25421W        W45701   8.490   6.845   1.101 -0.2695  0.1077 -0.1523
25422W        W45702   6.992  16.614   2.720  0.1163  0.2735  0.1207
25423W        W45703  12.839  17.731   0.502  0.0071  0.0509 -0.0087
25424W        W45704   3.941  10.442   1.479 -0.2586  0.0502  0.1351
25425W        W45705   4.753  17.453  11.012 -0.1123  0.1129 -0.1172
25426W        W45706   2.446   1.508   3.193 -0.0839 -0.1404 -0.0185
25427W        W45707  11.781  18.297  10.851 -0.1151 -0.0025 -0.1500
25428W        W45708   2.159   9.145  12.334  0.1179 -0.0768  0.3012
25429W        W45709  17.343   7.457   0.193 -0.3128 -0.1515  0.0744
25430W        W45710   6.557   6.186   0.645  0.4025  0.0136 -0.4276
25431W        W45711   1.261   0.774  11.940  0.0857  0.0321  0.2737
25432W        W45712   3.016   6.635   9.670 -0.1413 -0.1277  0.0234
25433W        W45713  16.432   5.700   1.715 -0.1644  0.0505 -0.1553
25434W        W45714   0.161  10.244  10.041  0.1187 -0.0995  0.1920
25435W        W45715   8.491   3.284  13.589  0.2127  0.0363 -0.0591
25436W        W45716  10.083  16.057  10.706  0.0168 -0.0544 -0.1117
25437W        W45717  11.499   5.097   0.181  0.1735 -0.2005  0.1163
25438W        W45718   0.936  10.179  12.307 -0.0036  0.0194  0.2889
25439W        W45719   6.658   3.819  13.119 -0.1314  0.0001 -0.1478
25440W        W45720   6.971  14.455   2.848  0.0621  0.1123 -0.3132
25441W        W45721  17.670  18.484   3.121 -0.0285  0.1375  0.0086
25442W        W45722  13.071  12.543   3.865 -0.1737 -0.2057  0.1794
25443W        W45723   0.368  17.061   3.127  0.4288  0.1099  0.3236
25444W        W45724   8.838  14.791   2.937  0.1064  0.0756  0.2144
25445W        W45725   9.555  13.825  10.576 -0.0525 -0.3435  0.2001
25446W        W45726   7.075   6.516   2.796 -0.0666  0.1973 -0.0846
25447W        W45727  13.308  16.963  10.495 -0.0522 -0.4411 -0.2937
25448W        W45728  13.600  19.242   0.671  0.1293 -0.2462  0.1231
25449W        W45729  17.955  10.034  12.399  0.1306  0.0097  0.0175
25450W        W45730   0.370   6.788  12.535 -0.3058  0.3317  0.2377
25451W        W45731  16.395  14.859   1.951 -0.1789  0.4145  0.1575
25452W        W45732  15.704  16.523   2.019 -0.1186  0.0069  0.0614
25453W        W45733   2.102  11.061   2.720 -0.0415 -0.0730  0.2046
25454W        W45734  11.863  10.447  10.790 -0.4373 -0.2739 -0.4763
25455W        W45735   1.576  11.024   8.870 -0.0108 -0.0022 -0.0507
25456W        W45736  14.862  10.571  11.440 -0.0753 -0.0009  0.1236
25457W        W45737  16.422  17.579  13.424 -0.0046  0.2653  0.2214
25458W        W45738   6.145   4.555   3.592  0.0354 -0.0391 -0.0907
25459W        W45739   1.278  17.922   4.051  0.0031 -0.0384  0.1854
25460W        W45740   1.216   6.275  10.729  0.0927  0.1999  0.0235
25461W        W45741  15.571  15.885   4.333 -0.2290  0.1089 -0.2292
25462W        W45742   8.448  14.469   9.853 -0.0595  0.0303 -0.1169
25463W        W45743   3.278   9.273   0.328  0.1478  0.2150 -0.0937
25464W        W45744   0.037   3.750  13.105 -0.1559  0.2471 -0.0544
25465W        W45745   1.078   2.283  13.901  0.2020  0.0897 -0.2597
25466W        W45746  14.397   7.634   1.271 -0.0015  0.3077 -0.1857
25467W        W45747   0.231  16.096   2.803  0.1545 -0.0734 -0.1241
25468W        W45748   2.580   4.538  12.207 -0.4501 -0.1382 -0.2740
25469W        W45749   1.477   6.239   3.788 -0.3300 -0.1659  0.1620
25470W        W45750   2.835   8.802  10.596  0.1691 -0.0478  0.0607
25471W        W45751  12.413  17.634  11.561 -0.0783  0.0093 -0.3476
25472W        W45752   2.644  17.098   9.969 -0.2717 -0.1616 -0.2591
25473W        W45753   8.924  16.440  14.123 -0.0378  0.1821  0.0308
25474W        W45754   6.638   9.402   2.817  0.3705 -0.2015 -0.0990
25475W        W45755   9.114   7.776   1.166  0.2595 -0.2936  0.0678
25476W        W45756   6.681  17.661   0.016 -0.0012  0.2157  0.0842
25477W        W45757  15.405  11.940   0.396  0.0112 -0.3944 -0.0218
25478W        W45758  18.954  14.154   3.206  0.2212 -0.1153 -0.4520
25479W        W45759   4.027  10.778   2.522  0.2979  0.1094  0.0888
25480W        W45760   8.526   5.560   1.331  0.0198 -0.2570  0.1117
25481W        W45761   8.881   2.729   2.543  0.1221 -0.1444 -0.0542
25482W        W45762  13.793  18.286  12.116 -0.2277  0.2446 -0.0630
25483W        W45763  13.370   9.149   0.568 -0.2295  0.0301  0.2375
25484W        W45764   2.607  14.832  12.435  0.0592 -0.0010 -0.0724
25485W        W45765  18.523   2.759   0.178 -0.0830 -0.0229  0.2190
25486W        W45766   2.983  16.386  12.091  0.0438 -0.1088 -0.2135
25487W        W45767  17.258   6.151  12.373  0.0707  0.0720 -0.1267
25488W        W45768  12.445   7.138  13.082  0.2294 -0.2934  0.0105
25489W        W45769   2.135  10.040   2.606 -0.1670 -0.0526 -0.3070
25490W        W45770  10.565  17.769   2.826  0.0123  0.0207 -0.0526
25491W        W45771   3.252   4.184  12.226  0.2156  0.0336  0.0503
25492W        W45772  15.034   0.804   1.570 -0.4139 -0.1598  0.2105
25493W        W45773   8.275  10.001   1.407 -0.0335  0.1182 -0.0969
25494W        W45774   2.690   1.554  12.297  0.2844  0.1181 -0.1724
25495W        W45775   7.998  13.345   2.454 -0.1292  0.3006  0.0139
25496W        W45776   5.298  14.627   2.902 -0.0303  0.1577  0.1877
25497W        W45777   6.715   8.944   2.868 -0.0630  0.2799  0.0268
25498W        W45778   1.041   3.723  13.685  0.0629  0.2464  0.2175
25499W        W45779  11.768   7.404   2.694  0.1286 -0.2010 -0.0849
25500W        W45780   9.831  13.979   3.234  0.2183 -0.3044  0.0204
25501W        W45781  11.281   0.525   0.422 -0.1059 -0.1077 -0.1203
25502W        W45782  17.908   3.153  13.525 -0.0556 -0.1366  0.1575
25503W        W45783  15.218   3.492   0.041 -0.2836  0.0291 -0.1367
25504W        W45784  13.306   9.051   4.371  0.3511 -0.0770  0.1177
25505W        W45785   8.417  16.473  12.577 -0.2831 -0.2334  0.1866
25506W        W45786  18.701  12.578   2.552 -0.0705  0.0946 -0.0533
25507W        W45787  16.860  10.950  12.406  0.0083  0.1401 -0.1745
25508W        W45788   6.245   0.943  12.311 -0.3397  0.0896  0.1523
25509W        W45789  11.558  17.931   1.642  0.1275  0.2041  0.0301
25510W        W45790   4.623  14.475   1.854  0.7057 -0.1837 -0.0640
25511W        W45791   9.336  15.445   3.184  0.0177  0.0918 -0.3909
25512W        W45792   9.636   6.341  13.415 -0.1643 -0.3341 -0.0000
25513W        W45793   8.809  10.615  11.335 -0.1913 -0.1301 -0.1103
25514W        W45794   0.601   7.097  11.246  0.2676 -0.1604 -0.0693
25515W        W45795  17.325  15.635  10.974 -0.0169 -0.0325 -0.1342
25516W        W45796  16.464  15.405  12.594 -0.2677  0.1430 -0.0803
25517W        W45797   5.084  17.182   2.611  0.2726  0.1190  0.2508
25518W        W45798  18.996   0.607   1.298  0.0257 -0.1730  0.3789
25519W        W45799  18.003   9.564  13.158 -0.1960  0.1515  0.3233
25520W        W45800  11.803  10.289   2.343  0.1796 -0.0021 -0.0974
25521W        W45801   7.506  12.277  11.534  0.2107 -0.2441 -0.0130
25522W        W45802   3.171   3.414   1.755 -0.0384 -0.1217 -0.2297
25523W        W45803   3.362   9.517  12.990  0.1943 -0.1510 -0.1177
25524W        W45804  13.774  10.078  13.505  0.1615 -0.0095 -0.2501
25525W        W45805   4.698   8.199   0.521 -0.3645  0.1137 -0.0331
25526W        W45806   3.234  10.735   2.113  0.2869  0.0339  0.4008
25527W        W45807   6.899   6.956   2.921  0.0090  0.0363 -0.0327
25528W        W45808  16.762  16.887   2.942  0.3446  0.2445 -0.1347
25529W        W45809   9.428   3.698   3.047  0.4479  0.3076  0.0591
25530W        W45810   8.181  11.770   0.638 -0.0508  0.0552 -0.0998
25531W        W45811   5.593  10.836   0.084  0.2544  0.0393 -0.2916
25532W        W45812   1.395  15.998  11.486 -0.2010  0.1241  0.0398
25533W        W45813   4.616  15.025   3.048  0.0236  0.0719  0.1229
25534W        W45814   3.480   0.448   2.448 -0.2266  0.0509 -0.0212
25535W        W45815  11.785  14.872   2.876  0.1621  0.2193 -0.2130
25536W        W45816   1.957   9.119   9.111  0.0475  0.1084 -0.0432
25537W        W45817  18.533   7.756   0.978  0.0062 -0.0406  0.1884
25538W        W45818  14.846   5.038   0.542  0.0094  0.2376 -0.3726
25539W        W45819  10.267   5.599   1.462 -0.1686 -0.2061  0.1446
25540W        W45820  13.744  13.710   0.560  0.3657 -0.0735  0.0459
25541W        W45821  11.122   4.847  11.867 -0.2004 -0.0292  0.0410
25542W        W45822   6.153  15.066   2.048  0.0948 -0.0520 -0.1049
25543W        W45823   7.422  12.309   3.715  0.0620  0.0028 -0.1499
25544W        W45824  13.728  12.986   1.491  0.1985 -0.0451 -0.0046
25545W        W45825   0.417  18.205   4.273  0.0857 -0.0141 -0.0636
25546W        W45826   8.095   2.724  11.096 -0.1144 -0.0960  0.1699
25547W        W45827   1.884   4.590  14.471  0.1258 -0.0752  0.0852
25548W        W45828   7.625   6.286  13.459  0.2354 -0.1281  0.1351
25549W        W45829   8.706  14.360  12.914 -0.0533 -0.3256  0.0373
25550W        W45830  19.013   6.776  11.086  0.0491 -0.1778  0.3242
25551W        W45831  16.595  15.285   1.793  0.1143 -0.2231  0.0047
25552W        W45832   8.627   9.079  11.466 -0.2272  0.2669 -0.0306
25553W        W45833   7.507  15.254   0.733  0.0276  0.1925 -0.1312
25554W        W45834   9.566  12.922   0.473 -0.2731 -0.3118  0.1742
25555W        W45835   1.878   8.938   9.565  0.0581  0.3140  0.0707
25556W        W45836   3.103   4.924   2.295 -0.2001  0.0778 -0.1667
25557W        W45837   0.112   8.421   2.335  0.0713 -0.0813 -0.1256
25558W        W45838  12.019  11.282   1.139 -0.0237  0.1090 -0.0744
25559W        W45839  18.383   2.827  11.109 -0.1591 -0.3980 -0.2179
25560W        W45840  15.070  17.072  10.005 -0.1294 -0.3253 -0.2658
25561W        W45841  16.300  18.821   1.094  0.1431  0.1934  0.2767
25562W        W45842   8.060   6.382   0.358 -0.0865  0.1854  0.2390
25563W        W45843  18.122   7.016  11.181  0.0707  0.0446  0.0866
25564W        W45844   9.346   4.233   0.054 -0.3710  0.2093 -0.2693
25565W        W45845   1.882  17.454  10.302  0.0423 -0.0492 -0.0606
25566W        W45846  11.609  14.420   1.904 -0.0110 -0.1034  0.0682
25567W        W45847   5.592   6.298   0.597 -0.0976 -0.0641 -0.1924
25568W        W45848   3.582   9.672  11.300  0.0274  0.0213 -0.1035
25569W        W45849   5.394   3.201   2.774  0.1157  0.0467 -0.0304
25570W        W45850   3.727  13.298  12.621 -0.0067 -0.1984 -0.0159
25571W        W45851   1.773   7.141   3.715  0.1048  0.0452 -0.1615
25572W        W45852   9.806   9.037   1.388 -0.1181 -0.1106  0.1680
25573W        W45853  11.827  15.546   2.534 -0.1317  0.1224  0.2242
25574W        W45854   2.076   7.402   0.383 -0.1121 -0.0666 -0.3444
25575W        W45855   9.473  16.415   4.299  0.1530 -0.0018  0.0125
25576W        W45856  13.181  15.271  11.171 -0.0489 -0.2330  0.0132
25577W        W45857  10.827   3.418   2.945 -0.1318  0.0322 -0.2477
25578W        W45858  17.933  13.395  13.166  0.3534 -0.1655 -0.1585
25579W        W45859   0.028   3.601  14.424 -0.0394 -0.2471 -0.3086
25580W        W45860  13.967  10.260  10.753 -0.1344  0.0379 -0.0420
25581W        W45861  14.671   0.869   3.067 -0.2090 -0.0254 -0.1362
25582W        W45862   7.489   1.393  12.164  0.1638 -0.0122  0.0713
25583W        W45863  18.978  16.333   3.379  0.3103 -0.0463  0.1136
25584W        W45864   7.359   3.247  10.413  0.1838 -0.3025  0.1352
25585W        W45865  13.177   5.636   0.772 -0.0414 -0.3556 -0.1559
25586W        W45866   5.101  16.874   3.662  0.2064  0.1576  0.0546
25587W        W45867   4.540  19.346   0.111  0.2507 -0.0559 -0.0922
25588W        W45868  12.355  12.592  13.216  0.0709  0.0758  0.1167
25589W        W45869   3.718  16.484  11.351 -0.2919 -0.2216 -0.0163
25590W        W45870   3.165  14.493  14.033 -0.3991 -0.1156 -0.1631
25591W        W45871  18.099   3.756  12.688 -0.2458  0.0908 -0.2199
25592W        W45872  16.917  12.761   0.264  0.2375 -0.0255  0.2714
25593W        W45873  12.364   2.284   4.038 -0.1427  0.3059  0.0702
25594W        W45874   5.340   1.890  13.388  0.0567 -0.0519  0.0593
25595W        W45875   4.177   2.691   0.627  0.4080  0.2321 -0.1220
25596W        W45876  12.891   6.398   3.333  0.1269 -0.0804  0.2740
25597W        W45877   2.507  16.635   2.192  0.1789 -0.2839 -0.1355
25598W        W45878   8.642  14.605   0.852  0.2297  0.1195 -0.1612
25599W        W45879   9.216  12.835   2.202  0.0258  0.1228  0.0216
25600W        W45880  18.621   1.932   1.263  0.0745  0.2593  0.2840
25601W        W45881  17.514   5.435   3.365 -0.0628  0.1538 -0.2356
25602W        W45882  13.704   0.162  12.811  0.3967  0.2435 -0.0926
25603W        W45883  16.260  10.541  13.095 -0.0560 -0.1332  0.0127
25604W        W45884  16.232  17.581  13.935  0.1813  0.0292 -0.1055
25605W        W45885  19.253  18.722   1.406 -0.1646  0.0190 -0.1392
25606W        W45886  17.003   7.225  12.743 -0.0122 -0.0294 -0.1638
25607W        W45887  12.006   4.806   2.028 -0.0929 -0.0140  0.3561
25608W        W45888   5.463   5.009  13.012  0.0915 -0.1651 -0.0990
25609W        W45889   6.379   1.051   1.284 -0.1796 -0.1389  0.1959
25610W        W45890   2.018   8.885  13.810  0.1813  0.1380  0.0431
25611W        W45891  15.944  10.518   1.969 -0.1220  0.0024 -0.0864
25612W        W45892  18.721  15.140  11.323 -0.1246  0.1526  0.4314
25613W        W45893  12.492  11.591  12.962 -0.1241  0.0594  0.0267
25614W        W45894   8.895   8.636   0.084 -0.0974 -0.1593 -0.1484
25615W        W45895  11.928   5.063  14.369 -0.3631 -0.1459  0.3882
25616W        W45896  14.375   2.093   2.213  0.1064  0.0088 -0.1845
25617W        W45897  17.897  12.805  13.279 -0.0603  0.0423  0.2060
25618W        W45898  12.336   8.525   2.972  0.0909  0.1059 -0.0781
25619W        W45899   7.918  17.096   3.833  0.0615 -0.1874  0.1060
25620W        W45900   4.453   5.131   2.037 -0.3354  0.0878 -0.2737
25621W        W45901   5.892  11.400   0.750  0.2908  0.0880 -0.0369
25622W        W45902   4.915  19.013   0.718  0.0515  0.2307 -0.0453
25623W        W45903  18.607  12.250   2.149  0.1522 -0.0422 -0.0069
25624W        W45904   1.038   6.024   3.958  0.1136  0.1165  0.3002
25625W        W45905  16.161   8.101  10.375 -0.2521  0.0872  0.1224
25626W        W45906   2.669  10.532   2.033 -0.0216 -0.3382  0.0122
25627W        W45907  14.199  17.178   0.508 -0.2036 -0.1159 -0.1170
25628W        W45908   8.707   8.638   0.724 -0.0193  0.0129  0.5151
25629W        W45909   5.563   7.147  12.903 -0.1345 -0.0176 -0.0253
25630W        W45910  14.064   7.668  14.000 -0.0944  0.2025 -0.1220
25631W        W45911   3.800   9.786  10.201  0.1668  0.1575  0.1465
25632W        W45912   5.024  13.046  14.384 -0.0288 -0.0450  0.0299
25633W        W45913  16.371  13.889  12.014  0.0056 -0.0833 -0.0237
25634W        W45914  11.695   4.750  11.788  0.2626  0.4373  0.0653
25635W        W45915   0.814  17.465  14.160 -0.1596  0.2052  0.2129
25636W        W45916   8.415   7.691  13.917 -0.1446  0.1081  0.1604
25637W        W45917   4.069   9.462   2.519  0.0232 -0.0169 -0.0210
25638W        W45918   9.976   1.707  11.340 -0.3449 -0.0011 -0.1520
25639W        W45919   3.926  15.676  12.456  0.1947  0.0738  0.1314
25640W        W45920   1.146  17.304   0.143  0.1642  0.3278  0.0132
25641W        W45921   9.778  16.124  11.090  0.1853  0.1163  0.2158
25642W        W45922   0.085   0.412  10.076 -0.3028 -0.1752  0.3285
25643W        W45923   1.034  15.885  13.897  0.3774  0.2216  0.0364
25644W        W45924   1.124   2.393   0.690  0.0230 -0.0609 -0.0400
25645W        W45925   4.122  13.765   0.201  0.1873 -0.0753 -0.0589
25646W        W45926  14.256  15.936  11.615 -0.3147 -0.1397 -0.1038
25647W        W45927   0.349   1.795  14.472  0.0593 -0.1285 -0.0683
25648W        W45928  11.038   4.790  11.172  0.3719  0.4313  0.3305
25649W        W45929   5.902  14.187  14.380  0.0859 -0.2384 -0.2273
25650W        W45930   9.604   9.516   1.085 -0.1046  0.3232 -0.0922
25651W        W45931  10.514   0.793  14.124 -0.0289  0.1159  0.0708
25652W        W45932   5.320  18.816  14.464 -0.4304  0.0940  0.1488
25653W        W45933   0.073   9.761  14.457 -0.3456 -0.1306 -0.1293
25654W        W45934   9.279   7.506   9.798  0.1386 -0.0960 -0.0518
25655W        W45935  16.584   1.059  12.854  0.0883 -0.1668  0.0673
25656W        W45936  16.801  11.347  11.685  0.0814 -0.2496  0.0818
25657W        W45937  11.973   9.461  10.725 -0.2767  0.1785  0.0801
25658W        W45938  10.143   3.751  14.339 -0.0670 -0.1258 -0.0114
25659W        W45939  13.242   9.063  12.049  0.1598 -0.2735 -0.2833
25660W        W45940   5.058  13.284  10.064  0.1062 -0.2331  0.0066
25661W        W45941  18.055  14.755  12.430  0.0738  0.0815  0.1507
25662W        W45942  12.648  17.297   0.700  0.1476  0.1663  0.2332
25663W        W45943  11.124  12.906  14.113 -0.1885  0.0698 -0.0063
25664W        W45944   5.063  18.528  14.085  0.0410  0.0849 -0.0138
25665W        W45945   7.056   1.963  11.376 -0.2965  0.0886  0.4505
25666W        W45946  11.909  10.864   1.919 -0.0409 -0.1208 -0.1877
25667W        W45947   4.704  14.424  12.114 -0.2703  0.1551  0.0713
25668W        W45948   4.822   3.726   2.503  0.0916  0.0673  0.1143
25669W        W45949   5.409  14.773  14.153 -0.2671 -0.4303  0.1599
25670W        W45950   1.540   2.962  10.932  0.0467 -0.1076 -0.2128
25671W        W45951   7.093   3.703   4.049 -0.1615  0.3768  0.2699
25672W        W45952  11.119   5.461   5.094  0.0221 -0.2751  0.0433
25673W        W45953   4.280  17.264  13.172 -0.0113 -0.2846  0.0419
25674W        W45954  10.692   2.441  11.088  0.1821  0.2634 -0.0718
25675W        W45955   3.104   0.492   4.740  0.2138 -0.0514 -0.2816
25676W        W45956   0.580   6.718   3.750  0.1895  0.2966  0.1522
25677W        W45957   6.878  10.736   2.979  0.1016 -0.1941 -0.1544
25678W        W45958  18.330  10.150   0.822  0.2206 -0.1281  0.1262
25679W        W45959   1.533   6.872   2.772  0.1991  0.2339 -0.2335
25680W        W45960  12.045   9.702   3.798  0.1447 -0.0460  0.2578
25681W        W45961   0.098  18.571  12.892  0.0071  0.2018  0.1587
25682W        W45962   5.072   2.105  11.049  0.0058 -0.1840 -0.0342
25683W        W45963   0.415   4.901  11.289  0.1870  0.0065  0.1950
25684W        W45964  12.479  12.978   2.741 -0.2420 -0.3949  0.0579
25685W        W45965  13.783   6.595  12.362  0.0270  0.0604  0.2355
25686W        W45966   7.418   2.254   1.780  0.1096 -0.2224  0.0487
25687W        W45967   8.075   9.471   1.508  0.1218  0.1499 -0.0454
25688W        W45968   8.099  14.095   3.475 -0.2157 -0.2956 -0.0090
25689W        W45969  14.276  18.161  13.866  0.1078  0.1162 -0.0271
25690W        W45970   0.290  13.165   2.636  0.1618  0.2865  0.2029
25691W        W45971  16.140  16.085  12.034  0.2007 -0.0510  0.2490
25692W        W45972  13.240   1.168  11.096  0.0973  0.3508 -0.6032
25693W        W45973  16.504   0.759   3.662 -0.2984 -0.3089 -0.3291
25694W        W45974  14.059   7.323  14.373 -0.0840 -0.2685 -0.0174
25695W        W45975  11.989  19.331  12.602 -0.3448  0.1223 -0.1079
25696W        W45976  13.718  11.082  11.731 -0.3111 -0.2104  0.0847
25697W        W45977   6.095  18.795   1.613 -0.0640 -0.3483  0.1075
25698W        W45978  17.979  18.002   1.809  0.4255 -0.1111 -0.0722
25699W        W45979   0.322  16.918  14.361 -0.0961 -0.0045  0.1084
25700W        W45980  10.372  10.304   3.082 -0.1725 -0.0413  0.3470
25701W        W45981  10.282   5.147   1.007 -0.0521  0.0682 -0.2595
25702W        W45982  13.218  14.155   2.942  0.1221  0.0807 -0.1116
25703W        W45983  17.941   0.198  13.417 -0.0970  0.1020  0.1383
25704W        W45984  17.375   1.084   3.980 -0.2516 -0.1526 -0.1446
25705W        W45985  15.960   2.049   0.410  0.0352 -0.4373 -0.1332
25706W        W45986  12.540   2.375  10.983 -0.0348 -0.1606 -0.4079
25707W        W45987   9.952   9.397  14.399  0.0259 -0.0128 -0.0981
25708W        W45988  17.874   5.855   3.724  0.0262  0.1802 -0.2474
25709W        W45989  13.722  17.483   3.980 -0.2710 -0.0371 -0.0995
25710W        W45990   6.651  12.177   3.297  0.1106  0.0256  0.2354
25711W        W45991   7.262  13.913  14.371 -0.0398  0.1149 -0.0031
25712W        W45992   6.509   9.542  13.570 -0.0252 -0.0030 -0.1214
25713W        W45993  12.474   6.940  11.308  0.3498 -0.2646  0.0451
25714W        W45994  10.295  15.410  12.182 -0.2354 -0.1832  0.0036
25715W        W45995   3.548  12.219  12.750  0.1068 -0.0074  0.2100
25716W        W45996   9.180  14.200  10.639  0.2105  0.0700  0.1642
25717W        W45997  14.293  15.498   0.229  0.0390  0.0815 -0.1142
25718W        W45998   9.750  11.231  10.591  0.0360  0.1900 -0.0592
25719W        W45999   4.872   3.519  11.343 -0.2866  0.3292  0.1038
25720W        W46000  18.436  16.718   1.854  0.0078 -0.2703  0.1286
25721W        W46001  11.719  18.100   0.721 -0.0705  0.0693  0.0649
25722W        W46002  13.178   0.543   1.893  0.2446 -0.1594  0.0660
25723W        W46003  13.226  10.775   0.913 -0.0905  0.3279  0.0797
25724W        W46004   1.670   9.554   1.675 -0.0281  0.2227  0.0496
25725W        W46005  15.789   6.882  13.188  0.0139  0.1154  0.1482
25726W        W46006  12.505   6.023   3.519  0.1046  0.1030  0.0231
25727W        W46007   1.484  14.293   3.660  0.1083 -0.0403  0.0827
25728W        W46008   3.255  11.983  12.162 -0.0975 -0.1642 -0.1229
25729W        W46009  10.402   9.029  10.969 -0.0839  0.0034 -0.1413
25730W        W46010  15.595  11.111   0.682  0.1194 -0.0607 -0.1079
25731W        W46011  11.022   2.585  12.860  0.1049  0.1139  0.1778
25732W        W46012  16.658  10.398   0.077 -0.3399 -0.3160  0.1388
25733W        W46013   0.646  11.353   0.772  0.1386 -0.2401  0.0393
25734W        W46014  11.602   0.018  14.259 -0.2809 -0.0205  0.2798
25735W        W46015  17.010  13.971   3.845 -0.2169  0.0492  0.1605
25736W        W46016  13.582  16.286  11.196 -0.0143 -0.1885  0.3892
25737W        W46017   9.644  18.857  11.976 -0.1724  0.1028  0.0320
25738W        W46018   3.553  14.999   2.221  0.3697 -0.1783  0.2319
25739W        W46019  13.022  18.434  11.822  0.1455  0.1264 -0.0789
25740W        W46020   8.882  14.769   3.446  0.1358  0.0500  0.3281
25741W        W46021   2.219   4.468   2.510 -0.3069 -0.0119 -0.0245
25742W        W46022   8.581   2.480  13.824 -0.0948  0.1423 -0.2279
25743W        W46023  17.134   6.177   1.776 -0.0344 -0.1432 -0.0853
25744W        W46024   4.285  16.208   3.217 -0.3546  0.2639  0.1975
25745W        W46025  11.515  16.412   0.989 -0.0025  0.1156 -0.1528
25746W        W46026   6.830  14.747  13.207 -0.0154  0.0496  0.0765
25747W        W46027   4.003  17.118   0.609 -0.0745 -0.0525 -0.0132
25748W        W46028   8.985   0.355   2.255 -0.0025  0.1121 -0.2055
25749W        W46029  11.347  11.034  13.281  0.1528  0.2785 -0.1149
25750W        W46030  12.052  14.858  11.600 -0.1533 -0.1860 -0.3052
25751W        W46031  18.946  11.432   3.516  0.4236  0.2979  0.1452
25752W        W46032  11.057  13.674   1.198  0.1753 -0.1569 -0.1178
25753W        W46033   0.709   6.093  13.508  0.1104 -0.0970  0.1754
25754W        W46034   3.100   1.045   3.895 -0.3334 -0.0429 -0.0759
25755W        W46035  19.034   4.365   2.439 -0.0537  0.0062 -0.1044
25756W        W46036  17.876  16.923   3.176 -0.0152 -0.1847  0.1663
25757W        W46037  16.081   5.496  10.693  0.0153  0.0121 -0.0756
25758W        W46038  16.797   8.734  11.380 -0.0684 -0.1340 -0.1592
25759W        W46039  11.654   9.265  12.171 -0.0406 -0.2678  0.0631
25760W        W46040  13.637   1.881   1.535  0.3320  0.0402 -0.0431
25761W        W46041   0.978  12.543   3.137  0.2025 -0.3020  0.0437
25762W        W46042  11.847  11.806   1.212 -0.1837 -0.0029  0.3519
25763W        W46043   8.426  17.497   1.517  0.0410 -0.0932 -0.0584
25764W        W46044   9.392  10.976   0.270  0.0646  0.1494  0.3710
25765W        W46045   3.850  11.360   1.296 -0.0227  0.2549  0.0498
25766W        W46046   0.544  11.980   2.013 -0.1958  0.2921 -0.0498
25767W        W46047   7.991   4.981   3.561 -0.2065 -0.1211 -0.3791
25768W        W46048  18.995  12.666  12.543  0.0914 -0.1658 -0.1459
25769W        W46049  10.435   5.288  11.528 -0.0444 -0.0230  0.0746
25770W        W46050  14.537  10.885  11.712 -0.1517  0.3840  0.0590
25771W        W46051   8.613  18.587  13.719  0.1147 -0.2170 -0.0158
25772W        W46052   9.056   6.352   1.662  0.0769  0.0574  0.1700
25773W        W46053  18.411  13.456  11.767 -0.0955  0.1435 -0.1173
25774W        W46054  14.677   1.929  11.897 -0.1273  0.1316 -0.2889
25775W        W46055   3.411  11.828  13.116 -0.3623 -0.2044  0.2421
25776W        W46056  14.594  13.719  12.232 -0.2778 -0.2433  0.2918
25777W        W46057  18.562  11.321   2.331 -0.1174 -0.1060  0.0188
25778W        W46058  13.753   9.913   3.502  0.0299  0.2670  0.0805
25779W        W46059  16.132   2.436   2.899 -0.1175  0.1947  0.0055
25780W        W46060   8.212   3.094  12.753  0.0256 -0.1168 -0.0077
25781W        W46061   7.588   8.455  14.055 -0.0536 -0.0764 -0.0311
25782W        W46062   5.166   0.117  11.219  0.3941 -0.2679  0.1052
25783W        W46063  18.931   8.529  11.006 -0.0811 -0.1935 -0.0845
25784W        W46064  10.070   4.203   3.153 -0.0239 -0.0180  0.0985
25785W        W46065   2.768  16.004  13.399 -0.1652  0.1256 -0.2011
25786W        W46066  15.917  14.845  10.917 -0.1528  0.2478  0.2998
25787W        W46067   9.109  16.662  13.708 -0.0605  0.0468  0.2739
25788W        W46068   5.013   5.756  13.117 -0.0790 -0.0331 -0.0047
25789W        W46069   3.552   0.914  11.574 -0.1768  0.0190 -0.1619
25790W        W46070  10.705   5.511  14.020 -0.1198 -0.0130  0.2361
25791W        W46071  10.578  16.932  12.145  0.1473 -0.0200 -0.1476
25792W        W46072   4.271  14.821  14.183  0.4726  0.0544  0.1206
25793W        W46073   1.764  13.842  10.864  0.1792 -0.0299 -0.0349
25794W        W46074  18.351   1.569   2.766  0.2132  0.5148 -0.2779
25795W        W46075  19.093  11.688   2.989  0.2992 -0.1677 -0.3316
25796W        W46076   4.107   9.584   1.636 -0.0711  0.0930 -0.0081
25797W        W46077   7.159  17.733  12.470 -0.2719 -0.2679  0.1289
25798W        W46078  13.422   7.530   2.046  0.2720 -0.0237  0.2325
25799W        W46079   6.361   7.704   1.509  0.0893 -0.0513  0.0799
25800W        W46080  17.556   1.405  12.527  0.2100  0.0002  0.2059
25801W        W46081   4.411  10.731  13.507  0.0901 -0.3293 -0.0621
25802W        W46082   8.569   3.897   2.314  0.0200  0.2886 -0.0945
25803W        W46083  18.864  17.763  10.933 -0.0686 -0.2447  0.0354
25804W        W46084   5.181   2.112   0.222  0.0514 -0.1823  0.0204
25805W        W46085   9.904  17.888   2.085  0.3276 -0.0096  0.4718
25806W        W46086   5.041   8.498   0.390  0.0571  0.4441 -0.1562
25807W        W46087   2.185  13.150   3.402  0.0751  0.0154  0.1198
25808W        W46088   8.405  10.660   1.633  0.1571 -0.1404 -0.0389
25809W        W46089   7.469   5.002   3.138 -0.0711  0.0923 -0.2406
25810W        W46090   9.134  13.712  13.528 -0.1820  0.0734 -0.0279
25811W        W46091  11.792  18.725   2.732 -0.1908 -0.0474  0.0939
25812W        W46092   0.067  17.607  12.584  0.1210  0.0015 -0.1149
25813W        W46093   2.148  13.150   0.822  0.0867 -0.1323  0.1283
25814W        W46094   9.816  14.574  12.210  0.0903 -0.4195 -0.0001
25815W        W46095  14.703   4.079   2.814  0.0953 -0.0165 -0.1159
25816W        W46096   9.130  14.045  13.076  0.0324  0.2431 -0.2417
25817W        W46097   4.242  17.108   3.127  0.2026 -0.2342 -0.1550
25818W        W46098  16.397   0.244   0.542 -0.0425  0.1592  0.1410
25819W        W46099  16.575   4.242  13.631 -0.0424  0.1154  0.0223
25820W        W46100  17.022   4.841   2.896 -0.0334  0.0229  0.2000
25821W        W46101   0.073  11.606   2.703 -0.1274 -0.2116 -0.2645
25822W        W46102   8.415   9.849  10.284 -0.0205  0.3181  0.0806
25823W        W46103   5.701   2.443   3.632  0.0549 -0.0873 -0.1268
25824W        W46104   5.671  11.870   3.275  0.1467  0.0363 -0.1071
25825W        W46105   6.485   9.038  13.554 -0.2959 -0.0448 -0.0554
25826W        W46106   0.096   8.751   2.714 -0.3671  0.0783 -0.0238
25827W        W46107   2.145  14.546   1.922 -0.0928  0.4279  0.1930
25828W        W46108   0.709  16.779  12.374 -0.0991  0.1130 -0.3281
25829W        W46109  15.570   1.317  10.997 -0.0957  0.2032  0.1378
25830W        W46110   7.876  16.667  11.277 -0.0349 -0.1013 -0.1343
25831W        W46111   6.850  11.893  11.975  0.1114  0.1535 -0.0564
25832W        W46112   0.376   0.209  14.102  0.0924 -0.4080  0.1231
25833W        W46113   2.917   2.587   1.508  0.0023  0.0935  0.0088
25834W        W46114   8.798   7.840  12.545 -0.3222  0.0846 -0.3186
25835W        W46115   2.127  15.931  12.531  0.2370  0.0745 -0.1284
25836W        W46116   3.135  18.772   0.075  0.0647 -0.0056  0.0204
25837W        W46117  12.894   8.766  10.963  0.1342 -0.1679 -0.2660
25838W        W46118  17.526  13.913   3.780 -0.1964  0.0703  0.0433
25839W        W46119  10.501   3.518   3.905  0.0564  0.0088  0.1844
25840W        W46120  16.956  11.063   0.137  0.2022 -0.1724 -0.0086
25841W        W46121  16.413  11.587   3.707  0.1602 -0.0547 -0.1851
25842W        W46122   5.090   8.344   3.748 -0.1594 -0.5467  0.1936
25843W        W46123   3.920   7.394  14.408  0.0601 -0.0603  0.2612
25844W        W46124  16.287  11.426  10.507  0.0696  0.4495  0.2056
25845W        W46125  14.711  11.041   1.136  0.0783 -0.0639  0.1564
25846W        W46126  18.317   2.037   0.285 -0.0603 -0.0682  0.1558
25847W        W46127   9.600   7.734  12.573  0.0564  0.0925 -0.0431
25848W        W46128   8.091   2.236  12.919 -0.0612 -0.1716  0.1443
25849W        W46129   1.434   8.949   2.379  0.0015 -0.2131 -0.0769
25850W        W46130  14.033  18.107  12.601  0.0580 -0.2067 -0.1066
25851W        W46131  18.429  17.483   1.498 -0.0172 -0.1123  0.0185
25852W        W46132   8.135  12.900   1.663 -0.0689  0.3045 -0.1615
25853W        W46133   8.276  11.142   1.740  0.1362 -0.1334  0.1869
25854W        W46134  15.546  15.497   0.933  0.0156 -0.1778  0.2677
25855W        W46135   8.677   1.535  10.839  0.2075 -0.3192 -0.1432
25856W        W46136   7.254   0.415  11.676 -0.0031 -0.0324  0.0700
25857W        W46137  17.959  14.263   0.333 -0.0473 -0.2193 -0.0104
25858W        W46138   5.125  14.936   3.789  0.1714 -0.1103  0.1015
25859W        W46139  14.500  16.049   2.183 -0.1870  0.2987 -0.4712
25860W        W46140  12.930  14.975   2.313  0.1339  0.0737 -0.0646
25861W        W46141  18.124   4.304   1.421  0.2048  0.0888 -0.1460
25862W        W46142   2.454   1.435  14.267 -0.1636  0.0968 -0.1176
25863W        W46143   9.514  14.149  11.838  0.3604 -0.5681  0.1232
25864W        W46144   0.876  11.924   3.244  0.5040 -0.0091 -0.0297
25865W        W46145  19.109   1.985   1.182 -0.3141  0.2884 -0.1161
25866W        W46146  11.283   4.393   2.627 -0.2465 -0.1065 -0.0775
25867W        W46147   9.947   8.440   2.679 -0.0393 -0.2899  0.2657
25868W        W46148  13.647   1.942  12.622  0.2570 -0.0023  0.1442
25869W        W46149  19.327  10.667  14.486  0.1475 -0.2352 -0.2361
25870W        W46150  12.029   6.182   4.351  0.2946  0.0675  0.0003
25871W        W46151  16.204   4.571  13.427 -0.2053  0.1849  0.0356
25872W        W46152  16.114  15.490   1.316 -0.0038  0.1598 -0.1073
25873W        W46153  13.182  15.383   0.670 -0.0040  0.0882 -0.0824
25874W        W46154  12.133  13.248  14.196 -0.2134 -0.2418 -0.0243
25875W        W46155   0.368  17.425  10.979  0.1000 -0.0447 -0.0243
25876W        W46156  15.627   7.640   3.179  0.2069 -0.3889 -0.0966
25877W        W46157   9.213   6.152   4.019  0.2840 -0.3911 -0.2366
25878W        W46158   4.621   3.860  12.518 -0.1241  0.2179  0.1227
25879W        W46159   7.887   2.565   3.510 -0.1588  0.1183 -0.1112
25880W        W46160   5.790   3.850   1.147  0.0181  0.2821  0.1388
25881W        W46161   7.769   3.793   2.186  0.0801  0.0928 -0.2521
25882W        W46162  16.560  11.971  13.377  0.2456  0.0905  0.1940
25883W        W46163  14.986   0.115   4.981 -0.0144  0.1831  0.2338
25884W        W46164  12.017  15.536  12.215  0.0496 -0.2546 -0.1999
25885W        W46165  13.094   8.601  12.337  0.1499 -0.0230 -0.1471
25886W        W46166   2.025  16.857  12.709  0.2964 -0.2784  0.1774
25887W        W46167   1.098  12.953   0.524  0.1831  0.2504  0.1224
25888W        W46168  10.326  15.145  14.251 -0.2290 -0.2956 -0.1108
25889W        W46169   3.727  10.158   9.800 -0.0794 -0.0090  0.3331
25890W        W46170  11.632   6.712  12.574  0.1599  0.0572 -0.0613
25891W        W46171   8.803   0.783  12.043 -0.2881  0.0686  0.0648
25892W        W46172  16.909   4.476   4.145  0.1750 -0.0282  0.0191
25893W        W46173  11.286  11.857  10.894  0.0090 -0.1343 -0.0729
25894W        W46174  15.130   7.991  13.878 -0.3019  0.0092 -0.1542
25895W        W46175  19.050   2.135  12.929 -0.0666  0.2113 -0.1822
25896W        W46176  17.078  12.178  14.076 -0.0637  0.3609 -0.2096
25897W        W46177  12.952  11.643   2.109  0.0379 -0.2429 -0.1337
25898W        W46178   0.907   1.179  11.963  0.1596  0.1231  0.2878
25899W        W46179  11.131   5.605   3.118 -0.4352 -0.2406 -0.0341
25900W        W46180  16.417   5.622  13.405 -0.1391  0.1260  0.0333
25901W        W46181  15.019   9.010   2.598 -0.1502  0.2114 -0.1021
25902W        W46182  11.788  14.232   0.726 -0.3096 -0.0333 -0.0559
25903W        W46183  16.346  18.327  11.601  0.1681  0.3141 -0.0217
25904W        W46184  18.641  16.944   2.866  0.0870  0.1297 -0.3449
25905W        W46185  11.455   4.240   4.025 -0.2372 -0.2907 -0.0415
25906W        W46186   5.693  19.108  14.271 -0.2449  0.3882  0.0719
25907W        W46187  15.543   3.630   2.576 -0.0598 -0.4517 -0.3730
25908W        W46188   5.549  10.034   2.625 -0.1375 -0.2819  0.1166
25909W        W46189   7.143  13.098   1.433 -0.2494  0.1985 -0.1079
25910W        W46190  14.101  14.434  12.381 -0.0555  0.1184  0.0002
25911W        W46191  18.482   0.286  11.671  0.1501 -0.1656 -0.3986
25912W        W46192   3.915   1.620   0.483 -0.1426 -0.0229 -0.0968
25913W        W46193   0.843  12.168   0.307  0.2119  0.1920 -0.0642
25914W        W46194  16.778  18.581   0.904  0.0983 -0.2819  0.1853
25915W        W46195   3.803   9.531  13.743  0.1228  0.2180  0.0968
25916W        W46196  14.722  17.306   9.676 -0.3979  0.2795  0.3114
25917W        W46197   8.906   7.593  13.922 -0.0915 -0.2338 -0.0969
25918W        W46198   7.067   5.269   1.791 -0.2116  0.1978 -0.1707
25919W        W46199   8.895   0.289   2.840  0.1388  0.0583 -0.3320
25920W        W46200  12.444  16.144  11.532  0.1624 -0.2671  0.0088
25921W        W46201   4.618  18.311  12.182  0.0254 -0.0577  0.1358
25922W        W46202  10.687   9.130  10.568 -0.0712 -0.2016  0.2270
25923W        W46203   3.350   0.862   2.667 -0.0113 -0.0667 -0.2503
25924W        W46204  11.821   1.809  11.732 -0.2291  0.1347  0.1915
25925W        W46205   7.188   5.968   0.025  0.2850 -0.0489  0.0155
25926W        W46206  15.029   1.666   5.289  0.0084  0.0433  0.1564
25927W        W46207   7.773  16.856  10.672 -0.0474 -0.2668  0.2232
25928W        W46208   7.917  13.985   0.837 -0.0133 -0.1371 -0.1048
25929W        W46209  12.327   6.655  11.854  0.3559  0.0742  0.1477
25930W        W46210   0.701   0.968   2.632  0.1130  0.2882  0.0889
25931W        W46211   7.773   7.019  13.923 -0.0119  0.2257  0.0080
25932W        W46212  18.027  17.163   1.684 -0.1339  0.4517  0.2345
25933W        W46213   6.075   8.367  14.127 -0.0986  0.3098 -0.1285
25934W        W46214  11.083  16.971   0.237  0.1677 -0.0077  0.0426
25935W        W46215   1.088  14.895  13.321 -0.0353 -0.3386 -0.0992
25936W        W46216   3.573   3.753   4.229 -0.3607 -0.2756  0.3543
25937W        W46217  14.778   2.380   1.326 -0.0721 -0.0373 -0.2866
25938W        W46218  12.143  14.543   1.061  0.3002 -0.2357 -0.1521
25939W        W46219  12.567  12.047   1.550 -0.1121 -0.2873 -0.1115
25940W        W46220   0.077  14.545  13.325  0.1295 -0.1404 -0.0935
25941W        W46221   6.507   5.652   2.862 -0.0220  0.2812 -0.0417
25942W        W46222   4.251   6.488  12.968 -0.1931  0.0835  0.1406
25943W        W46223  10.710   7.223  13.345  0.0659  0.2408  0.0285
25944W        W46224  12.866  19.137  12.522  0.1649  0.0581  0.0101
25945W        W46225   0.058  16.310  12.401 -0.2216  0.2328 -0.1591
25946W        W46226  19.218  16.942  11.256 -0.1699  0.0816  0.1960
25947W        W46227  10.854  19.298  10.888 -0.2018  0.1800  0.2575
25948W        W46228   9.518   1.730  14.189 -0.0900  0.1056  0.1754
25949W        W46229  11.335   0.631  12.942  0.0326  0.1756  0.1742
25950W        W46230  16.633  13.359   1.119 -0.4163 -0.0049 -0.2917
25951W        W46231   7.121   1.613   1.204  0.0340  0.2633  0.0345
25952W        W46232   3.485   7.369  11.809 -0.0448 -0.3091  0.3109
25953W        W46233   9.323   8.875   3.552  0.0992 -0.2550 -0.0280
25954W        W46234  12.640  18.047   3.224 -0.1488  0.1231 -0.0014
25955W        W46235  16.655   5.146  11.537 -0.1571 -0.2722  0.2434
25956W        W46236  10.296   7.421   0.903  0.4368  0.0631 -0.2375
25957W        W46237   4.138   8.958  13.424  0.0601  0.1917 -0.1750
25958W        W46238   0.575   3.547  13.777 -0.1316  0.4771 -0.0337
25959W        W46239   2.063   2.896  11.039  0.3209  0.1653  0.1375
25960W        W46240  10.628   8.502   3.628 -0.0458 -0.0720  0.1655
25961W        W46241  12.519  14.251   1.389 -0.1157 -0.1294  0.1404
25962W        W46242   6.197  10.389   0.927  0.0305 -0.1819  0.0036
25963W        W46243  11.814   0.780  12.747 -0.3260  0.2923 -0.0883
25964W        W46244   4.638  10.282   1.926  0.2762 -0.1025 -0.2872
25965W        W46245   6.238   2.577   2.586 -0.3006 -0.2426 -0.0741
25966W        W46246   7.821  11.774   3.886 -0.0354  0.1704  0.0312
25967W        W46247   0.276  11.885   3.466 -0.2532 -0.0747 -0.4080
25968W        W46248  11.677  17.150   4.222  0.1935  0.1515  0.1550
25969W        W46249   8.513   8.957   0.293  0.0294  0.2052 -0.0907
25970W        W46250  12.709  17.535  12.175 -0.0299  0.0393  0.0105
25971W        W46251   9.696  12.867  12.722 -0.2037 -0.4973  0.0212
25972W        W46252   8.348  18.778   4.270 -0.1481 -0.0470 -0.2043
25973W        W46253  13.698   7.394   3.828  0.0639 -0.3093  0.1378
25974W        W46254  19.130   8.080  13.762  0.2812 -0.0897 -0.0400
25975W        W46255   0.809  12.480   0.647 -0.0903 -0.0508  0.1529
25976W        W46256   5.411  10.662  10.445  0.3455 -0.1721 -0.0212
25977W        W46257  11.971   5.321   2.194 -0.0658 -0.1940 -0.0208
25978W        W46258  15.868   5.753  11.149 -0.1342 -0.2692  0.0420
25979W        W46259   3.122   1.255  13.107 -0.0359  0.0312  0.2648
25980W        W46260   9.635   6.174   0.621 -0.1197 -0.2773  0.0156
25981W        W46261   6.346  17.874   4.246 -0.3366 -0.2690  0.1033
25982W        W46262   9.013   1.278  12.157  0.0727  0.1772 -0.0277
25983W        W46263  17.537   3.200   2.919 -0.4034 -0.2351  0.2868
25984W        W46264   5.829  18.422   0.875 -0.1557  0.1921 -0.0516
25985W        W46265  13.405   8.103   2.324  0.1415 -0.0813  0.1638
25986W        W46266   4.569   6.832  12.591 -0.0826 -0.2228 -0.0863
25987W        W46267  13.304   7.068   3.506 -0.0630  0.1579  0.0089
25988W        W46268   7.681   2.717  14.399  0.2455  0.1218  0.1459
25989W        W46269  18.424  15.593   3.705  0.1819  0.1409 -0.3965
25990W        W46270  15.561   6.369   3.693  0.2718  0.0138 -0.1370
25991W        W46271  11.966  10.031  11.873  0.1129 -0.0218 -0.1095
25992W        W46272  11.994  16.762  11.700  0.2415 -0.2520  0.3108
25993W        W46273   6.519  14.645  13.681  0.2743  0.0873 -0.2404
25994W        W46274  13.534  17.628  10.957  0.0205  0.2586 -0.1156
25995W        W46275   9.244   1.644   3.501 -0.1514 -0.2240 -0.2486
25996W        W46276   0.604   4.915   0.366 -0.0940  0.1455  0.2476
25997W        W46277  10.706   5.360   3.457  0.2781 -0.1864  0.0330
25998W        W46278  12.849   2.911   0.898  0.1718  0.0383  0.1479
25999W        W46279   6.695  17.563   1.460  0.1230  0.0233  0.0553
26000W        W46280  12.857  18.254   1.232  0.1398 -0.0839  0.0633
26001W        W46281  12.132  13.819  14.223  0.3053  0.2024 -0.2732
26002W        W46282  19.301  15.898  10.610 -0.2302  0.0640  0.0773
26003W        W46283   2.657  16.798   3.462  0.1193 -0.1093  0.0099
26004W        W46284   9.196   6.351   0.748  0.3350 -0.1004 -0.3007
26005W        W46285   4.385   2.281  11.810  0.0113 -0.0941  0.0084
26006W        W46286   2.675   5.592   1.789  0.0328  0.2897  0.0605
26007W        W46287   9.138   1.176  13.390 -0.4488  0.0802  0.0618
26008W        W46288   4.263  11.269   1.956  0.0367 -0.2318 -0.2412
26009W        W46289  13.289  10.704   2.151  0.3723  0.1834  0.0273
26010W        W46290   3.568   2.457  13.038 -0.0621 -0.0449 -0.0667
26011W        W46291   7.978   8.476  10.615 -0.0301  0.0812  0.1099
26012W        W46292   5.983   5.603   1.722  0.1575  0.3694  0.2026
26013W        W46293  10.044  12.767   0.538  0.2982 -0.1578 -0.4569
26014W        W46294   6.640  14.796   0.310  0.1485  0.0128  0.2348
26015W        W46295   4.634  10.184   0.796  0.0441  0.2551 -0.0512
26016W        W46296  14.031  12.037   4.740  0.2290 -0.0821  0.4687
26017W        W46297  12.839   9.104   0.709 -0.2240 -0.3031  0.0743
26018W        W46298  10.034   0.747  11.296 -0.2245  0.0437  0.1895
26019W        W46299   5.346  14.527   3.460  0.1301  0.2344  0.1377
26020W        W46300  18.055   2.173   3.255 -0.0410 -0.1988 -0.0799
26021W        W46301  14.259   5.535  14.442 -0.1560  0.0254 -0.0679
26022W        W46302   5.378  12.441   9.611  0.0441 -0.2653  0.1018
26023W        W46303   0.559  17.500   0.612 -0.1313 -0.0414  0.0642
26024W        W46304  13.941  11.563  14.314  0.0189 -0.1913  0.2522
26025W        W46305   1.850   2.783   2.660  0.2915  0.1886  0.0204
26026W        W46306  14.354   4.022   3.184 -0.2482 -0.1464 -0.0801
26027W        W46307   4.185  16.682   0.933  0.1368 -0.0047 -0.1900
26028W        W46308   8.842   4.435   5.388 -0.2879  0.1740 -0.0095
26029W        W46309  10.838  12.189   3.409  0.0296  0.0916  0.3395
26030W        W46310   2.639   0.889   1.419  0.0401  0.1944 -0.0873
26031W        W46311  11.448   0.051  11.959  0.2418  0.1785 -0.2091
26032W        W46312  13.590   4.294  12.817  0.0770 -0.0418  0.1560
26033W        W46313   2.849   6.745  10.511 -0.2136  0.3561 -0.1167
26034W        W46314   3.517   8.961   2.916 -0.1679 -0.0652 -0.2703
26035W        W46315  10.611  10.103   1.515 -0.0183  0.1826 -0.2729
26036W        W46316   1.433   5.471   1.295 -0.1322 -0.2494  0.2472
26037W        W46317  10.298  11.944  13.579 -0.2197  0.3157  0.1307
26038W        W46318  18.427  15.646  13.233  0.1394  0.2788 -0.1453
26039W        W46319  12.981  13.966   2.522 -0.0498  0.0675  0.2132
26040W        W46320  12.834  17.435   2.458 -0.0175 -0.1023  0.1190
26041W        W46321   8.444  12.848  11.346 -0.0747  0.1606  0.1212
26042W        W46322  17.888  13.984   1.701 -0.0221 -0.0720  0.1693
26043W        W46323  15.442  15.358   2.690  0.1842  0.0850 -0.1140
26044W        W46324   1.738   0.872   1.273 -0.1152  0.0971  0.0990
26045W        W46325   8.474   5.194  10.468  0.1903 -0.0526  0.4552
26046W        W46326   3.937  18.928  12.110 -0.1277 -0.1368  0.2083
26047W        W46327  14.305  17.553   3.725  0.3154  0.0940 -0.3493
26048W        W46328   9.734  13.779   4.273 -0.1776 -0.0930  0.1689
26049W        W46329   9.703  14.729   3.654  0.0924 -0.0140  0.0431
26050W        W46330   3.429   3.396  11.528 -0.0299  0.5592  0.2669
26051W        W46331   2.596  16.827   3.981  0.1293  0.2649  0.0849
26052W        W46332  12.403  16.021   1.990 -0.1165  0.4740  0.0895
26053W        W46333   1.942  10.996  12.660  0.0286  0.2207  0.1220
26054W        W46334  18.971   9.674   0.318 -0.1034 -0.0311  0.1815
26055W        W46335   0.057   9.322   1.818  0.2860 -0.1296 -0.1321
26056W        W46336  16.907  18.760   1.394 -0.2618 -0.0761  0.0769
26057W        W46337  12.895   8.338   2.888 -0.2933  0.2203  0.3448
26058W        W46338   3.665   3.938   3.724  0.2979  0.0391  0.2693
26059W        W46339   7.854   9.729  11.390  0.1568 -0.2810  0.2149
26060W        W46340   2.642  15.041   4.011 -0.0060  0.0282 -0.0063
26061W        W46341   7.754  13.106  12.138 -0.1585 -0.0330 -0.3400
26062W        W46342   4.381   7.941  10.933 -0.1083  0.0443 -0.0843
26063W        W46343   2.041   4.099   3.152  0.2785  0.0149 -0.2306
26064W        W46344   9.513   1.951   2.308  0.1750  0.0757  0.0477
26065W        W46345  11.686   8.814   3.972  0.0606 -0.2131  0.0963
26066W        W46346   4.528  13.248  13.157 -0.1870 -0.2081  0.0318
26067W        W46347   8.864  14.311   3.230  0.1096 -0.0511  0.0160
26068W        W46348  15.100  17.395   0.697 -0.0171  0.1971 -0.2517
26069W        W46349  16.490  15.002  11.028  0.1512  0.3103  0.4024
26070W        W46350  17.807  14.650  12.899  0.1869 -0.0481  0.0890
26071W        W46351  18.251   8.874  10.322 -0.0846  0.0996 -0.0319
26072W        W46352  14.062  12.218  12.323 -0.2777  0.1837 -0.3099
26073W        W46353  11.459   9.964  10.494 -0.1578  0.3567 -0.0227
26074W        W46354   2.834  14.188   2.993 -0.0938 -0.0967 -0.0742
26075W        W46355   3.498   4.226   1.504  0.0933 -0.2179 -0.1237
26076W        W46356  12.616  10.053   4.893 -0.1133 -0.2240 -0.3292
26077W        W46357   7.401  17.169   2.237  0.1537  0.0750  0.2190
26078W        W46358  18.153  11.097   1.133 -0.0071  0.0194 -0.0737
26079W        W46359   5.178  11.140   1.798  0.2125  0.1984  0.1369
26080W        W46360   8.869   7.677   4.052  0.0079 -0.3271  0.1062
26081W        W46361   8.226  17.166  10.616  0.0789 -0.0831  0.2580
26082W        W46362   5.879   5.165   2.196 -0.2146 -0.0603  0.1444
26083W        W46363   2.335   5.458   3.565  0.4432 -0.0651 -0.2781
26084W        W46364   4.414   9.407  12.699 -0.0544  0.1405 -0.0241
26085W        W46365   7.218  12.936  12.062  0.1775  0.0056 -0.4701
26086W        W46366   3.647   3.227  11.979 -0.0023  0.0108 -0.2789
26087W        W46367  12.991  12.383  10.382  0.2218 -0.0813 -0.2354
26088W        W46368  16.418  12.311   2.065 -0.2852  0.2056  0.0448
26089W        W46369   1.243   4.659  11.870 -0.1396 -0.2143 -0.1065
26090W        W46370   2.134   2.697  13.879 -0.0848  0.0151 -0.2601
26091W        W46371  14.963   0.866   1.026  0.1619  0.1917 -0.1680
26092W        W46372   0.308  11.443  12.246 -0.1091 -0.0610 -0.1019
26093W        W46373  14.287  19.359  10.329 -0.1197  0.2158 -0.3090
26094W        W46374  11.608   0.174   0.688  0.0629  0.2893 -0.3463
26095W        W46375   9.488   4.520   1.481  0.1211 -0.1930  0.0071
26096W        W46376   5.236   9.734   2.429  0.1052 -0.0233  0.1662
26097W        W46377  19.006  14.234  12.184  0.0611 -0.0312  0.1678
26098W        W46378   1.633   4.332  13.133  0.2718 -0.2910 -0.0594
26099W        W46379   0.404   8.083  13.030  0.1953  0.1653  0.1312
26100W        W46380   9.370   4.284  11.166  0.0985 -0.2631 -0.2257
26101W        W46381   5.806   2.667  12.619 -0.1776 -0.1810 -0.1067
26102W        W46382   8.765   1.073   4.107  0.0637  0.0304 -0.1091
26103W        W46383   3.573  16.124  13.852  0.0366  0.2882 -0.0277
26104W        W46384   3.868   8.283  12.837  0.0144 -0.1565  0.0455
26105W        W46385  18.620  14.439   9.923 -0.0867 -0.1924 -0.1724
26106W        W46386  14.733  12.928   0.721 -0.0444 -0.0930  0.0279
26107W        W46387  17.148   3.814   3.278 -0.2645  0.1336 -0.0353
26108W        W46388   6.675  12.344  10.241 -0.2415  0.1532 -0.1688
26109W        W46389   0.991   6.247   0.186 -0.0945 -0.0487  0.0274
26110W        W46390  17.783   8.641   0.423 -0.2851 -0.1299  0.4625
26111W        W46391   4.588  17.821   0.456  0.0994  0.0265 -0.1373
26112W        W46392   5.510  10.332   1.803 -0.1577  0.2280  0.2083
26113W        W46393  11.450  10.068  13.145  0.1249 -0.0371 -0.1101
26114W        W46394   7.763  16.391   0.106 -0.0294 -0.2121  0.0647
26115W        W46395  18.563  16.958  13.175 -0.2171  0.0331  0.1708
26116W        W46396   0.383  12.682  10.994  0.4644  0.0643  0.2206
26117W        W46397   3.794   4.335  12.296  0.1505  0.1018 -0.0946
26118W        W46398   0.337  18.271  13.502 -0.1306  0.0487 -0.0468
26119W        W46399  15.885   6.467  13.597 -0.0254  0.0599  0.3284
26120W        W46400   5.843   7.519   2.274  0.0857 -0.1038  0.2759
26121W        W46401  16.946   4.689   2.368  0.4361  0.0218  0.0365
26122W        W46402  19.106  13.503  12.855 -0.0660  0.5412  0.0357
26123W        W46403  16.069  10.594  10.348  0.1124  0.1187  0.1471
26124W        W46404  11.726   2.633   0.214  0.1868 -0.1252 -0.1405
26125W        W46405   9.302   5.579  12.542 -0.1387  0.0553 -0.2448
26126W        W46406  16.408  10.417  10.662 -0.2800 -0.0874 -0.0325
26127W        W46407  12.912   0.757  12.184  0.1373  0.0212 -0.1918
26128W        W46408  12.341   8.938   1.199  0.0129  0.1098  0.1036
26129W        W46409   8.552  14.000   1.430  0.4554 -0.0207  0.2757
26130W        W46410  16.377  11.868  14.227  0.0922  0.2246 -0.0513
26131W        W46411   3.251   8.825   5.203  0.0906  0.0443 -0.0316
26132W        W46412   5.398   8.754   4.406  0.0072  0.1475  0.1916
26133W        W46413  19.115  11.184  10.531 -0.0806 -0.2891 -0.0987
26134W        W46414   9.377  13.474   0.165  0.1829 -0.2638  0.1537
26135W        W46415   8.083  15.931  12.183  0.1400  0.1662  0.1543
26136W        W46416   4.548  18.108   2.791 -0.3295  0.2471 -0.1115
26137W        W46417   0.408   5.912   0.235  0.1087  0.2622  0.0160
26138W        W46418   0.052  13.027  10.201  0.1850 -0.0434 -0.1179
26139W        W46419  10.512   0.590   0.731  0.0412 -0.0206 -0.1329
26140W        W46420  18.528   8.251  10.646 -0.3845  0.3004  0.1718
26141W        W46421  12.457  13.203  11.473 -0.0122  0.2466  0.1597
26142W        W46422  13.870   6.296   0.726  0.2471 -0.2050  0.1345
26143W        W46423   4.145   9.783   3.186  0.0937  0.0572 -0.0781
26144W        W46424   1.175   9.671   1.473  0.1484  0.1109  0.1181
26145W        W46425   2.230   7.312  10.953 -0.1040 -0.1092  0.0759
26146W        W46426  13.685  16.347   1.558 -0.0335 -0.1321  0.3223
26147W        W46427  15.094   7.101  13.198 -0.1094  0.0634  0.5178
26148W        W46428  14.917   6.504   2.884  0.0058 -0.1892 -0.1159
26149W        W46429  19.136   0.021  12.226  0.3189 -0.0546  0.0763
26150W        W46430   8.028   3.803  13.445 -0.1313 -0.1811  0.2561
26151W        W46431   3.453  12.337  10.304 -0.1160 -0.0045  0.1560
26152W        W46432  13.615  12.988   3.618 -0.0706  0.3014  0.0837
26153W        W46433   2.836  14.460   4.033  0.2192  0.1453 -0.1584
26154W        W46434   2.108   6.893   0.438 -0.2149 -0.0967 -0.2867
26155W        W46435   0.853  18.741  12.370  0.1082  0.1129  0.0868
26156W        W46436   8.264   6.817   0.069 -0.1716  0.0167  0.0794
26157W        W46437  10.670  12.238   1.913  0.0201 -0.0634 -0.0063
26158W        W46438   9.206   3.479   0.611  0.1878 -0.1077  0.1058
26159W        W46439   1.714   1.708  13.336  0.1382  0.0574  0.0713
26160W        W46440  17.234   3.686   1.337  0.3845  0.0109 -0.0369
26161W        W46441   8.041  14.630  10.176 -0.4121  0.0304  0.3395
26162W        W46442  19.361  15.916   3.660 -0.0626 -0.0368 -0.0487
26163W        W46443  12.950  13.148  12.611 -0.0836 -0.3473  0.2010
26164W        W46444   7.568   4.284  11.030 -0.0569  0.0808 -0.0644
26165W        W46445   3.002  11.939   2.403 -0.0653  0.1291 -0.0101
26166W        W46446   1.479   7.728   3.039 -0.1224  0.0505 -0.0413
26167W        W46447  14.890   4.311   1.248 -0.0165 -0.0056  0.0270
26168W        W46448   3.401  14.824  10.764  0.1640  0.2227 -0.1859
26169W        W46449  14.046  18.117   1.149 -0.1099  0.1220 -0.0383
26170W        W46450   7.524  12.510   2.412 -0.0503  0.0735  0.3850
26171W        W46451   0.765  10.391  14.266 -0.0344  0.0454 -0.0832
26172W        W46452   7.509   2.753   3.750 -0.1538 -0.3821  0.1560
26173W        W46453   3.893   4.315   2.368 -0.1648  0.3437 -0.0159
26174W        W46454   8.253   3.600   2.074  0.3977  0.0733  0.0631
26175W        W46455   9.436  17.612   4.893 -0.5223 -0.0860 -0.0645
26176W        W46456   9.362  18.659  14.075  0.0829  0.2856 -0.2869
26177W        W46457  16.803   2.384   0.222 -0.2438 -0.2011  0.1318
26178W        W46458   2.190  10.989   1.887  0.0020  0.1892 -0.2070
26179W        W46459   0.145  18.199  14.471 -0.3228 -0.0735  0.1202
26180W        W46460  11.890   3.063   3.976  0.0427  0.0159 -0.0624
26181W        W46461  17.962  10.792  13.716 -0.0929 -0.0148  0.3074
26182W        W46462   4.840   3.109   1.154  0.0359 -0.0209  0.1107
26183W        W46463   8.726   6.868  12.837 -0.7016 -0.0862  0.1347
26184W        W46464   6.730  16.238  10.214 -0.1010  0.1570 -0.1418
26185W        W46465   0.894  18.098   3.131 -0.3371 -0.1399 -0.0260
26186W        W46466  17.629   6.264   3.531 -0.2659 -0.2410 -0.0849
26187W        W46467  10.091   5.766   4.008 -0.0004  0.2238  0.0490
26188W        W46468  16.873   4.715  11.350  0.0841 -0.0096  0.2885
26189W        W46469   2.154   6.291  13.348  0.2358  0.1685 -0.1779
26190W        W46470   2.277   8.907   0.653  0.1496 -0.0956 -0.3360
26191W        W46471   9.317  11.158   2.515 -0.0665  0.0233 -0.0121
26192W        W46472  15.670  18.171   3.906  0.1680  0.1003 -0.2454
26193W        W46473   2.329  13.247   1.265  0.2324 -0.1156 -0.0765
26194W        W46474   4.126   8.218   1.320  0.2020  0.0627 -0.1086
26195W        W46475  12.629   0.973   3.501  0.2313  0.1330  0.0704
26196W        W46476  18.487   2.606   1.937 -0.0165  0.0024 -0.4383
26197W        W46477  17.058   4.261   2.549 -0.4526 -0.0009  0.3169
26198W        W46478  18.392   5.978  13.244  0.1125 -0.1748 -0.0426
26199W        W46479  16.184   6.198  14.401  0.0869 -0.0887 -0.2929
26200W        W46480   4.333  11.032  13.062 -0.0884 -0.1274  0.2986
26201W        W46481   4.810   2.420  12.326  0.2631 -0.3980  0.0487
26202W        W46482   8.849   2.550  12.276  0.0466 -0.0335  0.0114
26203W        W46483  15.973  17.177   9.870  0.0643 -0.0551 -0.0016
26204W        W46484  18.348  16.613  14.492 -0.1879  0.3049 -0.0754
26205W        W46485   6.073   6.006  10.428  0.0313  0.2715 -0.1492
26206W        W46486   8.438  15.018  11.836 -0.1835 -0.1748 -0.4180
26207W        W46487   4.815   1.017  13.790  0.0695  0.0401  0.0392
26208W        W46488  18.694  17.378  13.857  0.2085  0.1389 -0.0028
26209W        W46489   4.308   7.547   0.343  0.2591  0.0841  0.2991
26210W        W46490   1.883  10.216   2.965  0.3047 -0.0355 -0.0081
26211W        W46491   6.553   7.378   2.935 -0.1439 -0.0402  0.1087
26212W        W46492  12.230   1.441  11.018 -0.2433  0.2269  0.1153
26213W        W46493  12.620   2.377   0.556 -0.0168  0.0287  0.2400
26214W        W46494   9.458   0.846  14.226  0.1113 -0.0929 -0.2113
26215W        W46495  14.203   1.996  11.024 -0.0983 -0.0300  0.3442
26216W        W46496   6.508  12.862  10.150  0.0573 -0.1240 -0.1051
26217W        W46497  18.174   0.462   1.306  0.1805 -0.1329  0.0265
26218W        W46498   0.257   6.357   3.003  0.1025 -0.0912  0.0078
26219W        W46499  11.415   2.885  13.006 -0.4427 -0.2079  0.1495
26220W        W46500   1.586   9.844   0.135  0.0840  0.0589 -0.0555
26221W        W46501   9.750   6.244   4.183  0.0901  0.2164  0.2027
26222W        W46502   5.151   9.176   2.965  0.1842 -0.1608 -0.3074
26223W        W46503   4.195  10.176   1.051 -0.0962  0.3778 -0.1572
26224W        W46504  13.086  16.235  11.136  0.2844  0.3695 -0.0328
26225W        W46505  16.627  10.861   3.102  0.0619  0.0202  0.0428
26226W        W46506   6.524  13.612   1.189  0.1183 -0.0351  0.4893
26227W        W46507  12.864  16.461   2.704 -0.0844  0.0813 -0.2164
26228W        W46508  19.048  13.590  10.975  0.0351 -0.0265  0.1518
26229W        W46509   0.502  19.235  10.763 -0.1831  0.3052 -0.0618
26230W        W46510  10.410   1.795  13.108 -0.1839  0.0166 -0.1615
26231W        W46511  14.635   0.433   1.549  0.2405 -0.0940  0.0423
26232W        W46512   4.692  14.715   3.897 -0.2303  0.0695 -0.3414
26233W        W46513   9.938   7.547  12.990  0.2218  0.1188 -0.0925
26234W        W46514   5.704   8.255   2.613 -0.1410  0.1928  0.1382
26235W        W46515  10.510  13.510   4.378 -0.0464  0.0497 -0.4887
26236W        W46516   0.504   5.445   2.396 -0.1598  0.0732  0.2122
26237W        W46517  15.760   1.252  13.320  0.2810 -0.0208 -0.0381
26238W        W46518  17.407  15.651  11.450  0.2952 -0.2564 -0.0271
26239W        W46519  18.840  14.080   1.332 -0.1610  0.0837  0.0923
26240W        W46520  11.410  12.939  13.672 -0.0635 -0.0611  0.2566
26241W        W46521   8.701  16.782   1.359 -0.1003  0.1356  0.1968
26242W        W46522  18.761  16.061  10.338  0.3198  0.1655 -0.3124
26243W        W46523   8.766  17.066  11.699 -0.1759 -0.1126  0.1281
26244W        W46524   7.595   2.611  13.177 -0.0070  0.1600  0.0351
26245W        W46525   2.818  15.865   0.382  0.1839  0.1427 -0.1329
26246W        W46526   5.910   1.467   2.148 -0.0050 -0.0228  0.0817
26247W        W46527   2.500   1.923   1.245  0.0500 -0.1372  0.0649
26248W        W46528   8.163  10.470  12.958 -0.1837  0.2610 -0.2539
26249W        W46529  16.643   8.427   0.423 -0.0494  0.0934 -0.2227
26250W        W46530  12.510   0.245   1.398  0.0101  0.0288 -0.0057
26251W        W46531  16.039   1.677  13.531  0.1357 -0.1636 -0.0560
26252W        W46532  10.229  10.815  11.352  0.5830 -0.4065 -0.0555
26253W        W46533  18.158   7.162   2.306  0.0274  0.0732 -0.1103
26254W        W46534   5.705   5.453   3.462 -0.1621 -0.2523  0.0249
26255W        W46535  14.977   5.847  11.978 -0.2961 -0.1984  0.2607
26256W        W46536  13.161   3.513  11.705  0.1525  0.3052 -0.1452
26257W        W46537   1.622  13.335  10.758 -0.1564 -0.1968 -0.4189
26258W        W46538   3.011   8.772   0.426 -0.2979 -0.0531 -0.2472
26259W        W46539   2.752  16.522  13.519  0.0822 -0.0286 -0.1166
26260W        W46540   0.329   0.915   3.970  0.1139  0.0275 -0.0874
26261W        W46541   2.790   5.457  11.066 -0.0373 -0.0677 -0.1046
26262W        W46542  16.560  18.201   4.998  0.0708 -0.1897 -0.0238
26263W        W46543  14.803   9.704   0.404 -0.0373 -0.0344  0.0747
26264W        W46544   1.280  18.262  13.681 -0.0845 -0.0568  0.1785
26265W        W46545  17.830   0.438  13.015  0.3314 -0.0346  0.0559
26266W        W46546  17.931  12.713  11.214 -0.0438 -0.1468  0.1934
26267W        W46547   6.846  17.044   2.379  0.1066  0.2507  0.3398
26268W        W46548  16.892  16.854   0.610 -0.1377  0.1095 -0.1359
26269W        W46549  16.740  15.784   3.646 -0.2087 -0.0670 -0.0259
26270W        W46550  15.078   3.434   4.889  0.0008  0.0646 -0.2089
26271W        W46551  18.072  16.475   2.240  0.2889 -0.1109  0.2166
26272W        W46552   5.145  16.141  12.783 -0.1335 -0.1247  0.1109
26273W        W46553  10.362  15.290   1.004  0.0998 -0.0103 -0.2060
26274W        W46554  16.856   9.598  11.101 -0.0605 -0.2155  0.0306
26275W        W46555   1.488  18.978  10.653  0.1301 -0.0810  0.0390
26276W        W46556   7.228   0.049  11.339  0.0210  0.1887 -0.0404
26277W        W46557  14.723   7.297  12.941  0.1637  0.2481  0.1019
26278W        W46558   9.732  15.479  11.315  0.0740 -0.3611 -0.0790
26279W        W46559  17.647  13.392   3.794 -0.3029  0.3160 -0.0437
26280W        W46560   1.488   2.742   0.514 -0.1139  0.0406 -0.1051
26281W        W46561  15.432  12.975   2.680  0.0836  0.1186 -0.0293
26282W        W46562   5.114   1.539  11.708  0.1127 -0.2310 -0.0957
26283W        W46563  15.061   1.472  12.586  0.3188  0.0722  0.1076
26284W        W46564   8.341  15.420  11.510  0.5159 -0.1910  0.0486
26285W        W46565  10.539  15.807  10.715  0.1202  0.2450  0.1228
26286W        W46566   9.000   4.224  12.216  0.1472 -0.2860 -0.1178
26287W        W46567   7.746   0.997  14.065  0.2308  0.0048  0.2642
26288W        W46568   6.022   1.371  12.473  0.2415  0.0168 -0.1425
26289W        W46569  15.669   7.701  13.716 -0.0118  0.0125  0.0680
26290W        W46570   7.909  16.843  11.914  0.0582  0.3311  0.0537
26291W        W46571   2.799  12.013   1.349 -0.2553 -0.0303 -0.0131
26292W        W46572   8.536  11.763  10.223  0.1620 -0.2249 -0.2339
26293W        W46573   3.243   2.068  11.023 -0.0296  0.3429  0.2007
26294W        W46574  12.899   1.860   0.501  0.1175 -0.2454  0.1514
26295W        W46575   2.941   6.259  10.617  0.0910 -0.0831 -0.1075
26296W        W46576  14.520  12.183   1.812  0.0955 -0.2365  0.0352
26297W        W46577   8.625  14.646  11.048 -0.2323 -0.2722 -0.1668
26298W        W46578  16.397  13.460   0.631 -0.1287 -0.0348  0.1678
26299W        W46579  17.353  19.329  12.327  0.1214 -0.0043 -0.1689
26300W        W46580  14.636  15.861  10.453 -0.1632 -0.2915  0.2406
26301W        W46581   8.764  14.436   1.305 -0.0323 -0.1306  0.0733
26302W        W46582   2.438  11.056  12.901 -0.1198  0.0504  0.0849
26303W        W46583  13.621  13.866  12.445 -0.1770 -0.3324 -0.2669
26304W        W46584   0.822  15.459  13.082 -0.0775 -0.3618  0.1793
26305W        W46585  14.427   9.428  11.955  0.0758  0.0453 -0.3049
26306W        W46586  17.030   8.119   1.349 -0.1314  0.2834  0.1475
26307W        W46587   4.525  13.944  14.435  0.1059 -0.1974 -0.2135
26308W        W46588   2.821  18.702   1.145  0.0968  0.1173 -0.2686
26309W        W46589   8.857   7.162   2.566  0.0795 -0.1360  0.0403
26310W        W46590   5.541   8.838  10.174 -0.2948  0.0351  0.2253
26311W        W46591   8.992   0.852   2.786  0.0197  0.4255 -0.1817
26312W        W46592   6.316   9.429   9.737  0.1604  0.0359 -0.1690
26313W        W46593  18.366   5.218  13.242  0.0333  0.1518  0.1252
26314W        W46594  19.221   9.264   0.959 -0.3624 -0.3907  0.2441
26315W        W46595   4.519   7.799   2.636 -0.0835 -0.1353 -0.2004
26316W        W46596   4.401   3.771   3.299  0.0145 -0.1069 -0.4526
26317W        W46597  18.574  16.688   3.782  0.0527  0.3277  0.0593
26318W        W46598   9.710   1.956  12.111  0.1552  0.0538 -0.1994
26319W        W46599   4.856  14.998  11.247 -0.0671  0.1357  0.0134
26320W        W46600   7.339  18.827   4.005 -0.1821 -0.0368 -0.0766
26321W        W46601  13.043   1.986  12.917 -0.0704 -0.1009 -0.0246
26322W        W46602  15.514  11.309  12.618  0.0711  0.3881 -0.1709
26323W        W46603   8.143   8.419   3.717 -0.2114 -0.2978  0.2030
26324W        W46604  12.845  11.441  13.391  0.1828 -0.2500  0.0536
26325W        W46605   6.037   9.640  10.834  0.1830  0.1030 -0.0431
26326W        W46606   6.904   8.686  13.290 -0.0301 -0.0757  0.2155
26327W        W46607   5.231  15.612  11.711  0.1731  0.2244  0.1552
26328W        W46608   0.289   4.526   3.321 -0.0191 -0.0624 -0.1319
26329W        W46609   4.477  15.962  14.331 -0.2248  0.1664  0.0382
26330W        W46610   9.467  18.410  12.305 -0.0213 -0.0663 -0.0487
26331W        W46611  17.448   0.861   0.035  0.2838  0.0479  0.0163
26332W        W46612  15.478  15.202   1.683  0.0515  0.1100 -0.0255
26333W        W46613   3.213  11.441  12.350 -0.1617  0.0592 -0.1365
26334W        W46614  18.695   6.864   3.727  0.1369  0.0928 -0.2143
26335W        W46615   4.657  18.198  12.701  0.0023  0.0972 -0.2442
26336W        W46616  13.437  17.739   1.928  0.2760 -0.1273 -0.0123
26337W        W46617   0.472  12.708  14.216 -0.3195  0.1265 -0.0537
26338W        W46618   1.769   3.040  13.742  0.0563  0.1928 -0.0706
26339W        W46619  17.220   9.084   1.314 -0.2088  0.0805 -0.2738
26340W        W46620  13.240  17.099  14.250 -0.1594  0.0376  0.2069
26341W        W46621   9.923   1.268   1.613 -0.2970  0.0351  0.0576
26342W        W46622  14.020   2.716   3.246  0.1361  0.0224  0.5448
26343W        W46623   0.351  12.318   2.446  0.0844 -0.1477  0.1214
26344W        W46624   6.194  10.769  14.491 -0.0832  0.0366  0.1507
26345W        W46625  16.032   9.139   2.596 -0.1370 -0.0180  0.2530
26346W        W46626   3.019  16.575   3.139  0.0981  0.2576  0.3439
26347W        W46627  16.932  14.934  13.316  0.0401 -0.0666  0.0852
26348W        W46628   8.039  11.693  13.373  0.0001  0.2611  0.0712
26349W        W46629  10.427   9.480  14.318  0.0849 -0.0109  0.1105
26350W        W46630   6.862  16.305   3.122 -0.1852  0.0034 -0.1766
26351W        W46631   7.255  18.586  13.548  0.0034 -0.1260 -0.1600
26352W        W46632   1.783   6.065  13.699  0.1048  0.0974  0.0706
26353W        W46633  15.584   0.963  11.876  0.0806 -0.1437 -0.1564
26354W        W46634   8.691   3.358  11.925 -0.1542  0.1186 -0.1049
26355W        W46635  13.128  15.920   9.823  0.0095  0.2646  0.2747
26356W        W46636  13.012   2.636  11.128  0.3257 -0.0774 -0.1149
26357W        W46637   4.120   0.294   1.799  0.2995 -0.0248 -0.2071
26358W        W46638   8.258   4.744  13.247  0.2336  0.0247  0.0324
26359W        W46639  11.107  18.761  12.617  0.0140  0.1201 -0.0444
26360W        W46640  10.439  13.346   3.052  0.0318  0.1969 -0.2673
26361W        W46641  17.156   1.250  12.135  0.2048  0.0193 -0.1214
26362W        W46642   7.499   0.545   2.125 -0.2841 -0.0542 -0.1530
26363W        W46643   0.953   2.878   3.589  0.2501  0.0859  0.0312
26364W        W46644  13.540  13.002  11.277  0.0686 -0.1048 -0.1059
26365W        W46645  14.169   2.210  14.373  0.1259 -0.1959 -0.1989
26366W        W46646  15.438  11.426  10.366 -0.3232  0.1919  0.1169
26367W        W46647   2.230  15.421  10.499 -0.3955 -0.0044 -0.3697
26368W        W46648   9.240   1.729  13.718 -0.0287  0.1322 -0.1717
26369W        W46649   8.773   2.405   1.035  0.0823 -0.3977 -0.0248
26370W        W46650  15.656  12.882   1.975  0.2299 -0.1232  0.0418
26371W        W46651  15.423  17.082   0.435  0.1719 -0.1766 -0.2960
26372W        W46652  14.441   0.241  14.100 -0.0780  0.1218 -0.0598
26373W        W46653  10.827  14.826  12.132 -0.0865  0.2490  0.0436
26374W        W46654   5.018  13.634   0.732 -0.1164  0.3573 -0.3212
26375W        W46655  10.469   3.463   1.120 -0.0389  0.1129  0.1306
26376W        W46656   9.486  17.099   1.681  0.1431 -0.0538 -0.0841
26377W        W46657  17.144   9.086   2.845 -0.1373  0.0321 -0.1598
26378W        W46658  12.845   9.797   3.032  0.0129  0.2454  0.0392
26379W        W46659   4.742  10.682   3.334 -0.1903 -0.2302  0.1964
26380W        W46660  13.614  15.509   0.376 -0.0124  0.3192  0.1867
26381W        W46661  12.121   3.002   2.530 -0.0684 -0.0950 -0.2382
26382W        W46662   9.163  12.325   2.452 -0.1483  0.0504 -0.0768
26383W        W46663  14.710  18.549  11.302 -0.0142  0.1734 -0.1609
26384W        W46664   7.633  17.122  14.021 -0.0532 -0.1530 -0.0014
26385W        W46665  16.409   1.340  10.405  0.2952  0.0239  0.1550
26386W        W46666  11.485  12.513  14.391  0.0067  0.0691  0.1297
26387W        W46667   5.132  14.038   0.214  0.0958 -0.0059  0.0573
26388W        W46668   2.859  17.478  10.782 -0.1262  0.0931  0.2589
26389W        W46669  14.999   6.460   0.318  0.0858 -0.0208  0.0452
26390W        W46670  10.339  11.385   2.193  0.1467  0.2234  0.1346
26391W        W46671  10.036  14.215  10.568 -0.0140  0.0625  0.2582
26392W        W46672   9.440  13.757   3.685 -0.2525  0.3352 -0.0256
26393W        W46673   1.472  12.038   1.014 -0.3469 -0.0130 -0.2355
26394W        W46674  16.012   3.991   3.833 -0.0616 -0.0804 -0.2195
26395W        W46675  19.213   7.279  10.395  0.0461  0.2266  0.0286
26396W        W46676   8.776   3.823  11.729  0.1457 -0.3298 -0.2260
26397W        W46677  14.928   6.611  13.607  0.2225 -0.3808 -0.0162
26398W        W46678   7.642  10.043  12.826 -0.0077  0.1629 -0.0171
26399W        W46679   5.611   0.480  12.467 -0.1293  0.1939 -0.1600
26400W        W46680   0.901   5.823   1.993  0.1463  0.0624 -0.1558
26401W        W46681   5.698   8.706  11.110 -0.1555 -0.2137 -0.0150
26402W        W46682  13.641   9.626  10.572  0.1843  0.4227  0.2333
26403W        W46683  11.197   3.560  13.897  0.0474 -0.2255 -0.2751
26404W        W46684  17.036   9.063  11.097 -0.1815 -0.0388 -0.0969
26405W        W46685   2.382  14.826  11.115  0.1708  0.0122  0.0303
26406W        W46686  14.690  11.111   0.587  0.0989 -0.2038 -0.0198
26407W        W46687  19.038   5.695  12.356  0.1560 -0.3099 -0.2053
26408W        W46688   7.211   1.790  13.478 -0.2535  0.1562 -0.0224
26409W        W46689   5.425  15.561   2.071  0.3207 -0.2637 -0.2944
26410W        W46690  13.001   4.251   0.282 -0.0464  0.0081  0.1423
26411W        W46691  15.842  18.696   0.311  0.0078 -0.0086 -0.0474
26412W        W46692   2.599  18.134   2.430 -0.3408  0.1327 -0.1605
26413W        W46693   3.295  18.407   1.817 -0.3747 -0.1219 -0.1766
26414W        W46694   9.982  17.172   1.676 -0.0586  0.0840 -0.0279
26415W        W46695  11.856  13.979  12.526 -0.4039  0.1707 -0.0680
26416W        W46696  15.970   4.999  13.461 -0.0743 -0.3971 -0.1534
26417W        W46697   5.439   8.640   2.864  0.0241  0.0442 -0.1011
26418W        W46698  16.716  12.849   2.700  0.0758 -0.1792 -0.3200
26419W        W46699  19.214  12.655   0.317  0.1874 -0.0982  0.3353
26420W        W46700  12.219   3.509   0.465  0.0459 -0.0672 -0.0348
26421W        W46701   1.669  19.290  12.950  0.2551  0.3373  0.1959
26422W        W46702  10.581   9.616   1.454  0.1937  0.0350 -0.2970
26423W        W46703  19.159  16.193  14.235 -0.2466 -0.2576 -0.2019
26424W        W46704   3.011   7.350  13.652 -0.1520  0.1876  0.0824
26425W        W46705   6.432   5.692   0.507 -0.1351  0.3412  0.2080
26426W        W46706   2.900  13.090   0.192 -0.0921 -0.0320  0.1132
26427W        W46707  14.881   2.549   3.158  0.0208 -0.1209  0.0736
26428W        W46708  19.340   6.829   2.928 -0.1514  0.3787 -0.1276
26429W        W46709  18.924   2.997   9.907  0.2622 -0.1927 -0.1013
26430W        W46710   3.850  11.140   3.356  0.0312 -0.1414 -0.1044
26431W        W46711  14.898   2.258   2.117  0.3106  0.1866  0.0725
26432W        W46712   8.502   3.315  12.420 -0.2710 -0.0265  0.0899
26433W        W46713  15.092  10.153  14.002  0.0677  0.0806 -0.0076
26434W        W46714   0.493  11.641   3.066  0.0426 -0.1096  0.1849
26435W        W46715   7.539  13.008   3.141  0.1664 -0.5862 -0.3079
26436W        W46716   0.443   2.737   3.986 -0.0691  0.2955  0.1399
26437W        W46717   6.482   2.607  12.575  0.1890 -0.0614  0.1178
26438W        W46718   7.538  18.060   1.853 -0.1101 -0.2543 -0.0189
26439W        W46719  11.242  17.170   2.746  0.1862 -0.2384  0.1849
26440W        W46720  10.793  10.451  14.426 -0.1193  0.1347 -0.1195
26441W        W46721   2.248  13.350  11.790  0.0136  0.0294  0.1336
26442W        W46722   3.590  18.970   3.002 -0.1551  0.0096  0.2409
26443W        W46723   6.727  16.780   1.971  0.2479 -0.2211 -0.0164
26444W        W46724   4.577   3.455  11.719 -0.3519 -0.3455  0.3527
26445W        W46725  10.909   9.437   2.946  0.0432 -0.0759  0.0673
26446W        W46726  15.285   0.032   2.219 -0.1039  0.2059 -0.2214
26447W        W46727  17.750   0.454   0.094  0.0632 -0.0033 -0.2174
26448W        W46728  10.113   6.084  13.106 -0.1889  0.0994 -0.0824
26449W        W46729  10.409   8.252   1.171 -0.2107  0.0482  0.1656
26450W        W46730   3.368  16.027   1.047  0.5495  0.1854  0.2334
26451W        W46731  17.802  11.014   1.500  0.1870 -0.0541 -0.1221
26452W        W46732  17.795   2.682   3.637 -0.4827  0.0061 -0.1222
26453W        W46733  16.779   2.040   2.667  0.1336  0.0161  0.2061
26454W        W46734   0.073   4.398   1.154 -0.2525 -0.1553 -0.2219
26455W        W46735   4.328   5.821   0.866 -0.1420 -0.2884  0.4144
26456W        W46736   9.550  15.245   2.693 -0.1472 -0.0026  0.0836
26457W        W46737   6.426  11.005   5.226 -0.0326 -0.1733  0.3278
26458W        W46738   9.294   9.929  13.015  0.0254  0.3115 -0.2941
26459W        W46739   9.686  17.269   2.707 -0.2444  0.0156  0.0097
26460W        W46740   2.615   2.601   2.690 -0.0174 -0.0426 -0.0324
26461W        W46741   6.013  14.871  12.010  0.1185 -0.0646 -0.1662
26462W        W46742   0.628  11.282  12.551  0.3002 -0.1287 -0.1401
26463W        W46743  13.361  16.114  11.596 -0.2006 -0.1893  0.2487
26464W        W46744   8.042  18.729   0.088  0.1322 -0.0385  0.0620
26465W        W46745  18.774   3.971   2.562  0.0665  0.0989  0.0714
26466W        W46746   0.194   5.296   1.547 -0.1647 -0.1825 -0.0985
26467W        W46747   9.712  11.259  13.885 -0.1888  0.2490  0.1567
26468W        W46748   3.745   9.201  13.293  0.1061 -0.0751 -0.1680
26469W        W46749   0.446  17.064  10.510  0.4536  0.0756 -0.0763
26470W        W46750   5.576  14.208   2.657  0.1898 -0.1687  0.1045
26471W        W46751  16.352  16.105   4.939  0.2825  0.0283  0.1423
26472W        W46752   2.110   3.416   3.821 -0.0497  0.1663 -0.2407
26473W        W46753   1.776  17.945  13.822  0.0827 -0.6923  0.4177
26474W        W46754  15.796   9.622  13.565  0.0273 -0.1342 -0.6387
26475W        W46755  15.981   8.565  14.215  0.0398 -0.0256  0.1298
26476W        W46756  16.363   4.029   0.087  0.2898 -0.1018  0.0670
26477W        W46757   0.673   6.161   3.646 -0.2065  0.0278 -0.0305
26478W        W46758  11.707  12.631   0.944 -0.0725  0.0844 -0.2986
26479W        W46759   6.582  11.999   1.798  0.3597 -0.3864 -0.3224
26480W        W46760  11.681  11.469  10.673 -0.1052  0.1219 -0.0261
26481W        W46761  14.463  12.739  11.444 -0.4317 -0.1486 -0.2759
26482W        W46762  19.295  11.030   3.593 -0.2615 -0.0492  0.0601
26483W        W46763  13.087  12.072   1.896 -0.1261  0.0320  0.1382
26484W        W46764   5.890   1.199   1.340 -0.0903  0.0013  0.0915
26485W        W46765  15.315  14.797  12.677  0.2360  0.2189  0.0800
26486W        W46766   4.642   8.879   2.168  0.2190 -0.0712 -0.1548
26487W        W46767   5.122  15.224   1.287 -0.3247  0.3123  0.1609
26488W        W46768  12.481   3.776   2.936 -0.1896 -0.3863 -0.0361
26489W        W46769   4.370   9.247   3.867  0.0367 -0.0809  0.4048
26490W        W46770  16.773   0.416   3.920 -0.0669  0.4636 -0.1167
26491W        W46771  14.477   6.921  12.717 -0.0275 -0.1644 -0.1095
26492W        W46772   5.111   5.903   4.941 -0.2885 -0.1210 -0.0965
26493W        W46773   1.892   9.012   1.346  0.3421 -0.0514  0.0936
26494W        W46774  15.943   5.680  13.650 -0.1501  0.0746 -0.0416
26495W        W46775  17.935  11.224  11.179 -0.1152 -0.2241  0.0270
26496W        W46776  11.539   7.130  10.891  0.3355  0.0706 -0.0621
26497W        W46777  11.660  11.707   2.461  0.0375  0.0751 -0.1081
26498W        W46778   2.984  15.647  12.360 -0.1291  0.4113 -0.1382
26499W        W46779  10.796  17.654  12.031  0.2299  0.0262 -0.0528
26500W        W46780   8.235   4.592  14.113  0.0527  0.1275 -0.0732
26501W        W46781  15.019  16.840   0.707  0.1871 -0.1534  0.1896
26502W        W46782   8.799  11.376   2.902  0.0982 -0.0390  0.0289
26503W        W46783   9.993   9.887   0.223 -0.2780 -0.4110 -0.0783
26504W        W46784  17.936   1.623   0.609 -0.0623 -0.1669 -0.1172
26505W        W46785   4.199  17.563  10.295 -0.1508 -0.1952 -0.0500
26506W        W46786  14.421  17.025  11.974 -0.3505  0.2129 -0.0938
26507W        W46787   3.839  12.495  12.384 -0.3344 -0.1601 -0.1642
26508W        W46788   9.040   6.531  12.593 -0.2578  0.1423  0.1911
26509W        W46789  15.779   4.202   1.695  0.3494 -0.0884  0.2548
26510W        W46790  19.091  17.933  13.892 -0.0102  0.0223 -0.1610
26511W        W46791   7.042   8.104  10.856  0.0979  0.0668  0.2235
26512W        W46792  12.895  16.389  11.527 -0.1661 -0.0493  0.0730
26513W        W46793  11.072   7.223  10.579  0.1622 -0.0360 -0.3714
26514W        W46794  16.118  16.635   0.308  0.1610  0.0171 -0.2408
26515W        W46795   5.284   3.081   4.143  0.1148 -0.3506  0.0357
26516W        W46796  15.648  11.819   3.191  0.1874 -0.1779  0.0450
26517W        W46797   0.420   9.443   2.132 -0.4898 -0.2348  0.1490
26518W        W46798   8.107   1.411   1.939 -0.1050  0.0146 -0.0794
26519W        W46799   1.879   1.692   3.927  0.2025 -0.1236  0.1711
26520W        W46800   2.189  12.873  11.963 -0.1838 -0.0129 -0.0584
26521W        W46801  14.635  13.916  11.761  0.0793  0.0722 -0.0440
26522W        W46802  13.477  14.427   1.430  0.1739 -0.1502 -0.1113
26523W        W46803  13.073   6.872   0.832  0.0535  0.4811  0.2381
26524W        W46804   8.066   5.151   2.520 -0.0393  0.1770  0.1463
26525W        W46805  10.336   5.340   3.865  0.3798 -0.1500  0.2504
26526W        W46806   9.205  11.900   0.191  0.0907  0.1198  0.0314
26527W        W46807  19.018  15.603  11.006 -0.2348 -0.0647  0.0138
26528W        W46808  18.471   1.224  13.127  0.1246 -0.2777 -0.0467
26529W        W46809   5.835   3.617   3.424 -0.2512  0.1848 -0.0172
26530W        W46810  18.380   3.804  13.307  0.0835 -0.0988  0.1514
26531W        W46811  13.310   5.238   5.177  0.1709 -0.0895  0.0837
26532W        W46812  10.362  14.283   2.048 -0.2766  0.2757 -0.2497
26533W        W46813   7.638   1.028   0.712  0.1585 -0.3462 -0.1215
26534W        W46814  17.371   6.960  12.917 -0.1773  0.0645 -0.2497
26535W        W46815   1.190   8.151   2.893 -0.0779 -0.3992 -0.0745
26536W        W46816   3.732  13.782   0.614  0.1509 -0.2713  0.4160
26537W        W46817   4.965  16.260  11.982 -0.0879  0.3287  0.0477
26538W        W46818  13.119  18.479   3.455 -0.1455 -0.0186 -0.0569
26539W        W46819  17.782   7.148  13.875  0.2483  0.2091  0.1726
26540W        W46820   5.605   2.793   3.341  0.0807 -0.3360 -0.1569
26541W        W46821  16.911  19.346  11.593  0.2379 -0.1051 -0.0835
26542W        W46822  18.714   6.381  12.525  0.1870 -0.0031 -0.0836
26543W        W46823   4.564   6.093  13.970  0.0894  0.2646  0.0393
26544W        W46824  13.072   6.167   2.778 -0.2776  0.1853  0.0880
26545W        W46825   6.033   6.861  13.488 -0.1852 -0.2285 -0.4029
26546W        W46826  17.627  16.629  12.779  0.0232  0.1847  0.2828
26547W        W46827  17.699  18.782  12.189 -0.1360  0.1972 -0.2041
26548W        W46828   3.942  12.524  11.408  0.0542  0.0607  0.0674
26549W        W46829  18.249  14.920  11.494  0.0231  0.3956 -0.0401
26550W        W46830   8.806  16.605  11.479 -0.2509 -0.0531  0.0511
26551W        W46831   6.635   3.815   9.803  0.2789  0.4082 -0.0920
26552W        W46832   7.593  12.103  11.047 -0.3350  0.2458 -0.2754
26553W        W46833  17.825   2.131   2.403 -0.1783 -0.0783 -0.1790
26554W        W46834  11.370  11.516  12.488  0.0276 -0.1458 -0.0976
26555W        W46835   8.084   4.137   2.399 -0.2400 -0.1662  0.3997
26556W        W46836  16.025  16.175   0.431 -0.3922  0.3220  0.2117
26557W        W46837   4.557  12.777  10.900 -0.0979  0.0048 -0.1549
26558W        W46838  11.533   9.102  11.054 -0.1987  0.1004 -0.0806
26559W        W46839  13.982   8.382   9.393  0.1120 -0.0966  0.0153
26560W        W46840   2.435  18.417  12.066  0.1997 -0.0478  0.0733
26561W        W46841  18.974  10.913  10.087  0.1687  0.0430  0.0924
26562W        W46842  18.950  10.953   2.356 -0.0090 -0.2535 -0.1311
26563W        W46843   1.161   7.213   2.413 -0.0856  0.1464 -0.0334
26564W        W46844   4.730   1.154  11.903  0.0900  0.1658  0.1836
26565W        W46845  11.083   4.670  14.446 -0.0339  0.0131  0.0791
26566W        W46846  16.222  19.398  13.822 -0.0720 -0.1533  0.0637
26567W        W46847  11.606   8.575  14.080 -0.1379 -0.0788 -0.0671
26568W        W46848   1.066  10.009  10.459  0.0264  0.0244  0.0320
26569W        W46849   3.332  12.649  12.681  0.0608  0.2139  0.1521
26570W        W46850  13.893  13.921   2.144 -0.2061 -0.3258 -0.2086
26571W        W46851  13.789   2.856  12.077 -0.2072  0.2826  0.0447
26572W        W46852   9.419  14.404   0.063 -0.0296  0.1514 -0.0713
26573W        W46853  14.169  10.975   2.571 -0.0730  0.0875 -0.0375
26574W        W46854   0.417   3.017   2.482 -0.0138 -0.0458 -0.2749
26575W        W46855  15.598   9.684   9.936  0.0751  0.2202 -0.2595
26576W        W46856  14.789   1.350   3.269  0.1090 -0.2244  0.1038
26577W        W46857   6.734   7.552   3.355 -0.2122 -0.1535 -0.5309
26578W        W46858   3.459  13.150   1.415  0.1385 -0.0863  0.0667
26579W        W46859   2.355   8.143   3.668  0.1946 -0.2130 -0.6324
26580W        W46860  17.809  12.214   3.734 -0.0511  0.0166 -0.3405
26581W        W46861   0.776   0.534   1.330 -0.0422 -0.0913 -0.2633
26582W        W46862  18.336  11.636  11.157  0.1246 -0.1643  0.2179
26583W        W46863  18.615   1.970  13.907  0.2194 -0.1064  0.3069
26584W        W46864   4.491   6.147  11.938  0.1402  0.3198 -0.1543
26585W        W46865  11.895   0.683  13.607  0.1209  0.1439  0.2782
26586W        W46866  10.672  12.180   4.370  0.1417  0.5454 -0.0103
26587W        W46867  15.770   2.563   2.276 -0.0140  0.0081 -0.0808
26588W        W46868  19.088   8.081  11.130  0.0847 -0.2209 -0.1994
26589W        W46869   6.005   1.431  13.489  0.0133  0.1435 -0.0645
26590W        W46870   9.645   1.941   1.543 -0.0417  0.3169  0.1302
26591W        W46871   4.767   9.027   1.200 -0.2986  0.1880  0.3683
26592W        W46872   4.857   3.695  12.938 -0.2140 -0.1708  0.1383
26593W        W46873   8.539   5.250  13.178 -0.0854  0.2206  0.2675
26594W        W46874   2.247  16.420  12.879 -0.2731  0.2241  0.0064
26595W        W46875   2.827   2.804   0.050  0.1178 -0.1096 -0.1426
26596W        W46876  16.007  12.007   1.805  0.0527 -0.1298  0.4630
26597W        W46877  16.107  18.793  12.062 -0.0633 -0.1967 -0.1423
26598W        W46878   2.407  16.061   1.060  0.0254 -0.0643 -0.2721
26599W        W46879  18.787   5.311   0.955  0.2169  0.1080 -0.0453
26600W        W46880   3.126   8.382  10.720  0.2022 -0.3876  0.2155
26601W        W46881   4.924  12.085   1.811 -0.0072  0.2122 -0.1742
26602W        W46882  17.958  15.314   0.991 -0.2356  0.2580  0.2515
26603W        W46883  19.250  15.568   3.229  0.1313  0.2246  0.1412
26604W        W46884  13.549  12.825   1.915 -0.1503 -0.3247  0.1422
26605W        W46885   8.138   7.099  12.384 -0.1224  0.0877  0.0779
26606W        W46886   8.101  13.126  11.616  0.2646 -0.0368  0.0070
26607W        W46887  18.754   5.766   3.867 -0.0951 -0.0703  0.0325
26608W        W46888   9.614   4.879   1.865 -0.1588 -0.0439  0.0227
26609W        W46889   7.661   1.410   3.030  0.0944 -0.3057 -0.0489
26610W        W46890   2.447  13.716  12.089  0.0444  0.0890  0.1187
26611W        W46891   5.500  17.623  11.114 -0.0910 -0.1388  0.0273
26612W        W46892   6.464   6.739  13.665  0.1589  0.1023 -0.0192
26613W        W46893  15.505   7.865   2.067 -0.1686 -0.2541 -0.0547
26614W        W46894  13.681  17.485   4.872  0.2078  0.0624  0.1306
26615W        W46895   1.531   6.926   0.155  0.0631  0.2066  0.2854
26616W        W46896  14.536  11.463   0.973  0.5075 -0.2419 -0.0574
26617W        W46897  11.511   1.260   4.397 -0.1111 -0.1427 -0.1910
26618W        W46898  12.363  17.762   0.691  0.0309 -0.3316 -0.1101
26619W        W46899   2.210   2.188   1.589 -0.1409 -0.5369 -0.0967
26620W        W46900  18.456   7.210   9.168  0.3099 -0.1321  0.0564
26621W        W46901  16.425   3.811  11.416  0.0023  0.2493  0.2818
26622W        W46902  12.992   3.411   0.852  0.0614 -0.0194 -0.2027
26623W        W46903  17.577   9.078   3.708 -0.1531  0.1528  0.2941
26624W        W46904  10.886   9.095   1.394  0.1449  0.0889 -0.0501
26625W        W46905  13.554   0.355   0.585  0.1690 -0.2560  0.1816
26626W        W46906   3.040  19.250  14.294  0.2787 -0.2543 -0.0160
26627W        W46907   4.802   3.207  12.798  0.0670 -0.0213  0.3707
26628W        W46908  12.443   8.646  10.745  0.0180  0.3700 -0.2553
26629W        W46909  15.605   1.920   3.567  0.1988 -0.2796  0.1674
26630W        W46910   4.377   5.195  14.043  0.1081  0.2226 -0.0903
26631W        W46911   0.727   6.889   2.362  0.0017  0.1336  0.2677
26632W        W46912  11.355   3.488  11.880 -0.1817  0.1775  0.1529
26633W        W46913  17.470  12.028  10.556  0.2104 -0.0072  0.2069
26634W        W46914  14.457  15.802   0.541  0.3158  0.0895  0.1268
26635W        W46915   4.496  17.300   1.514  0.0101 -0.1287 -0.0891
26636W        W46916  17.342  11.888   9.495 -0.1960  0.5796  0.2507
26637W        W46917  10.975   6.333   1.650 -0.1295  0.3977 -0.2693
26638W        W46918  13.757   3.470   0.188 -0.0200 -0.0243 -0.4199
26639W        W46919   4.839  13.396   2.957 -0.1797  0.1088  0.2810
26640W        W46920  12.214   9.032  10.476  0.0797  0.1809  0.1581
26641W        W46921   4.912   7.073  14.168  0.0516 -0.0762  0.2891
26642W        W46922   6.102  11.200   1.750  0.2676  0.0516  0.3074
26643W        W46923  10.674   8.948   2.823 -0.2605  0.0687  0.1523
26644W        W46924   3.494   5.068  13.400 -0.2525 -0.1437  0.0697
26645W        W46925  16.714   5.901  12.122 -0.0317 -0.1421 -0.0087
26646W        W46926   6.297  16.205   3.852  0.1961  0.4562  0.1101
26647W        W46927   2.053   8.609  14.245  0.2183 -0.0316 -0.0008
26648W        W46928  14.385   6.564   1.089 -0.3326 -0.2021  0.0009
26649W        W46929  12.161   0.179   3.548 -0.0773  0.2416  0.1024
26650W        W46930   6.556  13.458   1.726  0.2015  0.0731  0.2995
26651W        W46931  13.447  16.491  14.186  0.1196 -0.0997  0.6533
26652W        W46932   7.379   3.685   1.125  0.2239 -0.1334 -0.0891
26653W        W46933   9.047   5.853   1.934 -0.2067 -0.1197  0.0187
26654W        W46934  10.840  17.558   3.603  0.2310  0.1304 -0.1514
26655W        W46935   1.035   1.066  12.855 -0.0596 -0.0948 -0.2995
26656W        W46936   7.445   4.609  12.392 -0.4445 -0.1682 -0.0199
26657W        W46937  10.443   3.184  12.870 -0.1882 -0.3738  0.3370
26658W        W46938   7.966  13.808  14.395  0.0559  0.3014 -0.0031
26659W        W46939   2.629  11.335  11.553 -0.0057 -0.1050 -0.1152
26660W        W46940   5.544  11.770   1.103  0.2068 -0.0071  0.3071
26661W        W46941   7.532  10.910   3.555 -0.0586  0.3067  0.0999
26662W        W46942  18.279   1.126   0.422  0.5581 -0.2187 -0.0218
26663W        W46943   6.499   9.935   3.087 -0.1023 -0.1343  0.1276
26664W        W46944   7.389   6.834  14.212  0.1693 -0.0629 -0.0491
26665W        W46945  11.511   5.162   1.902  0.0625  0.2533  0.2314
26666W        W46946  14.869   3.114  11.824  0.1994 -0.1005 -0.1117
26667W        W46947   5.938   8.613   3.160  0.1696 -0.0877  0.1024
26668W        W46948  14.778   2.445   4.021  0.0270 -0.1266  0.0821
26669W        W46949   3.121  13.316   2.705 -0.0425 -0.2368  0.1161
26670W        W46950  10.565   7.686   5.134 -0.1574  0.2019 -0.2089
26671W        W46951   2.446  17.455   2.949  0.3000  0.3453  0.0402
26672W        W46952   8.089   1.415   0.614  0.1365 -0.0105 -0.0844
26673W        W46953  18.078  17.362   0.022 -0.1053 -0.2497  0.1806
26674W        W46954   3.138   8.932  12.999 -0.1190 -0.2280 -0.3703
26675W        W46955  11.209   9.799  13.857  0.1087 -0.0243  0.1383
26676W        W46956   5.341  13.427  14.468  0.0295  0.2730  0.3032
26677W        W46957  13.460   8.465  11.721 -0.2061  0.0333 -0.1140
26678W        W46958   5.201   6.104  11.428  0.1462  0.1156  0.0956
26679W        W46959  16.626  17.065   3.887  0.2575  0.0163  0.1870
26680W        W46960  18.370  10.059   4.332  0.4145 -0.0593 -0.0464
26681W        W46961   5.524  15.532  10.898  0.1511  0.2141  0.1211
26682W        W46962  10.939   0.613  12.617  0.1826  0.4580  0.2256
26683W        W46963   0.292  11.241  13.888  0.1515  0.0312  0.0531
26684W        W46964   8.544   8.510   4.760 -0.2211  0.1383 -0.1931
26685W        W46965  14.911  15.314   2.492 -0.0164  0.0712 -0.2777
26686W        W46966   3.856   5.704   0.794  0.1120 -0.0527  0.2538
26687W        W46967   1.807   3.492  13.488 -0.0413  0.2380  0.0323
26688W        W46968  15.320  12.572   0.449  0.0228  0.2343 -0.1148
26689W        W46969   4.367   3.895  11.599 -0.2613 -0.1559  0.0542
26690W        W46970  10.758   1.987  10.322  0.1648 -0.2146  0.0210
26691W        W46971   0.770   4.537   3.565 -0.1771  0.1488  0.1059
26692W        W46972   0.260   1.223  11.394 -0.2307 -0.4343  0.1805
26693W        W46973  16.737   5.010  12.752  0.2609 -0.1578 -0.1839
26694W        W46974  16.428   7.530  13.177 -0.1559  0.1256 -0.1134
26695W        W46975   0.479   8.010  11.380 -0.2380  0.2349  0.1694
26696W        W46976   0.417  14.825   0.386  0.3581 -0.3346  0.3638
26697W        W46977   3.683  17.892   4.179 -0.1414  0.1273  0.2275
26698W        W46978   4.553   0.648   1.501 -0.0322  0.0193 -0.2082
26699W        W46979  11.529  17.285   1.002 -0.2004 -0.0042  0.0667
26700W        W46980   0.372  18.466  11.570  0.2488  0.1629  0.1901
26701W        W46981  17.159   5.803  13.977 -0.0058  0.0051  0.2117
26702W        W46982   8.601  16.562   3.591  0.0744  0.6374 -0.0403
26703W        W46983  16.356  11.131  11.538 -0.1906  0.1052 -0.1392
26704W        W46984  17.690   6.322   0.927 -0.1313 -0.0714  0.1413
26705W        W46985   3.915  15.309   1.016  0.2040  0.2058 -0.0770
26706W        W46986  13.201  14.795   3.756 -0.0700 -0.1598  0.1585
26707W        W46987   2.974  10.935  13.004  0.4082  0.2051 -0.0281
26708W        W46988   1.445  19.323  11.770 -0.0713 -0.1584 -0.1241
26709W        W46989  18.229   4.062  14.397 -0.0518  0.1714  0.1455
26710W        W46990  14.535  14.556  13.842 -0.2544  0.0825  0.4065
26711W        W46991   6.117   0.897  11.803 -0.1025 -0.1853 -0.3063
26712W        W46992  10.694   3.004  11.984  0.0066 -0.2771  0.0270
26713W        W46993   4.986   8.897  12.789  0.0686  0.3415  0.0805
26714W        W46994  11.165   2.838   0.945 -0.0076  0.1585 -0.1181
26715W        W46995   8.220  13.010  13.244  0.0647 -0.1022  0.3797
26716W        W46996  15.505   0.105  11.953  0.0800 -0.1582 -0.3254
26717W        W46997   2.446  10.137   2.996  0.2403  0.3963 -0.1278
26718W        W46998  16.875  10.468   0.892 -0.0080  0.0849  0.1876
26719W        W46999   5.809  16.404   4.003  0.2024  0.1575 -0.0481
26720W        W47000   4.404  11.624   2.721 -0.2735 -0.0125  0.2054
26721W        W47001  17.951  18.690   1.143  0.2024  0.1367 -0.2286
26722W        W47002   3.539  16.981  11.192  0.0776  0.0663  0.1299
26723W        W47003  18.093   1.659   2.360  0.1408  0.0657 -0.5277
26724W        W47004  15.638  15.099  13.349  0.0627 -0.3016 -0.0293
26725W        W47005  18.271  10.418   2.086  0.0241  0.1613 -0.2495
26726W        W47006  10.244  17.226   0.214 -0.0315 -0.4318  0.0432
26727W        W47007   6.259   2.774   1.763 -0.0294 -0.0125  0.0611
26728W        W47008   4.731   8.922   1.689 -0.3105 -0.0911 -0.3074
26729W        W47009   2.055  13.853  11.730 -0.2842 -0.0022  0.0260
26730W        W47010  11.978  16.406   2.549 -0.1287  0.1732 -0.0187
26731W        W47011   2.530   3.008  13.138 -0.0019 -0.0984 -0.1058
26732W        W47012  16.353  17.424  10.388 -0.1507  0.0579 -0.0121
26733W        W47013   4.609  12.291  11.171 -0.1612 -0.2117 -0.0957
26734W        W47014  16.220  11.761  10.911  0.0566  0.1232  0.2300
26735W        W47015  19.207  13.912  13.099  0.1562  0.0166 -0.1601
26736W        W47016   0.426   1.655   2.274 -0.4191 -0.2646  0.0422
26737W        W47017   3.227   4.073   0.489 -0.1176 -0.2361  0.0445
26738W        W47018  17.225  10.533  12.073  0.3567  0.2115 -0.1647
26739W        W47019   4.425  16.430   2.319  0.2770  0.2785 -0.0122
26740W        W47020   0.673   5.482  13.085  0.1526 -0.3688 -0.1451
26741W        W47021  12.741   5.085   4.404 -0.0182 -0.0070  0.0967
26742W        W47022   4.271  10.067   1.582  0.0029  0.0309  0.0007
26743W        W47023  11.857  11.149  14.112  0.1395  0.0364  0.0133
26744W        W47024  14.630  16.334   0.553  0.0718 -0.1008  0.1983
26745W        W47025   7.342   2.319  13.669  0.0647 -0.1073  0.1063
26746W        W47026  11.218   8.836   4.109 -0.5644  0.2863  0.1598
26747W        W47027  19.114   5.906   3.554 -0.0241  0.0012  0.0780
26748W        W47028   3.016   7.914   0.545  0.1167 -0.1432  0.1382
26749W        W47029   9.813  12.654   4.125  0.1746  0.1308 -0.3908
26750W        W47030  17.910  16.242  13.891  0.0682 -0.0638 -0.2764
26751W        W47031   5.214   4.889  12.018 -0.2116  0.1847 -0.0292
26752W        W47032   9.761   9.088  12.990  0.2264 -0.2858  0.0718
26753W        W47033   6.674   5.181  11.958 -0.0089 -0.0256 -0.2757
26754W        W47034   4.726   9.835  10.532  0.0583  0.1451  0.1927
26755W        W47035   0.289  10.272   0.021 -0.0781  0.1749 -0.0806
26756W        W47036  17.531   4.900  14.284  0.0759 -0.2161 -0.1835
26757W        W47037   6.968   5.638   2.500 -0.0484 -0.2477  0.0958
26758W        W47038  19.172  10.906  11.501  0.1195  0.2549  0.0646
26759W        W47039  17.379  14.529   0.397  0.2662 -0.0549  0.1848
26760W        W47040  10.097  14.862   1.088 -0.2325 -0.2410  0.1836
26761W        W47041   6.474  15.116   1.617 -0.2417  0.0383 -0.0005
26762W        W47042   8.447   4.821  13.679  0.2063  0.1272  0.1037
26763W        W47043  10.358   8.055  13.725 -0.2824 -0.1307  0.0358
26764W        W47044   6.034   6.525  13.910  0.0321  0.0243 -0.1923
26765W        W47045   6.428  18.270  11.896  0.0682  0.1667 -0.2633
26766W        W47046   5.294  16.395  11.580  0.0794 -0.1095 -0.2125
26767W        W47047   4.980  18.262   1.494 -0.0844 -0.0597  0.1796
26768W        W47048   1.713  16.104  11.078 -0.2336  0.0295  0.0032
26769W        W47049   6.703   5.857  13.409 -0.2534 -0.1222  0.2768
26770W        W47050  15.791  12.723  12.678  0.0591  0.1429  0.0236
26771W        W47051  15.278  17.423  14.049  0.3700 -0.0808  0.0458
26772W        W47052   7.981   5.158  10.711  0.0050  0.0382 -0.0512
26773W        W47053  17.738   7.719   1.498  0.1089 -0.1634 -0.0344
26774W        W47054  11.241  15.935   0.960  0.1209  0.1837 -0.0992
26775W        W47055  13.992  11.806   4.266 -0.1249 -0.3776  0.0930
26776W        W47056   3.555   5.107  11.304  0.0646 -0.2891  0.0064
26777W        W47057   3.888   8.679   3.338  0.0895 -0.3168  0.1971
26778W        W47058   1.372  15.321  12.282  0.0915  0.6058  0.2849
26779W        W47059   1.055  11.106  12.287  0.2269 -0.0782  0.4568
26780W        W47060   5.578   6.362  11.193 -0.0200  0.2096 -0.2673
26781W        W47061   5.564  12.459   1.063 -0.2502 -0.2074 -0.2861
26782W        W47062   9.452   8.307  10.602  0.1595 -0.1190  0.2189
26783W        W47063  10.191   4.278   0.468  0.1130 -0.2360 -0.0977
26784W        W47064   4.119  18.465  10.892  0.2454  0.0322 -0.2832
26785W        W47065  15.384   6.688  13.011  0.1283 -0.3354  0.1540
26786W        W47066   4.015  13.572  12.267  0.0584  0.2629  0.1054
26787W        W47067   8.409  17.734  10.805 -0.0692  0.0674  0.3286
26788W        W47068  15.248   4.036  12.012  0.1065 -0.0188 -0.1592
26789W        W47069   7.238   6.204  11.976  0.0952  0.0307 -0.3212
26790W        W47070  15.784  18.692   3.857 -0.4532 -0.3782  0.1822
26791W        W47071  15.534   7.333  13.282  0.2930  0.0893  0.5406
26792W        W47072  17.172  14.264  10.865 -0.0547  0.0470  0.1951
26793W        W47073   0.670   8.302  11.871  0.0698 -0.0690 -0.1430
26794W        W47074   0.489  10.722  13.076 -0.2582 -0.0558  0.0066
26795W        W47075   4.381  12.636  11.962 -0.1580  0.1024 -0.0160
26796W        W47076   7.386   8.407   2.023  0.1498  0.0483 -0.1518
26797W        W47077  18.978   2.111  13.479  0.2441  0.1208 -0.0770
26798W        W47078  11.480  17.881  12.802  0.1463 -0.1174  0.2344
26799W        W47079   5.216  15.434   2.549 -0.1260  0.0569  0.1530
26800W        W47080   6.862   6.426  12.323  0.1359 -0.2704 -0.2846
26801W        W47081   2.412   2.553  11.513  0.2138  0.4157 -0.2439
26802W        W47082  12.247  11.837  11.021 -0.2329  0.2745 -0.0427
26803W        W47083  11.418   5.139   4.839 -0.1319  0.3414 -0.3353
26804W        W47084  13.719   6.572  13.300  0.1334  0.0680  0.0592
26805W        W47085   9.023  14.419  12.081  0.0540 -0.1255 -0.0241
26806W        W47086   1.580  12.049   0.509 -0.0677  0.1978 -0.0912
26807W        W47087  14.588  17.573  13.170  0.2273 -0.0543 -0.1861
26808W        W47088   2.207   4.059   0.065  0.5075  0.1448  0.0761
26809W        W47089  18.176  10.231   0.074 -0.1006  0.1826  0.2118
26810W        W47090  18.786  17.135   2.395 -0.0183 -0.3752  0.0635
26811W        W47091  18.465  17.470  10.850 -0.4401  0.3259  0.0384
26812W        W47092   6.955  12.183   1.208  0.0573  0.1010 -0.0478
26813W        W47093  17.503   5.896   2.770  0.2708  0.0227 -0.0715
26814W        W47094  10.906   5.065   4.881 -0.0422 -0.0566 -0.3929
26815W        W47095   3.015   7.692  11.271  0.2521  0.2081 -0.1050
26816W        W47096  15.155  13.725   2.302  0.2143  0.0177  0.1274
26817W        W47097   9.832   2.787   1.319 -0.0161  0.1846  0.1838
26818W        W47098   8.242   9.351   0.284 -0.1725 -0.1526 -0.0612
26819W        W47099   3.320   3.730   3.386 -0.0636 -0.0864  0.1043
26820W        W47100  17.026   2.378  14.230 -0.1014  0.0790 -0.0014
26821W        W47101  17.630   1.688  14.470 -0.0872 -0.0036 -0.0362
26822W        W47102   2.457  12.425   2.031  0.1561  0.1522  0.0869
26823W        W47103   7.632  12.838  11.662  0.0304  0.2567 -0.0307
26824W        W47104   1.654   6.604   4.393  0.0544 -0.2567 -0.0048
26825W        W47105  16.453  14.000   2.392  0.1994 -0.0034  0.1134
26826W        W47106   2.249  17.872  13.636  0.1309 -0.1407  0.2111
26827W        W47107  10.829  17.295  12.879  0.2013  0.1316 -0.0322
26828W        W47108   8.787   6.996  10.939 -0.2553 -0.0297  0.0305
26829W        W47109  15.545  13.736   3.747 -0.1223 -0.0882  0.1165
26830W        W47110   5.498   4.972  14.254 -0.0364 -0.0875 -0.0731
26831W        W47111  17.091  16.861   3.707  0.1056 -0.2178 -0.2616
26832W        W47112   9.763   2.389  10.689  0.0706  0.2684  0.0476
26833W        W47113   1.488   3.492  13.849 -0.3784  0.1330  0.3821
26834W        W47114  14.893  12.500  11.698 -0.1954  0.1714 -0.1010
26835W        W47115  16.725  12.348  12.997  0.1367 -0.1741 -0.1862
26836W        W47116   3.703   6.204  13.072  0.0341 -0.1342 -0.2066
26837W        W47117   4.339   0.657   2.826  0.1902 -0.3607  0.0199
26838W        W47118   9.285   5.075   3.192 -0.3195  0.2266  0.0403
26839W        W47119  10.268   4.307   2.148 -0.0606  0.1433 -0.3521
26840W        W47120  14.281   3.908   0.803  0.0676  0.0544 -0.1340
26841W        W47121   5.139   0.765   0.202 -0.0592 -0.0201 -0.3043
26842W        W47122   6.795  13.611  11.036  0.4688 -0.1345  0.0240
26843W        W47123   6.492   2.451  13.399 -0.2888 -0.2285  0.0058
26844W        W47124   8.728  15.125  14.125  0.0926  0.2594 -0.0352
26845W        W47125  13.131   2.206  10.852  0.2926  0.0227  0.2566
26846W        W47126   3.295   8.140  11.126 -0.0110  0.3276 -0.0793
26847W        W47127  18.474   9.652  10.022 -0.1872 -0.1206 -0.0084
26848W        W47128  12.256  14.397  10.884  0.3169 -0.0078 -0.0342
26849W        W47129   1.918   1.984   1.192  0.0387 -0.1548  0.2754
26850W        W47130  13.029  10.983  12.649  0.0421 -0.3507  0.1378
26851W        W47131  15.864   4.188  10.715 -0.1747  0.2204 -0.0717
26852W        W47132  13.604   5.751   4.354 -0.0813  0.0885 -0.0283
26853W        W47133  12.410  10.390  13.938  0.3203  0.3271 -0.0242
26854W        W47134  16.822  15.883   2.757 -0.1923 -0.2307  0.0455
26855W        W47135  12.215   4.802   1.276  0.1122  0.1383  0.1740
26856W        W47136   3.069  18.391  13.354  0.0426 -0.0670  0.1535
26857W        W47137   5.115   4.605  11.109 -0.0399  0.1012 -0.2403
26858W        W47138   6.423  17.173  12.862  0.0200 -0.2234 -0.1011
26859W        W47139   1.950   1.337   0.659  0.1731 -0.0162 -0.0500
26860W        W47140   5.139  10.290   9.217 -0.1965  0.0651 -0.2285
26861W        W47141  15.434   6.372   2.773 -0.0196 -0.2360  0.2940
26862W        W47142   9.307   4.220  11.755  0.0168 -0.4777 -0.0561
26863W        W47143   8.489  15.676  10.791 -0.1542 -0.1385  0.0229
26864W        W47144  13.172  17.395   0.830  0.1314  0.0266  0.0403
26865W        W47145  16.677   7.056  11.467  0.2854  0.2033  0.0052
26866W        W47146  11.077  17.712  13.099 -0.2302  0.0829  0.3205
26867W        W47147   8.360   7.683   1.683 -0.2280 -0.1756 -0.1580
26868W        W47148   5.985  13.115  14.480 -0.1878  0.2952 -0.1866
26869W        W47149  11.899  11.125   2.962  0.1767  0.5569 -0.1522
26870W        W47150   2.041  18.307   2.385 -0.4729  0.1478 -0.3830
26871W        W47151  19.034   7.648   3.664  0.0440  0.1061 -0.0673
26872W        W47152  17.281  15.386   4.212  0.2234 -0.0960  0.3794
26873W        W47153  15.115  12.910  13.346 -0.0429 -0.0638 -0.1457
26874W        W47154  12.969  14.737   3.299 -0.0340  0.0421 -0.0544
26875W        W47155   9.384  10.312   1.604  0.0110  0.3143 -0.1254
26876W        W47156   0.611  14.148  12.760  0.1947  0.3306 -0.1160
26877W        W47157  14.232   1.139  12.875  0.1602 -0.0882 -0.0438
26878W        W47158   1.426  12.737   0.141 -0.3294  0.1976 -0.1746
26879W        W47159   3.163  10.514  12.819  0.0425 -0.1094  0.0761
26880W        W47160  16.468   5.763  10.919 -0.1998 -0.1649  0.1464
26881W        W47161  16.715  14.912   0.660 -0.1227  0.1221 -0.1250
26882W        W47162  12.025  16.690   0.347 -0.1584  0.1749  0.0179
26883W        W47163   3.125   1.555   3.959 -0.0030  0.0589 -0.1084
26884W        W47164  16.531   9.902  13.722  0.2253 -0.1054 -0.1150
26885W        W47165   3.071  11.897   3.425  0.3785  0.1515  0.1902
26886W        W47166  11.491   9.273  12.716  0.2594  0.1390  0.0648
26887W        W47167  16.524   5.493  10.395  0.0562 -0.0239  0.2844
26888W        W47168  17.984   5.743   2.238  0.4099  0.0233  0.0325
26889W        W47169   5.026   8.150  10.492 -0.1699 -0.5253 -0.0626
26890W        W47170  14.074   1.321  13.355 -0.1834  0.4640  0.3274
26891W        W47171   5.583  16.174  13.127 -0.0891 -0.1884  0.1428
26892W        W47172  11.341  10.369  11.602 -0.0916  0.0127 -0.0169
26893W        W47173  12.597  14.356  11.981  0.0219 -0.2390 -0.3607
26894W        W47174  19.197   8.789  11.388  0.1301  0.1603  0.1131
26895W        W47175   6.677   2.247  11.796 -0.2628 -0.2009  0.2553
26896W        W47176  16.568   8.617  14.300 -0.0431 -0.3037 -0.0948
26897W        W47177  15.259  16.839   3.835  0.0727 -0.0014  0.3020
26898W        W47178   7.094   3.638  10.664  0.2510  0.0810  0.2578
26899W        W47179   8.122  12.787  11.951 -0.1408  0.0784 -0.1586
26900W        W47180  12.353  11.105   4.294 -0.1465 -0.1836  0.2745
26901W        W47181   9.470   7.504  13.825  0.2380  0.0772  0.0037
26902W        W47182   4.029   7.565   2.562  0.1681  0.0023  0.4183
26903W        W47183  17.170  10.013  11.214 -0.2861 -0.0282 -0.1625
26904W        W47184   1.764   6.665   3.933  0.1240 -0.0086  0.0259
26905W        W47185  18.548  16.797  13.707 -0.1684  0.0166  0.1578
26906W        W47186  17.521  18.064   0.517 -0.2981  0.0965 -0.0784
26907W        W47187   7.447   3.857  12.404  0.1552 -0.2167 -0.2388
26908W        W47188   4.678  12.029  14.086 -0.1296  0.1756  0.0306
26909W        W47189   9.151   0.818   3.872 -0.0529 -0.0444  0.1883
26910W        W47190   6.923   9.201   1.696 -0.3835  0.3371  0.0365
26911W        W47191  16.839   4.830   3.755 -0.3304 -0.0211  0.5242
26912W        W47192  13.075   2.666   0.589  0.1991  0.2338  0.0008
26913W        W47193  13.953   6.814   1.266 -0.0247 -0.0685  0.2174
26914W        W47194  14.073   0.198  10.784  0.1911 -0.3099  0.3691
26915W        W47195  17.407   1.101  10.893  0.0650  0.2848 -0.0536
26916W        W47196  15.566   6.526   0.436 -0.2266  0.3195 -0.0292
26917W        W47197  15.514  19.176  12.483 -0.0260  0.3444 -0.4321
26918W        W47198   2.897   9.806  10.841 -0.0020  0.2833 -0.1041
26919W        W47199   2.694  18.619  13.526  0.0286  0.0749  0.0789
26920W        W47200   3.996   8.759  14.356  0.0808  0.1748  0.0804
26921W        W47201  12.815  18.671  13.299  0.3133  0.0228 -0.1320
26922W        W47202  19.214   8.584  13.669 -0.1160 -0.1810  0.0790
26923W        W47203  17.787   7.336   3.641  0.2251 -0.2493 -0.0481
26924W        W47204   9.610   3.759   0.915  0.0441 -0.2473 -0.1950
26925W        W47205  17.313   4.117   1.113 -0.2071 -0.1636  0.1911
26926W        W47206  16.530   0.650  13.212 -0.6650 -0.0601  0.0286
26927W        W47207   0.288   1.894   3.107 -0.2438  0.1188  0.0159
26928W        W47208   8.061   5.098   3.078  0.2998  0.3380  0.1036
26929W        W47209  14.958   5.295   2.148  0.2165 -0.1333  0.2255
26930W        W47210   9.527  18.907   2.269 -0.0315 -0.2923 -0.1305
26931W        W47211  13.633   9.322  11.948 -0.1438  0.1075  0.0030
26932W        W47212   8.491  12.803  12.296  0.2401  0.2055 -0.2309
26933W        W47213  11.622  11.334  13.036  0.2505  0.1617  0.4017
26934W        W47214   1.324  18.085   1.836 -0.3029  0.0216 -0.3727
26935W        W47215  18.764   0.859   2.095  0.0681  0.1458  0.1091
26936W        W47216  12.695  14.100  11.070 -0.1206 -0.1636  0.2493
26937W        W47217   4.218   2.994   4.170 -0.0708  0.0637 -0.0987
26938W        W47218   0.142   0.229   3.850 -0.1498  0.3416  0.3927
26939W        W47219   0.899   4.778  11.266 -0.1688 -0.0918 -0.1975
26940W        W47220  12.791   4.176   3.853  0.0418  0.0605 -0.0387
26941W        W47221  15.941   5.818   2.082 -0.0456 -0.0456  0.1321
26942W        W47222  16.044   6.581  11.002 -0.0660 -0.0779  0.2221
26943W        W47223   9.951  18.094  12.221 -0.0529 -0.1634  0.0124
26944W        W47224   6.272   3.524   2.100 -0.4991 -0.2733  0.0527
26945W        W47225  16.220   8.495  12.188 -0.1421 -0.3195  0.0694
26946W        W47226  14.382  15.834  13.857 -0.0369 -0.2023  0.1704
26947W        W47227  14.653   0.490   3.533  0.2028 -0.1315 -0.5417
26948W        W47228   6.845   3.605   1.163 -0.2012 -0.0183  0.1432
26949W        W47229  16.617  10.135  13.306 -0.0753 -0.0314 -0.1178
26950W        W47230   3.473  15.968  12.262 -0.3605 -0.1048  0.1754
26951W        W47231   4.405   8.198  11.978 -0.1011 -0.2539 -0.3586
26952W        W47232   3.797  16.502  13.584 -0.2575 -0.0779  0.1011
26953W        W47233   8.774  14.667   0.377  0.2195  0.0471 -0.0217
26954W        W47234  13.605  13.877   1.740 -0.0106  0.0955  0.0597
26955W        W47235  15.603   7.855   0.770  0.3058 -0.0966 -0.3300
26956W        W47236   1.030   8.743  11.745 -0.1384  0.0968  0.2093
26957W        W47237   3.145  16.802  12.643 -0.2765  0.5274 -0.0901
26958W        W47238  16.589  13.957   0.446 -0.2241  0.3469  0.2356
26959W        W47239  13.661   4.702   2.233  0.3484 -0.0253  0.1288
26960W        W47240  14.997   6.165  10.139 -0.1245 -0.0141 -0.2051
26961W        W47241   3.451  16.783  13.349 -0.2952 -0.2667  0.0963
26962W        W47242   1.185  15.055  11.161 -0.2631 -0.0559 -0.1643
26963W        W47243   4.930  16.484  13.152  0.3054  0.2109  0.0555
26964W        W47244   9.692  11.051   3.440 -0.0923  0.0246 -0.3745
26965W        W47245  15.897  17.160   1.345 -0.1254 -0.2305  0.3610
26966W        W47246  11.651  18.257   0.272  0.1886  0.0411  0.1586
26967W        W47247   3.419   5.131   1.905  0.4207 -0.0953  0.0507
26968W        W47248  17.045  18.396  11.070  0.0590  0.2383 -0.0820
26969W        W47249   4.543   4.511   5.433 -0.1481 -0.0991 -0.2165
26970W        W47250   5.078  16.681   0.815  0.1231 -0.0230  0.2474
26971W        W47251  17.469  11.886  13.070  0.3104 -0.0273  0.2683
26972W        W47252  19.037  11.107  11.063  0.0589  0.0462  0.3087
26973W        W47253   6.046   6.025   0.651 -0.2312  0.1669 -0.1017
26974W        W47254  19.089   4.151  11.126 -0.2827 -0.1432  0.1050
26975W        W47255  15.898   1.167   1.351  0.1572  0.3907  0.2091
26976W        W47256  19.183   6.473  14.231 -0.0801 -0.3647  0.0534
26977W        W47257   3.008  11.726  13.446 -0.1668 -0.0843  0.0660
26978W        W47258   3.283  13.872  11.153  0.0587  0.0099  0.1343
26979W        W47259  10.521   4.078  12.304 -0.1194 -0.0394 -0.1502
26980W        W47260  14.835   5.261   3.699 -0.1518 -0.0112  0.2222
26981W        W47261  18.791   3.469  13.796 -0.0408  0.0832 -0.0834
26982W        W47262  18.804   1.023  12.174  0.0794 -0.1543 -0.0530
26983W        W47263   3.029   1.236   1.627  0.2415 -0.0415  0.1822
26984W        W47264   1.920  10.016  11.974 -0.0146 -0.1790 -0.2159
26985W        W47265  18.028   8.203  10.776  0.1274 -0.1532 -0.3285
26986W        W47266  17.682  10.969   2.760 -0.3562  0.0494 -0.1111
26987W        W47267   6.042  18.865   9.984 -0.2976  0.0868 -0.0949
26988W        W47268  10.102   7.157  12.170 -0.3801 -0.3074  0.1709
26989W        W47269  10.141   1.314  11.827  0.1270 -0.4343  0.0612
26990W        W47270  19.318  11.924  11.294 -0.1574  0.0669 -0.2002
26991W        W47271   4.808   8.594   5.250  0.2411  0.0573 -0.0212
26992W        W47272  19.183   7.631  13.462  0.0797 -0.1421 -0.0075
26993W        W47273   8.279  14.793   1.755  0.0418 -0.4316 -0.1650
26994W        W47274  13.471  18.892   1.563  0.0268 -0.1998 -0.0569
26995W        W47275   8.920   9.611  12.763 -0.2552 -0.2668 -0.2998
26996W        W47276   0.913  18.280   3.958  0.1254 -0.1141 -0.0972
26997W        W47277  10.646   2.937   0.956 -0.0019  0.0443  0.1398
26998W        W47278   5.970  14.683  11.307  0.0335  0.0068  0.2212
26999W        W47279  14.220   4.540  11.043  0.3306 -0.2064 -0.2006
27000W        W47280   2.721   1.413  12.900 -0.0794  0.1019  0.1617
27001W        W47281  11.339   8.455  14.482  0.0352 -0.0677 -0.0120
27002W        W47282   4.384   2.784  11.998  0.2208 -0.0563  0.1106
27003W        W47283   0.693   0.239   4.436 -0.2829  0.1173  0.0059
27004W        W47284  16.970   4.665   0.480 -0.0402  0.1165  0.1395
27005W        W47285  17.001  15.325  13.735  0.2606  0.0262 -0.0015
27006W        W47286  10.952  15.564  11.544  0.1026  0.2995  0.3999
27007W        W47287   3.192  14.432  10.996  0.2959  0.1765 -0.2981
27008W        W47288  15.620  11.027   0.077 -0.2543 -0.0611 -0.0764
27009W        W47289  16.949   0.248   0.812  0.1666  0.2067  0.2924
27010W        W47290   3.515   0.552   3.014 -0.1454  0.3693  0.0262
27011W        W47291  11.918   6.164  10.392  0.2866 -0.0234  0.0325
27012W        W47292  11.306  15.415   0.860 -0.1472 -0.1716  0.2178
27013W        W47293  10.074   9.927   2.837  0.2118  0.0377  0.3065
27014W        W47294   9.460   0.263  12.003 -0.0667 -0.2160 -0.1155
27015W        W47295  16.282  16.627   3.057 -0.0190  0.3517 -0.1235
27016W        W47296   2.307  10.132  12.430  0.4396 -0.0167 -0.0823
27017W        W47297   5.152  12.058   4.260  0.2886  0.1368  0.0812
27018W        W47298  12.809   9.326  13.314 -0.0277  0.0967  0.0911
27019W        W47299   1.695   1.622  12.330  0.0605  0.1007  0.1635
27020W        W47300  10.028  10.332   1.585 -0.0428  0.1170  0.5556
27021W        W47301  16.978  16.644   4.193  0.0600  0.3559 -0.3604
27022W        W47302   6.278  10.353  11.998 -0.0441 -0.0197  0.1167
27023W        W47303  13.536   9.271   3.291 -0.0916  0.1181  0.0184
27024W        W47304  16.474   7.816  14.014 -0.1411 -0.0309 -0.2736
27025W        W47305  11.176  13.546   0.457 -0.3976  0.1716  0.2391
27026W        W47306  10.275  16.476  13.457  0.3826 -0.1814  0.0900
27027W        W47307  14.462   6.236   1.748 -0.2543  0.0519 -0.1130
27028W        W47308   1.521  13.297   2.888  0.1491  0.1663 -0.0197
27029W        W47309   5.468  13.478  12.889 -0.1337 -0.2723 -0.0625
27030W        W47310  17.284  16.521  13.492 -0.0505  0.2331  0.0600
27031W        W47311  18.721  18.798   3.670 -0.4074  0.1547 -0.2827
27032W        W47312   1.685   8.446   1.199 -0.4204  0.1158  0.2731
27033W        W47313   6.484   0.616   2.851  0.3212 -0.2108 -0.1188
27034W        W47314  14.969   7.003  11.917 -0.0141  0.3905 -0.1116
27035W        W47315  13.712  15.141  13.012  0.1136 -0.1714 -0.0309
27036W        W47316   0.735  13.066   3.479 -0.0799 -0.2327 -0.1336
27037W        W47317   8.263   9.540   2.216 -0.0359 -0.2156  0.0153
27038W        W47318   4.407   7.452  14.323 -0.1963  0.4294  0.1642
27039W        W47319   7.481  16.912  11.090 -0.3395 -0.1282  0.0820
27040W        W47320   2.198  18.850  11.294  0.0471  0.2521  0.3678
27041W        W47321   8.820  16.127   3.604 -0.3551  0.1137  0.0044
27042W        W47322  18.386  10.847   2.365  0.1760 -0.0031 -0.0732
27043W        W47323  15.246  15.719   2.469  0.0170  0.2150  0.0388
27044W        W47324  11.057  18.871   0.649 -0.1463 -0.0361  0.0047
27045W        W47325   6.276  11.548   2.858 -0.3083  0.2130 -0.1814
27046W        W47326  16.060   7.542   2.475 -0.2948  0.1637 -0.1676
27047W        W47327   2.568   4.264   0.985  0.0119 -0.0738 -0.1249
27048W        W47328   5.528   9.879  13.414  0.1114  0.0509  0.0623
27049W        W47329  12.264   2.173   3.503 -0.0017  0.0021 -0.2949
27050W        W47330   1.298   9.929  12.001 -0.0093  0.0287 -0.0248
27051W        W47331  13.765  12.246  14.078  0.0295  0.0949  0.0446
27052W        W47332  12.021   9.546  13.898 -0.1580 -0.0469  0.3238
27053W        W47333  15.476   6.562  13.933  0.0384 -0.0152 -0.0745
27054W        W47334   8.989  11.047  14.058 -0.2981  0.3193  0.3179
27055W        W47335  12.103  14.206  14.492 -0.2097 -0.3113  0.3006
27056W        W47336   9.595  11.251   2.910 -0.0366  0.1362  0.1683
27057W        W47337  11.138   8.212  11.858 -0.0291  0.0503 -0.2655
27058W        W47338  16.624   9.320  10.729 -0.1584  0.0709  0.0816
27059W        W47339   1.590   2.052  10.970 -0.2226 -0.1037  0.2375
27060W        W47340   1.574   4.530   1.146 -0.1906  0.4903  0.2681
27061W        W47341  12.698   5.507  12.463  0.1424  0.2385  0.0066
27062W        W47342   4.483  15.210   9.538  0.0713  0.0050  0.0262
27063W        W47343  10.812  17.361   2.607 -0.2490  0.0256 -0.1795
27064W        W47344   2.701  11.832  11.523 -0.0902  0.4780  0.0638
27065W        W47345   9.100   8.146   1.518  0.0603  0.1074  0.4072
27066W        W47346  13.786   8.972   2.947  0.1519 -0.0239  0.0190
27067W        W47347  16.603   9.104   3.007  0.0402 -0.0219 -0.1550
27068W        W47348   8.895   4.634  13.453  0.1134  0.0244  0.2334
27069W        W47349  11.697   6.419   0.578  0.0326  0.0278 -0.0274
27070W        W47350   1.789   8.894   0.836 -0.1829 -0.0307 -0.1399
27071W        W47351   6.505   4.961   0.629  0.2774  0.0074  0.0014
27072W        W47352   1.957  11.741  10.749 -0.1563 -0.1705 -0.0869
27073W        W47353  13.926  14.643   0.533  0.1108  0.0190 -0.0151
27074W        W47354  13.405   1.238  10.234  0.1382 -0.2527  0.0131
27075W        W47355   3.141  13.427  13.213 -0.2746 -0.5192  0.2245
27076W        W47356   4.466   5.158  13.572  0.1125  0.1902 -0.0159
27077W        W47357  11.938  14.433  12.855 -0.2038  0.4378 -0.1076
27078W        W47358  15.309  12.773  10.950 -0.2126  0.1346 -0.0663
27079W        W47359  18.915  18.505  13.869 -0.3242 -0.1567 -0.1988
27080W        W47360   4.055  15.753  14.488  0.0191 -0.0626  0.1288
27081W        W47361  12.460  10.212  13.464  0.1951 -0.2530  0.1448
27082W        W47362  17.281  17.776   2.148 -0.0276 -0.1277 -0.1759
27083W        W47363  11.833   6.646  11.694  0.0519  0.1261 -0.0158
27084W        W47364   0.233   6.411  12.932  0.5122 -0.0225  0.2634
27085W        W47365  16.348   3.449  13.549 -0.3872  0.1931 -0.0867
27086W        W47366   5.267   6.835   2.241 -0.0659 -0.2912  0.1959
27087W        W47367   4.803   2.928   4.914 -0.2008  0.1018 -0.2646
27088W        W47368   0.211   2.556  12.918 -0.0671 -0.0879 -0.0627
27089W        W47369   8.162  17.908   0.596  0.0612 -0.0310 -0.1202
27090W        W47370  17.573   1.718   2.599  0.1739  0.2916  0.0111
27091W        W47371   9.910   2.846   3.599 -0.2378  0.2814  0.2013
27092W        W47372   3.771  16.681   1.347 -0.2176  0.2668  0.0061
27093W        W47373  18.338  14.595  12.824  0.1351 -0.3185 -0.0349
27094W        W47374  15.799  17.399   0.057  0.3270  0.1570  0.2359
27095W        W47375   7.085   1.039  13.867 -0.2708 -0.1949 -0.2349
27096W        W47376  13.065   5.220  14.185  0.0711 -0.4106  0.0372
27097W        W47377  19.169   1.017  13.567 -0.0715 -0.1454  0.3730
27098W        W47378   7.305   8.881  13.479 -0.0253 -0.0493 -0.4038
27099W        W47379   7.250  16.009   3.218  0.0954 -0.1742 -0.3521
27100W        W47380  14.730  17.792   1.671  0.4299  0.2344 -0.2174
27101W        W47381   8.931  15.677   3.210 -0.2953  0.3396 -0.1910
27102W        W47382  14.411   5.211   0.801  0.0394 -0.0038 -0.1785
27103W        W47383   1.331  15.808  12.401 -0.0140  0.0621  0.1831
27104W        W47384   7.499   1.496   1.625  0.1750 -0.0439  0.1133
27105W        W47385  13.517   0.470   2.788 -0.0983  0.2831  0.0880
27106W        W47386   7.628   6.964   3.236  0.2744  0.1795 -0.0269
27107W        W47387  18.275  10.373  12.157 -0.0385 -0.2823  0.0840
27108W        W47388  13.070   0.946  13.476 -0.0414  0.0877 -0.0929
27109W        W47389   9.197  10.344   2.698  0.0560  0.0802  0.1960
27110W        W47390  13.078   3.077   1.514 -0.1870 -0.0208 -0.0718
27111W        W47391   4.791  13.209   3.540  0.0798  0.0851  0.4419
27112W        W47392  12.700  12.175   3.708 -0.0136 -0.2668  0.1309
27113W        W47393  11.480  10.058   1.479  0.1204 -0.2051 -0.1523
27114W        W47394  13.577  17.397   1.617 -0.1426 -0.0807 -0.1438
27115W        W47395   5.649  17.608   2.840  0.3450  0.0698 -0.1951
27116W        W47396  18.573   8.873  13.449  0.3457  0.1586 -0.0203
27117W        W47397  13.691   9.009  14.289  0.0247  0.1482 -0.0276
27118W        W47398   3.558  12.589  13.220  0.2001  0.1888  0.0918
27119W        W47399  12.900   6.057   1.511  0.2128 -0.1449  0.0678
27120W        W47400   4.580  13.501  12.695  0.0521 -0.0667 -0.0745
27121W        W47401   3.148   3.775   3.839 -0.1473 -0.1059  0.2550
27122W        W47402  16.358  10.094  10.205 -0.2635 -0.1092 -0.1966
27123W        W47403   9.391  13.688  12.574  0.1110  0.1147  0.1068
27124W        W47404   7.909   3.492   3.596 -0.2363  0.1205  0.1843
27125W        W47405  12.517   2.207   1.398 -0.0181 -0.2644 -0.0967
27126W        W47406   3.246   0.505  11.562 -0.1252  0.0242 -0.3326
27127W        W47407  11.175   7.920   2.726  0.0845  0.2623  0.0257
27128W        W47408   5.913  13.585  13.408 -0.3316  0.1792 -0.4758
27129W        W47409  13.150  16.417   0.911 -0.3922 -0.0202 -0.0844
27130W        W47410   2.659  19.127  12.670 -0.3737 -0.0168 -0.0858
27131W        W47411  10.125  15.712  12.725  0.0926  0.1496 -0.0133
27132W        W47412  12.846   9.286   1.937  0.2462  0.0848  0.1352
27133W        W47413   0.191  19.003   2.251  0.2552 -0.1091  0.1366
27134W        W47414  12.318   8.292  13.573 -0.2566 -0.0654  0.0783
27135W        W47415   8.838  13.103   0.841  0.0910 -0.2799  0.1220
27136W        W47416  12.106   6.487   1.181 -0.2794 -0.1303 -0.1417
27137W        W47417   1.768  18.365   4.148 -0.0679  0.0940  0.2847
27138W        W47418  13.681   6.239  10.383  0.1333 -0.1239 -0.1422
27139W        W47419  15.117   0.643  13.179  0.1285  0.2184  0.0413
27140W        W47420   0.372  18.647   1.458  0.1724  0.0435 -0.1224
27141W        W47421  17.086   0.201   2.304  0.1682  0.1122  0.0869
27142W        W47422   6.884  11.343   1.229  0.0929  0.2930  0.1853
27143W        W47423  13.454  15.821  10.268 -0.3470 -0.1525 -0.1323
27144W        W47424  18.041   3.328   1.108  0.0942 -0.1077 -0.0129
27145W        W47425   7.545  15.945  11.973 -0.0293  0.1487 -0.0251
27146W        W47426   1.055  13.092   0.022  0.1298  0.0350 -0.3956
27147W        W47427   2.745  14.080   2.398 -0.0488  0.2563 -0.0626
27148W        W47428  19.252   1.100  14.032 -0.3006  0.0596  0.1588
27149W        W47429   9.055   7.121  14.191  0.0032 -0.1121 -0.1334
27150W        W47430   8.706  13.455  13.438 -0.1706  0.0040  0.1203
27151W        W47431   6.615   8.429  10.742 -0.3710  0.0071 -0.2202
27152W        W47432  12.885  11.864  13.035  0.1925  0.2670  0.0396
27153W        W47433   0.972   3.761   4.009 -0.1012 -0.3156 -0.1444
27154W        W47434  13.314  16.657   1.329 -0.2140 -0.0611  0.0238
27155W        W47435  10.851  13.449   2.692  0.0914 -0.3186 -0.0004
27156W        W47436  12.686  10.025  11.242 -0.0167 -0.2002  0.0013
27157W        W47437   3.110  11.457  11.541 -0.2099 -0.1774 -0.0123
27158W        W47438   7.187  10.675   0.040 -0.3084  0.2912 -0.0375
27159W        W47439  16.924   7.979   0.410  0.0656  0.2260  0.0632
27160W        W47440   2.057   5.482   9.602  0.3614  0.2418 -0.2308
27161W        W47441   2.203   9.677  12.278 -0.2630  0.1355 -0.1504
27162W        W47442   1.113  18.728  12.786 -0.0071  0.2819 -0.0230
27163W        W47443  19.409  17.894  13.510  0.3859 -0.0361  0.1512
27164W        W47444  10.189  15.213   3.024  0.0439 -0.2955  0.0212
27165W        W47445  16.965  17.214   3.315  0.1567 -0.0382  0.1405
27166W        W47446  12.857  13.787   2.957  0.1127  0.0339 -0.1248
27167W        W47447   3.271  11.529  13.810  0.1595 -0.0783 -0.0454
27168W        W47448  17.460  18.542  11.847  0.2360  0.0783 -0.0212
27169W        W47449  13.656  15.138   2.657  0.1667  0.1155 -0.2278
27170W        W47450   9.160   9.952   3.693 -0.0223 -0.0234  0.1515
27171W        W47451   6.234   7.569   3.295  0.0983  0.0271 -0.2476
27172W        W47452  15.144  13.131  11.308 -0.1482  0.0193  0.1821
27173W        W47453  18.045  18.389   3.764  0.1801  0.1581 -0.0509
27174W        W47454  18.348   5.757  11.500  0.0149  0.0463 -0.4180
27175W        W47455   5.642   2.681  10.335  0.1635  0.2972  0.2642
27176W        W47456   5.938   7.937  13.846  0.0278  0.2079  0.0430
27177W        W47457  16.417   1.066   2.635 -0.0137  0.1943  0.1185
27178W        W47458   7.801  17.242  10.953 -0.0570 -0.5537 -0.1700
27179W        W47459  15.466  14.712   3.170  0.2850  0.0146 -0.2151
27180W        W47460  12.845  10.167   1.464 -0.0600  0.0710  0.4683
27181W        W47461   0.943   8.108  13.247  0.1285  0.0103 -0.1226
27182W        W47462   7.224   0.019   3.983 -0.0642  0.0405 -0.0015
27183W        W47463  13.151  19.337   2.987 -0.1216  0.2147 -0.0697
27184W        W47464   8.973   7.331   1.005 -0.3322 -0.3103  0.1069
27185W        W47465   0.143  12.255  14.157  0.2030  0.1793 -0.3066
27186W        W47466   4.247   0.428  11.723 -0.2866 -0.1194  0.1925
27187W        W47467  10.553   6.498  13.827 -0.1732  0.1132  0.4579
27188W        W47468  11.759   2.023  10.616 -0.1865  0.0126  0.0969
27189W        W47469   9.106   8.418  14.161 -0.0696  0.1303 -0.1096
27190W        W47470   0.816  13.767  11.684  0.1089  0.0728 -0.1399
27191W        W47471   6.281  12.643  14.412  0.0403  0.0684  0.0818
27192W        W47472  14.491  13.311   1.623  0.4362  0.1608  0.0535
27193W        W47473   2.894  12.297  11.376 -0.1719 -0.1125 -0.1903
27194W        W47474  16.781  14.183  13.438  0.0554 -0.1219 -0.1586
27195W        W47475  18.873   1.603  13.019  0.1366 -0.3259  0.1914
27196W        W47476   1.372   5.008   1.082  0.1112  0.1641 -0.2130
27197W        W47477   7.105  15.293  14.167  0.2706  0.1608  0.0717
27198W        W47478   6.787  11.172  11.739 -0.2092  0.0426  0.3663
27199W        W47479  16.913   5.686   1.928  0.2030  0.2445  0.3082
27200W        W47480   3.236   0.322   2.064 -0.1521 -0.0346 -0.0389
27201W        W47481   2.190   3.584  11.582  0.2003 -0.0756 -0.0274
27202W        W47482  11.829   8.599   3.097  0.2769  0.1701  0.1538
27203W        W47483  12.912  19.036   3.812 -0.0015 -0.0737 -0.0854
27204W        W47484   0.236   1.776   3.590  0.1427 -0.2263  0.2293
27205W        W47485   6.361   4.512  11.377 -0.2784 -0.1819  0.0276
27206W        W47486  14.885   2.559  10.055 -0.0347 -0.0833 -0.2025
27207W        W47487  17.580   4.364   9.619  0.0478  0.4750 -0.0490
27208W        W47488  14.422   1.320   3.733  0.2998  0.1584  0.2762
27209W        W47489   9.550  15.426   0.695 -0.2035  0.3257 -0.2286
27210W        W47490  14.262  11.209  14.490  0.1156 -0.3004  0.0984
27211W        W47491   4.795  10.531  12.226  0.0829  0.1120  0.0217
27212W        W47492  15.805  11.802  11.785 -0.0762 -0.0071 -0.4252
27213W        W47493   5.832   4.379  11.579  0.1407 -0.2427 -0.1128
27214W        W47494  14.127  17.865   2.829  0.2456  0.1169 -0.1236
27215W        W47495  11.475  12.333  10.657 -0.1220 -0.2401  0.0853
27216W        W47496  19.088   2.516   3.400  0.0020 -0.3818  0.0486
27217W        W47497  10.008   1.299   0.254  0.1556  0.0829  0.0658
27218W        W47498   6.536  17.567  13.149  0.0442 -0.2274 -0.1101
27219W        W47499   7.838   9.952   2.364  0.1707 -0.0779  0.2671
27220W        W47500  14.319   7.510   3.473  0.0966  0.0632  0.2292
27221W        W47501  11.208  11.740   3.350  0.0986 -0.1251 -0.1908
27222W        W47502  18.460   7.691  12.556  0.1171 -0.1159 -0.0718
27223W        W47503  19.164  12.233  13.306  0.2292 -0.1224  0.1129
27224W        W47504  11.275   1.308   0.242 -0.2939  0.0226  0.1187
27225W        W47505   1.709  18.880   4.055 -0.2098 -0.2945 -0.4016
27226W        W47506   6.267   4.717  11.829  0.0595 -0.0190  0.4010
27227W        W47507   4.695   1.044   2.978  0.0786  0.1316  0.1400
27228W        W47508   7.531   7.482  11.722 -0.0664 -0.1730 -0.0805
27229W        W47509  19.128   9.452  14.027  0.5418 -0.2612 -0.1067
27230W        W47510  14.982   6.225   1.688 -0.2050  0.0241 -0.2003
27231W        W47511  13.094   6.010   4.478 -0.1396 -0.0828  0.0298
27232W        W47512  17.160  11.636  11.798 -0.2054 -0.0058  0.1413
27233W        W47513   0.130   2.431   1.414 -0.4052 -0.2495 -0.1264
27234W        W47514   4.115  11.529  12.285 -0.1066 -0.2445  0.0634
27235W        W47515  13.132  10.464  12.446  0.1158  0.0727  0.1609
27236W        W47516  14.649  12.184   3.974 -0.0899 -0.0392  0.3199
27237W        W47517   4.881   9.292  14.245 -0.0230  0.0099 -0.0222
27238W        W47518  19.030   8.979  14.148 -0.2412  0.0157  0.2308
27239W        W47519  14.894   0.909  13.968 -0.0874 -0.0118 -0.0236
27240W        W47520  19.337   8.032   3.895  0.0942  0.5564 -0.1496
27241W        W47521   4.100  18.523   3.386 -0.3300 -0.0381 -0.0339
27242W        W47522  16.848  17.535   0.247  0.1597 -0.3039  0.2062
27243W        W47523   0.559   4.970   1.785 -0.0727 -0.0786  0.3734
27244W        W47524   2.360   4.643   0.764 -0.0807  0.3352  0.0089
27245W        W47525   1.633  11.420  12.716  0.1493  0.1510 -0.0246
27246W        W47526   5.266  12.005   0.652 -0.0955  0.2025 -0.0356
27247W        W47527  11.472  17.370  11.429 -0.1341  0.0156 -0.0343
27248W        W47528   0.303   9.814   9.773  0.2910 -0.0171 -0.0010
27249W        W47529   2.748   7.949  12.978 -0.2045 -0.2331  0.2359
27250W        W47530   8.952  16.439   3.275 -0.1371 -0.4281 -0.0672
27251W        W47531  10.028   4.011   3.873 -0.3810  0.3096  0.3490
27252W        W47532   6.491   9.254  11.713 -0.0459 -0.0228  0.1027
27253W        W47533   4.263   1.346   0.174  0.0307  0.1693 -0.0230
27254W        W47534   7.824  13.980  13.703  0.0678  0.2843 -0.0765
27255W        W47535  14.089   1.879   3.216 -0.1210  0.1482  0.1259
27256W        W47536  15.530   9.672   1.325 -0.2744  0.0757  0.0791
27257W        W47537   6.753  16.978   1.407  0.1498  0.1243  0.1299
27258W        W47538   3.679   2.986   1.921  0.1529  0.2946  0.0913
27259W        W47539   5.362   7.442  11.217  0.0757  0.1007  0.0217
27260W        W47540   9.719   9.785  13.256  0.0687 -0.0946  0.0067
27261W        W47541  18.195   4.908  13.670  0.0370  0.1197 -0.0227
27262W        W47542   6.605   6.107  12.043  0.2930 -0.2048  0.1160
27263W        W47543  12.236  17.051   1.705  0.1337 -0.0278 -0.1504
27264W        W47544  16.571  14.346  11.568  0.1313  0.2459 -0.1769
27265W        W47545  16.124   0.540  12.495  0.0567  0.0154  0.1810
27266W        W47546  11.028  11.102   1.200  0.0978  0.0081  0.1874
27267W        W47547  12.457   7.193   2.332 -0.0434  0.1155 -0.2241
27268W        W47548  15.220  15.930  13.689 -0.0887 -0.0259  0.1294
27269W        W47549   3.046   5.851  13.664 -0.0330 -0.2336 -0.3167
27270W        W47550  16.319  18.241  14.152 -0.2056 -0.0317  0.1910
27271W        W47551  15.187   8.300   2.020  0.1666 -0.2133 -0.0532
27272W        W47552   4.475   4.901  14.480 -0.0792  0.0965  0.1419
27273W        W47553  16.059   1.468  10.920 -0.1183  0.0271 -0.0706
27274W        W47554   1.852   2.951   0.115  0.0480  0.1675  0.0810
27275W        W47555  12.460   3.469  12.515 -0.0186 -0.1178  0.1822
27276W        W47556   1.916   6.262   4.656  0.1995  0.0356  0.0751
27277W        W47557   5.097  16.668  11.179 -0.2009 -0.1378 -0.2468
27278W        W47558  18.630  11.340  14.319  0.2499 -0.1381  0.2388
27279W        W47559   9.243  15.752  11.650 -0.0338 -0.1939 -0.1158
27280W        W47560   0.205  15.622   2.829 -0.1803  0.2017  0.1210
27281W        W47561   6.686   1.994   2.417 -0.0870 -0.1872 -0.2635
27282W        W47562  14.517   3.561   3.099 -0.5368  0.1029  0.1894
27283W        W47563  11.901   1.281   2.724  0.1140  0.0389  0.0207
27284W        W47564   2.429   2.549   4.878 -0.1319  0.4329  0.2755
27285W        W47565  17.929  10.879   3.293 -0.3444  0.0660 -0.1519
27286W        W47566   6.303   8.840   2.139 -0.1108 -0.2465 -0.2833
27287W        W47567   2.396   1.917   1.949 -0.3499  0.1563  0.1825
27288W        W47568  14.484  15.464  11.672  0.0196  0.0883 -0.0830
27289W        W47569   4.567   7.845   2.002  0.0010 -0.2085  0.2485
27290W        W47570   9.998  16.259   3.652 -0.1705 -0.2382  0.2229
27291W        W47571  12.197   1.029   1.001 -0.1083  0.0373 -0.1491
27292W        W47572  16.600   2.631   3.774 -0.0987  0.1741  0.3042
27293W        W47573  11.309   3.498   3.424 -0.3735  0.2801 -0.0477
27294W        W47574  11.629  15.074  11.714 -0.0350 -0.1282 -0.2179
27295W        W47575   1.835   7.672   1.898 -0.1382  0.0716 -0.1434
27296W        W47576  18.052  18.738  13.465  0.0191 -0.5081 -0.2748
27297W        W47577   8.835   6.751   1.840 -0.1827 -0.1772 -0.0312
27298W        W47578   2.853   1.970   0.150 -0.1861  0.4145  0.0013
27299W        W47579   6.565   8.652  12.591  0.1532  0.2003 -0.1539
27300W        W47580  11.030   8.708   1.824 -0.0106 -0.2449  0.1243
27301W        W47581  17.970  11.407  13.108  0.1541  0.0532 -0.4092
27302W        W47582  16.643  18.218  10.780  0.2114 -0.0836  0.0083
27303W        W47583  11.552  15.391   2.946  0.1507 -0.0887 -0.1535
27304W        W47584   8.828   4.240  11.465  0.0720 -0.1669  0.0576
27305W        W47585   9.767  17.925  10.175  0.1212 -0.0657 -0.1890
27306W        W47586   8.287  11.264  13.351  0.0256  0.1188 -0.0483
27307W        W47587   0.772   3.221  13.418 -0.0159 -0.2219 -0.0058
27308W        W47588  15.121   1.300   1.278 -0.0610  0.1308 -0.1234
27309W        W47589  11.735  10.834  12.971  0.0586 -0.1456  0.3299
27310W        W47590   8.144  14.618   0.030 -0.0085 -0.2744  0.1722
27311W        W47591   6.224   1.390   0.383  0.1371  0.3689 -0.0639
27312W        W47592  11.865   0.905   1.990 -0.1307  0.1717 -0.1440
27313W        W47593  10.647   5.600  12.426  0.0460 -0.4696 -0.1318
27314W        W47594   5.969  15.509   2.112 -0.2313  0.0324 -0.1245
27315W        W47595  10.369   2.191  14.202  0.0691  0.1240  0.0876
27316W        W47596  13.782   2.738   1.234 -0.1144 -0.0141 -0.1679
27317W        W47597   9.906   6.972   0.345  0.1421 -0.0746 -0.0382
27318W        W47598   7.772   6.094  11.791  0.2638 -0.1247  0.2979
27319W        W47599  10.768  14.300   0.848 -0.0051 -0.1538  0.2324
27320W        W47600   3.995   9.374   1.148  0.0695  0.2227  0.1808
27321W        W47601  17.912   7.653  12.606 -0.2536 -0.1825 -0.1473
27322W        W47602   6.600  18.207  14.147  0.3191 -0.4298  0.0859
27323W        W47603   5.397  13.398   0.964 -0.1613  0.1126 -0.0072
27324W        W47604   3.410   5.560   0.545  0.0936  0.0229 -0.0579
27325W        W47605   7.688   9.806   4.535 -0.2757 -0.2907 -0.1503
27326W        W47606   8.605   3.270   1.409  0.2481  0.0012 -0.0704
27327W        W47607  11.632  12.089   0.188 -0.2164 -0.1879  0.1507
27328W        W47608   4.628  18.403  13.758  0.0389 -0.0691 -0.1147
27329W        W47609   3.060  15.480  12.823  0.0003  0.2744 -0.2006
27330W        W47610  13.436  16.727  11.359 -0.0194 -0.1780  0.1843
27331W        W47611  17.006  12.414   3.628 -0.1847 -0.5194  0.2515
27332W        W47612  18.126   8.709  12.585  0.2250 -0.0922 -0.0582
27333W        W47613  12.062   7.990   1.068  0.1650  0.0899 -0.1436
27334W        W47614  17.124   3.442   4.008  0.1928  0.0249  0.0923
27335W        W47615   8.982   5.162   2.680 -0.0536 -0.1522  0.1269
27336W        W47616  15.870   3.956   2.810 -0.2978 -0.2176  0.3029
27337W        W47617  10.181  10.501   3.541 -0.1476 -0.0503  0.0218
27338W        W47618  17.401  14.621   2.765  0.1571 -0.0272 -0.1907
27339W        W47619   1.984   6.264   1.173 -0.0833 -0.1647 -0.1601
27340W        W47620  15.676  11.263  13.138 -0.3510 -0.2581  0.6273
27341W        W47621  13.546  12.685  11.762 -0.2648  0.3496 -0.0365
27342W        W47622  10.258   5.094   1.552 -0.0910 -0.0827  0.0825
27343W        W47623   5.720   0.734   0.230  0.1167 -0.1754 -0.0148
27344W        W47624  11.323   9.350   0.791  0.1999 -0.1048  0.0755
27345W        W47625  15.622   0.158  10.919 -0.2562  0.0962  0.0104
27346W        W47626   5.639   9.504  13.714  0.2665 -0.1246 -0.1238
27347W        W47627  11.570   7.424   0.316  0.1483 -0.1593 -0.0644
27348W        W47628   1.046  13.533   3.735  0.0618 -0.1153  0.1164
27349W        W47629   7.247   9.100  11.426 -0.0571  0.2355  0.2276
27350W        W47630   5.809   4.825  13.336  0.1729 -0.2556 -0.0206
27351W        W47631   3.352  11.282   2.090  0.0336  0.0686 -0.0517
27352W        W47632   0.235  18.451   1.000 -0.1566 -0.1722  0.1246
27353W        W47633   8.048   3.953  10.347  0.3011 -0.1094  0.0453
27354W        W47634   7.228  13.491  13.192  0.1579 -0.1625  0.2076
27355W        W47635   9.300   5.849   0.744 -0.1981 -0.0889  0.2349
27356W        W47636  14.437  19.184  13.868 -0.0861 -0.1172  0.3342
27357W        W47637  16.627  11.428   4.109 -0.0915  0.1542 -0.0405
27358W        W47638   8.665   4.806  14.201 -0.3723  0.0848 -0.0812
27359W        W47639   3.798   4.967  12.944  0.0044 -0.0445 -0.0024
27360W        W47640   4.699  12.223  12.133 -0.0402 -0.0616 -0.0338
27361W        W47641  10.526  15.626  13.520  0.0864  0.0090 -0.2914
27362W        W47642  13.800   7.776   2.225  0.0440  0.1536 -0.0415
27363W        W47643   4.167  12.151  12.207 -0.1784 -0.2173  0.0714
27364W        W47644   5.600  15.734   0.224  0.2009  0.0255  0.1014
27365W        W47645   2.275   9.460  13.904 -0.0798 -0.1436  0.1646
27366W        W47646   9.765  18.291  10.971 -0.1171 -0.0744 -0.0838
27367W        W47647  13.246   2.148   0.791  0.2180  0.2212 -0.0485
27368W        W47648   3.155  16.134   2.894 -0.3399 -0.0547  0.7313
27369W        W47649  12.683  18.697   0.932 -0.1341  0.3310 -0.2270
27370W        W47650  11.934  11.068  13.456 -0.1176  0.0536  0.1879
27371W        W47651  13.987  17.640  12.328 -0.2876 -0.0400  0.0742
27372W        W47652   6.390   3.729  12.054  0.2615 -0.0128  0.1756
27373W        W47653   8.655   2.807   0.140 -0.0517  0.0560  0.1003
27374W        W47654   3.181  13.478  10.822 -0.1725  0.0492  0.0876
27375W        W47655  14.233   6.646   3.591 -0.1378 -0.2762 -0.0929
27376W        W47656   0.565   4.069  14.267  0.1498 -0.0053 -0.1162
27377W        W47657   7.400   3.339  10.992  0.2446  0.1032  0.1178
27378W        W47658   0.824   1.110   1.158 -0.1083  0.0674 -0.1167
27379W        W47659  18.794  10.728  11.205  0.5079  0.1314 -0.0482
27380W        W47660  11.352   1.682  11.934 -0.0520  0.2472 -0.1634
27381W        W47661  11.102  11.882   2.285  0.0038  0.1019  0.4956
27382W        W47662  10.045   1.363   2.083  0.3045  0.0274  0.0786
27383W        W47663   8.280  19.205   2.332  0.0695  0.1296  0.0820
27384W        W47664   1.960  16.874  11.585 -0.1824 -0.0317  0.2446
27385W        W47665  15.622   2.130   1.345  0.0326 -0.2982  0.0578
27386W        W47666   6.443   5.988  14.127  0.0801 -0.0739 -0.1374
27387W        W47667  15.986  14.349  10.646  0.2294 -0.4590  0.1163
27388W        W47668   5.163   4.025  13.176  0.1447 -0.1262 -0.0561
27389W        W47669  17.299   7.937  10.610  0.0038 -0.0901 -0.2437
27390W        W47670  13.449  19.113   0.228  0.3555  0.1913  0.1780
27391W        W47671  10.036  16.913  13.839  0.0099 -0.1228  0.1239
27392W        W47672   0.357  11.391   1.231 -0.0592 -0.1978  0.0281
27393W        W47673  10.856   5.371  10.895 -0.0644 -0.1541 -0.1278
27394W        W47674   7.881   7.105   4.099 -0.3128 -0.1782  0.0450
27395W        W47675   6.269  18.165   2.286  0.4544  0.0372  0.2832
27396W        W47676  11.628  17.151  12.424  0.0633  0.3735 -0.2010
27397W        W47677   2.898  15.348   1.177 -0.1590  0.0836 -0.2820
27398W        W47678  18.848  16.853   0.019  0.0521 -0.0854 -0.1078
27399W        W47679   9.271  16.063   3.216 -0.1633 -0.3695  0.1415
27400W        W47680   6.316   3.896   0.342 -0.0076 -0.3422  0.1400
27401W        W47681  12.376   9.645  11.935 -0.2111 -0.2728 -0.0544
27402W        W47682  18.369   6.900  10.708  0.1817 -0.4049  0.2200
27403W        W47683  12.086   4.023   2.336  0.0050  0.0842 -0.0939
27404W        W47684   6.636   2.832   3.861  0.4028 -0.2304  0.1599
27405W        W47685  14.775   2.040   0.936  0.2694 -0.3738  0.3120
27406W        W47686  11.330   2.956   0.317  0.0306 -0.0523  0.1377
27407W        W47687  18.253  16.706   4.480 -0.0068  0.2954  0.1247
27408W        W47688  10.112   1.992  11.779  0.1576  0.2217 -0.1270
27409W        W47689  12.953  14.121  14.109  0.0808  0.1291 -0.2050
27410W        W47690   3.646   5.412   1.542 -0.0668  0.0289  0.1704
27411W        W47691   8.160   9.860   0.222  0.1784  0.0250 -0.3070
27412W        W47692  14.975  17.259  12.297 -0.0245 -0.0298  0.0489
27413W        W47693   0.971   8.729  10.655  0.1641 -0.1404  0.1793
27414W        W47694  16.814   8.412   0.894 -0.0693 -0.1965 -0.2709
27415W        W47695  15.500   5.861  11.989 -0.1991  0.0471  0.0407
27416W        W47696  16.704  16.758  11.004 -0.0012 -0.0893  0.1049
27417W        W47697   0.960   1.018   1.729  0.0120 -0.0624 -0.3794
27418W        W47698  18.622   5.383   2.293  0.0736 -0.0802  0.0356
27419W        W47699  16.809  18.761  10.802  0.0869 -0.2068 -0.2720
27420W        W47700   5.687   3.096   3.726  0.1213  0.1276 -0.0336
27421W        W47701  17.823   1.398  11.040 -0.2285 -0.1640  0.1681
27422W        W47702   5.966  14.414  13.039  0.0658 -0.1243 -0.1607
27423W        W47703  17.278  16.059   1.078 -0.4194 -0.0741  0.1019
27424W        W47704   0.872  14.250  11.826  0.2249 -0.3648  0.2162
27425W        W47705  10.635   3.373  10.337 -0.0506 -0.3085  0.1880
27426W        W47706   7.432   6.589   1.604  0.3202  0.0607  0.0340
27427W        W47707   0.880  11.368   3.265 -0.1354  0.0128 -0.1164
27428W        W47708   4.044   2.041  12.131 -0.2771 -0.0749 -0.2154
27429W        W47709  16.748   8.959  13.960  0.0795  0.1598 -0.4087
27430W        W47710  17.992  15.751  13.757 -0.1884 -0.4327  0.2303
27431W        W47711  16.279   6.781  10.151  0.0088  0.1384 -0.0463
27432W        W47712  17.352   9.047  12.851 -0.0052 -0.3143 -0.1069
27433W        W47713  11.912   7.896   3.905  0.0767 -0.0178  0.1763
27434W        W47714  12.800  11.935   3.287  0.1860  0.2149 -0.4056
27435W        W47715  15.808   0.695   0.056  0.1152 -0.3519 -0.2066
27436W        W47716   8.787   6.361   3.133 -0.2129 -0.0780  0.5649
27437W        W47717  16.309  17.062  13.494 -0.1482 -0.1268 -0.0544
27438W        W47718   7.920   8.533  12.726 -0.2407 -0.1008  0.0798
27439W        W47719   6.738  10.255  12.244 -0.1685 -0.0614 -0.0179
27440W        W47720  10.149   5.750  11.384 -0.2044 -0.0096 -0.2425
27441W        W47721  10.379   3.147   9.980 -0.0095  0.1102 -0.2218
27442W        W47722  18.513   2.196  14.320  0.1131 -0.0192  0.0685
27443W        W47723  15.029   3.659   2.078 -0.2585 -0.0764 -0.1338
27444W        W47724  17.096   3.294   3.240 -0.2799 -0.1654  0.2132
27445W        W47725   1.367  17.579  13.851  0.2830 -0.3265  0.0308
27446W        W47726  13.787  13.701  11.852 -0.0432 -0.2881 -0.1367
27447W        W47727  19.335   0.246  13.157  0.4247 -0.0989 -0.2114
27448W        W47728   3.648   0.874  12.382 -0.0478 -0.0095 -0.2396
27449W        W47729   8.419  10.065   0.851 -0.1036  0.1432  0.2154
27450W        W47730   4.579  11.384   0.119  0.0922 -0.2011  0.0930
27451W        W47731   5.093  13.136  13.028  0.1488 -0.3476  0.3721
27452W        W47732  15.555   4.933   2.310 -0.4169  0.1000 -0.0418
27453W        W47733   6.586  12.506   2.779  0.1061 -0.0210  0.1904
27454W        W47734  10.010  11.888  12.555 -0.0652  0.1285 -0.0563
27455W        W47735  15.658  16.194  13.465 -0.0360 -0.1046  0.1491
27456W        W47736  19.090  15.978   1.051 -0.2474 -0.0808  0.1650
27457W        W47737   5.004   7.098   0.233  0.0115 -0.1574  0.0781
27458W        W47738   7.974   5.212  11.760  0.0996 -0.3773  0.2856
27459W        W47739   4.930   3.660  12.170 -0.0908 -0.3921 -0.0441
27460W        W47740   5.415  10.469  14.234 -0.1601 -0.4144  0.0545
27461W        W47741   0.752  10.797   1.774  0.1316 -0.1336  0.2275
27462W        W47742   8.999  10.854   0.948  0.2105  0.0255  0.0048
27463W        W47743  16.099  18.362   3.549  0.2852  0.0168  0.2175
27464W        W47744  11.413   7.967   3.644 -0.5064 -0.2811  0.0718
27465W        W47745   1.694  15.238   3.755  0.1166  0.0503 -0.0279
27466W        W47746   5.477  17.505   0.521  0.1234  0.1143  0.1644
27467W        W47747   2.818   6.257   4.549 -0.1102  0.2404  0.3828
27468W        W47748   9.925  12.131  13.987  0.3354 -0.0205  0.1041
27469W        W47749  18.335  17.722   1.025 -0.0368 -0.1891 -0.1580
27470W        W47750   0.955  12.003  12.630 -0.2389  0.2203  0.1198
27471W        W47751   2.614   1.546   2.179 -0.1923 -0.0084 -0.0884
27472W        W47752   5.524   3.988  13.912  0.0133  0.0396  0.0877
27473W        W47753   6.462  19.144   3.955 -0.0814 -0.1413 -0.4102
27474W        W47754  14.805  18.855  13.644 -0.0937 -0.0705 -0.0840
27475W        W47755  16.322   9.090  14.330  0.0477 -0.0830 -0.0474
27476W        W47756   5.505   1.655   0.242 -0.0422 -0.0048  0.1282
27477W        W47757   6.641  11.734   2.247 -0.1560 -0.2281  0.1072
27478W        W47758  14.993   0.577   4.635 -0.2405  0.0532  0.0406
27479W        W47759  17.543  18.306  13.534  0.2085 -0.1945  0.0851
27480W        W47760  17.125  13.027   3.018 -0.3111  0.2141 -0.2352
27481W        W47761   7.489   6.455   0.692 -0.1610 -0.0627 -0.0353
27482W        W47762  14.666  15.797  14.487  0.0450  0.3589 -0.4162
27483W        W47763  10.737  17.770  14.132  0.0484  0.1481 -0.1943
27484W        W47764  12.513   3.719   3.882 -0.1464 -0.0484 -0.1740
27485W        W47765  16.163   9.954   0.460 -0.2463 -0.0606  0.0561
27486W        W47766   1.397  15.621   0.835 -0.2472  0.2323 -0.1030
27487W        W47767   2.024   2.914  13.326  0.0444  0.0069  0.1552
27488W        W47768   9.044  14.742  12.947 -0.2067  0.2865 -0.1472
27489W        W47769  19.250   9.101   3.028 -0.2436 -0.0257  0.0166
27490W        W47770   9.341  13.903   0.760  0.0115 -0.1735 -0.1031
27491W        W47771  18.816  13.244  13.829 -0.1015  0.3238  0.0922
27492W        W47772  17.650   9.454   0.547  0.3993 -0.2963 -0.1136
27493W        W47773   1.177   6.780  12.513  0.0295 -0.2693  0.0071
27494W        W47774   9.318   1.773  10.808  0.2515  0.4493  0.1635
27495W        W47775  15.970   5.710   0.489  0.0964 -0.2736 -0.1676
27496W        W47776   9.032   5.066  12.172  0.1321 -0.2434  0.0605
27497W        W47777  13.389   9.885   3.907  0.0263 -0.1506 -0.0004
27498W        W47778  17.267   8.813  10.292  0.0593  0.1383  0.0766
27499W        W47779  18.713   8.401   2.495 -0.0586  0.2213 -0.0449
27500W        W47780  15.262   7.532  13.999 -0.1993 -0.0747  0.1154
27501W        W47781  19.402   4.638  13.681  0.0471 -0.4084  0.2779
27502W        W47782  13.169   7.582  12.217 -0.0619 -0.1910  0.0096
27503W        W47783   1.277  13.788   0.469  0.4978 -0.2295  0.0582
27504W        W47784   3.728   4.288  10.964 -0.1643 -0.3945 -0.0193
27505W        W47785  16.284   0.847  14.226  0.0855  0.2361 -0.0427
27506W        W47786   0.501  14.065  11.156  0.0722 -0.0178  0.0654
27507W        W47787   1.125   6.153  11.242 -0.1628  0.2710 -0.0574
27508W        W47788   1.363   4.472  10.787  0.0590  0.4358 -0.4522
27509W        W47789  15.595   3.168   0.950  0.0514  0.0725 -0.2146
27510W        W47790  15.762  17.403   0.615  0.1486 -0.3665  0.0838
27511W        W47791  18.295  13.052  11.343  0.1653  0.1685  0.0774
27512W        W47792  18.450  13.570  13.910  0.4353  0.2548  0.1885
27513W        W47793   9.808  17.692   2.491  0.1506 -0.3066 -0.2445
27514W        W47794  16.292  15.696   0.455 -0.1351 -0.0986  0.0874
27515W        W47795   3.816   9.442  10.572 -0.3706  0.0105  0.3122
27516W        W47796   9.207  19.396   1.318 -0.0327 -0.1444  0.0819
27517W        W47797  17.850  14.517  10.209 -0.3517  0.3101  0.2323
27518W        W47798  18.616   6.372   0.450  0.0977 -0.1669  0.3849
27519W        W47799  16.870  18.193  10.317  0.1054  0.2956  0.6922
27520W        W47800  18.124  11.460   1.497 -0.4066 -0.2119 -0.3061
27521W        W47801  18.120  11.461  12.116 -0.1233 -0.1480 -0.0934
27522W        W47802  14.296   0.306   3.896 -0.0606  0.0343  0.0753
27523W        W47803  10.177  11.858   2.125 -0.4182  0.3390  0.1483
27524W        W47804   7.885   6.570  12.428 -0.1915  0.0107 -0.0723
27525W        W47805   7.867  16.996   1.032  0.0698 -0.1824  0.0999
27526W        W47806   4.424  11.860   0.060  0.0567 -0.4066  0.1897
27527W        W47807   7.410   6.073  11.036  0.0005  0.2977 -0.0253
27528W        W47808  16.711  19.363   2.133  0.2611 -0.0486  0.2081
27529W        W47809   7.721  17.773  11.457 -0.4036 -0.0391  0.0266
27530W        W47810   5.628  18.655  12.057 -0.2322 -0.2343  0.0012
27531W        W47811   6.532   8.169  12.597 -0.0194  0.1085  0.0051
27532W        W47812  17.191  13.169  13.426  0.0579  0.0561  0.2347
27533W        W47813  18.129   9.154   8.991  0.2830  0.0965 -0.4482
27534W        W47814   5.840   3.018  14.389  0.1035 -0.0747  0.1331
27535W        W47815   6.845  12.434   3.677 -0.0214  0.1227  0.1970
27536W        W47816  11.624   5.628  11.582 -0.0681  0.2636  0.0171
27537W        W47817   6.166   9.920  11.689  0.0441  0.0862 -0.0128
27538W        W47818  14.429  13.118  10.838 -0.0130 -0.0152  0.0774
27539W        W47819  15.540  18.231   0.116 -0.1148 -0.1433  0.0964
27540W        W47820  19.330   9.944  13.833 -0.5058 -0.0626 -0.0781
27541W        W47821  18.118   0.579  11.455 -0.1006 -0.3763 -0.0006
27542W        W47822   7.482  11.287   1.293 -0.0147  0.3253  0.1949
27543W        W47823  16.788   0.496  11.332 -0.0938 -0.1445  0.0463
27544W        W47824   4.513  16.227  13.293  0.3603  0.1575 -0.3499
27545W        W47825   1.495   2.681   1.469 -0.2006  0.0393  0.1900
27546W        W47826   1.637   3.431   3.684 -0.1220 -0.2687  0.0489
27547W        W47827   5.732  13.689   2.392 -0.0582 -0.2955 -0.2269
27548W        W47828   5.908  16.381  14.178  0.0449  0.0307 -0.0811
27549W        W47829  17.169   4.826  10.924 -0.0014  0.0372  0.0743
27550W        W47830  17.750  16.402  14.377  0.2510  0.4412 -0.2879
27551W        W47831  13.583   2.607  12.956  0.1444  0.0844  0.0610
27552W        W47832  13.403   1.676  13.081  0.0629  0.0463  0.0482
27553W        W47833   9.815  12.277  13.376 -0.1293  0.0484  0.0514
27554W        W47834  12.756   8.080   3.570 -0.0130  0.1164 -0.2286
27555W        W47835  13.684   8.724  12.159  0.0564 -0.0350 -0.3622
27556W        W47836   2.782   5.154  11.597 -0.4228 -0.0236  0.1139
27557W        W47837   8.760   4.642   0.225  0.1861 -0.2028  0.1467
27558W        W47838  17.616   6.153   0.364 -0.0041  0.1505 -0.0289
27559W        W47839   7.776  17.560  14.224  0.0203  0.0902 -0.1108
27560W        W47840  18.941  17.601  12.544  0.0947 -0.0615 -0.1905
27561W        W47841  11.192  15.722  12.437 -0.2208 -0.1594 -0.0433
27562W        W47842  19.015  12.951  12.058  0.0870  0.0916 -0.1520
27563W        W47843  14.588  10.046  12.740 -0.0150  0.0426 -0.3353
27564W        W47844   7.088  17.200   0.578  0.3322 -0.0390  0.0348
27565W        W47845  16.242  10.581  12.332  0.0940 -0.1300  0.0659
27566W        W47846   1.375   1.235   1.331 -0.1273 -0.2027  0.1587
27567W        W47847   3.027  14.004  13.354  0.1277 -0.1058 -0.1707
27568W        W47848  13.905  13.944   3.955  0.0765 -0.0084 -0.1213
27569W        W47849   5.133   4.167  13.665  0.1093 -0.3121 -0.0057
27570W        W47850  13.262  11.740  12.595 -0.0079  0.0975  0.6675
27571W        W47851   9.781   2.202   0.739 -0.2744  0.0405 -0.2046
27572W        W47852  17.889  10.486   1.500  0.0413  0.0695  0.0997
27573W        W47853   3.779   1.044  13.501 -0.0610  0.1764  0.0267
27574W        W47854  11.343   3.388   2.788  0.2045 -0.0906 -0.2359
27575W        W47855  17.257   2.197  12.727 -0.0930 -0.1029  0.0623
27576W        W47856   8.366  10.680   3.203 -0.0025  0.0110  0.2138
27577W        W47857  17.165  18.594  10.500 -0.0926  0.0325 -0.3281
27578W        W47858  12.330  18.249   1.014 -0.0717  0.0115  0.0638
27579W        W47859  13.717   5.634  13.555 -0.1609 -0.0233 -0.3803
27580W        W47860   4.496  14.485   0.830 -0.2368  0.2236 -0.0844
27581W        W47861   7.072   5.613  13.238 -0.3068  0.2120 -0.0327
27582W        W47862   0.023  14.605  11.595  0.0383 -0.1900  0.0013
27583W        W47863  16.135  17.246   1.779  0.1046 -0.0136  0.0213
27584W        W47864  19.374  10.539  12.012 -0.0113 -0.4139 -0.1317
27585W        W47865  15.896  13.641   3.007 -0.1151 -0.1038  0.2139
27586W        W47866   4.680  14.045  12.419  0.0019 -0.0772  0.3117
27587W        W47867  12.125   5.361  12.481  0.1285  0.2617 -0.4958
27588W        W47868  16.192  13.731   0.070 -0.0342  0.3104  0.1022
27589W        W47869  14.752   3.317  11.353  0.1274  0.2477  0.1560
27590W        W47870   5.631  17.146   0.942  0.3517  0.1998  0.2599
27591W        W47871  10.298  14.592   0.222 -0.1847 -0.1543 -0.2260
27592W        W47872   2.505  11.712   1.122 -0.0390 -0.2721  0.1664
27593W        W47873  14.122  15.413  12.861  0.0387  0.3015 -0.0970
27594W        W47874   3.128   8.544   2.078 -0.1347 -0.3522  0.2640
27595W        W47875   0.694  17.489  11.879  0.0343  0.1812 -0.2781
27596W        W47876  14.019  17.328  14.445 -0.1693 -0.1759  0.0056
27597W        W47877  11.442  11.316   0.641 -0.2109  0.1911  0.0815
27598W        W47878  11.111   9.325   3.964  0.1714 -0.1785 -0.3138
27599W        W47879  16.882   2.846  10.271 -0.1229  0.0849  0.0294
27600W        W47880   7.428  11.784  11.452 -0.0784  0.0844 -0.4004
27601W        W47881   6.458  11.852  13.850  0.1403  0.1485 -0.0826
27602W        W47882  16.299   7.577   0.075 -0.1334 -0.5123 -0.4666
27603W        W47883  18.265   4.434   4.178  0.1082  0.1292  0.1680
27604W        W47884   2.996  15.392   0.581  0.2144 -0.1127 -0.1973
27605W        W47885  16.843   2.762   3.349  0.0416 -0.2633  0.1980
27606W        W47886   2.110   1.259   2.491 -0.3109 -0.0858 -0.1746
27607W        W47887  17.312   5.892   3.258  0.1012 -0.0152 -0.1480
27608W        W47888  12.415   1.279   2.496  0.1561  0.1156  0.0568
27609W        W47889  10.724   9.787  12.534  0.1790  0.1778  0.2972
27610W        W47890  18.471   3.254  13.482 -0.0477 -0.0675  0.2324
27611W        W47891  16.462  19.055  11.082  0.0753  0.1403  0.3090
27612W        W47892   4.262   1.466   1.147  0.0306  0.3678 -0.2754
27613W        W47893   8.881  10.704   0.010 -0.0264  0.2174  0.2939
27614W        W47894   2.035   0.919   0.894  0.0787  0.1451 -0.3513
27615W        W47895  17.786   0.850   0.501  0.0019  0.0508  0.0639
27616W        W47896   4.522   6.085   3.835 -0.0103 -0.2466  0.3160
27617W        W47897  10.207   4.883  11.836 -0.2778  0.1043 -0.5717
27618W        W47898   0.570   3.988  12.886  0.0492  0.1059  0.1395
27619W        W47899  15.452  13.526  11.531  0.0575 -0.0014  0.0950
27620W        W47900   6.550  16.971   2.760  0.0124  0.3075 -0.0268
27621W        W47901  16.540  18.569  11.188 -0.0562 -0.1083  0.2700
27622W        W47902   9.804   3.552   2.320 -0.0930 -0.1180  0.1814
27623W        W47903  18.865  13.585   0.214 -0.1377  0.0058 -0.1183
27624W        W47904   5.514  19.164   2.965 -0.4019 -0.1161 -0.2835
27625W        W47905  15.105  17.699  12.897  0.1578 -0.2194 -0.1785
27626W        W47906   6.800   5.802   3.267  0.1359  0.5480  0.1078
27627W        W47907   9.424  15.150  12.890 -0.0006  0.1953  0.1619
27628W        W47908   3.062   2.356   2.451  0.0731 -0.2411  0.2065
27629W        W47909   9.524  12.520  10.572  0.0536 -0.0971 -0.0657
27630W        W47910  16.592  12.832   1.065 -0.0818  0.0888 -0.1862
27631W        W47911  18.819  15.111  12.162 -0.0180 -0.2946 -0.0376
27632W        W47912   5.978  19.087   4.309 -0.3275 -0.0282 -0.1095
27633W        W47913  15.826   3.477   1.351  0.0183  0.4956  0.2838
27634W        W47914   0.500  17.026   4.140  0.0231  0.0024 -0.2937
27635W        W47915   3.464  10.747   3.627 -0.1047  0.0000  0.1320
27636W        W47916  11.710   5.494   3.723 -0.0288 -0.1487  0.1031
27637W        W47917   8.512   0.930   4.950 -0.1774 -0.1058  0.2304
27638W        W47918   5.876  13.429   2.814  0.0319  0.1838 -0.0980
27639W        W47919  13.484   6.908  12.603 -0.0523  0.0649  0.2724
27640W        W47920  11.638   5.735   2.013 -0.2090 -0.0549  0.0718
27641W        W47921   5.039   3.972   0.847  0.1931 -0.1074 -0.3518
27642W        W47922  17.012   7.191  14.350  0.0179 -0.1360  0.2140
27643W        W47923  14.246   3.168   0.645 -0.4112 -0.1596  0.0623
27644W        W47924   1.497  17.905  11.938  0.2428  0.0616 -0.0634
27645W        W47925  11.774   7.151  14.444 -0.0490 -0.0524 -0.0159
27646W        W47926   0.237   5.293  13.320 -0.2356 -0.2912  0.2644
27647W        W47927   0.956  14.980   9.958  0.2053  0.0593 -0.2444
27648W        W47928   4.870   1.855  13.179 -0.0575  0.1653 -0.2087
27649W        W47929  10.111  12.284   4.927  0.3126  0.0779 -0.1165
27650W        W47930   6.155  11.581  10.947 -0.1763  0.2569  0.0231
27651W        W47931  13.122  12.549   2.051 -0.2368 -0.0593 -0.0291
27652W        W47932  13.412   7.656  13.139 -0.0875 -0.3555 -0.1023
27653W        W47933  14.950  12.050   0.560  0.3588 -0.1099  0.0084
27654W        W47934   0.548   6.350   2.537 -0.1144 -0.0974  0.0198
27655W        W47935  10.337   1.799   2.142 -0.1102  0.2684  0.2310
27656W        W47936  10.772  15.965   2.823  0.0526  0.1061  0.1562
27657W        W47937  16.367   1.988  11.898  0.1381 -0.1451 -0.0671
27658W        W47938   4.173   8.975  11.340  0.1681  0.0751  0.1907
27659W        W47939   4.624  17.510  10.533  0.1135  0.1135 -0.0307
27660W        W47940   1.403   4.495  11.412  0.2478  0.0044  0.1314
27661W        W47941  15.954   7.365   2.902 -0.1154 -0.1965 -0.5103
27662W        W47942  14.331  18.283   9.929 -0.1900 -0.0491  0.0209
27663W        W47943  11.484  17.711  11.779 -0.5166 -0.2737 -0.1534
27664W        W47944   7.595   9.480   1.537 -0.1102  0.1552  0.2208
27665W        W47945   9.229   1.074  11.723 -0.2813  0.3607 -0.1425
27666W        W47946  13.421  12.700   2.436 -0.2547 -0.0478 -0.1563
27667W        W47947   1.891   5.934   3.622  0.1710  0.0596  0.2025
27668W        W47948  16.040   7.314  13.422  0.0474  0.2478  0.1573
27669W        W47949  16.717   0.991   0.527  0.0214 -0.1254  0.1156
27670W        W47950  19.033  13.749  13.774  0.1434 -0.1103  0.1072
27671W        W47951  13.584  13.939   2.583 -0.2120 -0.0634  0.0735
27672W        W47952  11.432  14.847   1.971  0.2697  0.1028 -0.3855
27673W        W47953   4.454   7.251   2.812 -0.1218  0.2094  0.1873
27674W        W47954  10.577  17.611  12.486  0.1179  0.1057  0.2249
27675W        W47955   4.484   3.620   1.790 -0.0979  0.1116 -0.2551
27676W        W47956   4.531  16.833   1.941 -0.2217 -0.4720 -0.0437
27677W        W47957   1.838  17.395  12.651  0.1940 -0.1057 -0.1072
27678W        W47958  17.122  18.677  11.474  0.0675  0.1459 -0.0474
27679W        W47959  14.905   0.381   3.048 -0.0653 -0.1245  0.0793
27680W        W47960   3.499  19.015  11.837  0.0964  0.0610  0.2956
27681W        W47961  12.689   3.846   1.374 -0.0584  0.2895  0.1238
27682W        W47962   3.482  13.862  11.704 -0.3659  0.0360 -0.0520
27683W        W47963   7.727   1.595   1.005 -0.0492 -0.3219  0.0861
27684W        W47964   5.526   5.956   3.790  0.0561 -0.2508 -0.3933
27685W        W47965  18.062   9.954   3.160  0.2508 -0.0809  0.2165
27686W        W47966   1.538   5.162  12.613  0.0573 -0.0836  0.1162
27687W        W47967  17.592   5.051   4.079  0.0179 -0.1070  0.0528
27688W        W47968   2.665   1.358  11.483  0.2628 -0.1263  0.1464
27689W        W47969  17.263   4.366  11.787 -0.1725  0.1089  0.1209
27690W        W47970   7.249  16.083   1.937 -0.0760  0.1172  0.0620
27691W        W47971   4.252  15.839  13.062 -0.0288  0.1395  0.1703
27692W        W47972   4.505   7.954   0.065 -0.0888  0.0563  0.1029
27693W        W47973   7.061  13.465  10.652 -0.1452 -0.1657  0.1252
27694W        W47974  15.146   1.084   3.971 -0.0163 -0.1296 -0.3294
27695W        W47975   6.340   1.110   2.288  0.1617 -0.2277  0.0439
27696W        W47976  11.370  14.922   1.103  0.2454 -0.1947  0.2349
27697W        W47977  12.056   9.054  12.466 -0.0102  0.1098  0.0097
27698W        W47978   0.344  12.455  12.022 -0.0718  0.0280  0.2487
27699W        W47979   1.148  11.385  11.749 -0.0721  0.2253  0.1029
27700W        W47980  15.883   9.125   0.164 -0.0518  0.1185  0.0741
27701W        W47981  18.179   6.278  12.422  0.0866 -0.1796  0.0576
27702W        W47982   6.394   9.902   0.819 -0.1944  0.0289 -0.0216
27703W        W47983   4.130   1.666   3.876  0.0353  0.0805 -0.1914
27704W        W47984  15.708  11.575  12.234  0.3373 -0.2513 -0.1147
27705W        W47985   7.316   6.245  12.473 -0.1866 -0.0768 -0.0564
27706W        W47986  13.566  18.214  11.194 -0.0618  0.1113 -0.0754
27707W        W47987  17.969  14.563  10.729 -0.0108  0.2573 -0.1060
27708W        W47988   4.442  11.136   1.203  0.1167 -0.2507  0.0621
27709W        W47989   6.038   1.516  12.993  0.2906  0.0530 -0.0247
27710W        W47990  13.906   1.068  13.783  0.2110 -0.3571 -0.0090
27711W        W47991   0.081  13.701  11.059 -0.0782  0.0609  0.1025
27712W        W47992   9.776  17.628  12.156  0.1585 -0.0653  0.0907
27713W        W47993  13.216  10.719   9.851 -0.1758  0.0174 -0.0202
27714W        W47994  10.138   6.604  12.192  0.1547  0.2597 -0.1667
27715W        W47995  11.735  14.369  10.780  0.2321 -0.1048  0.1042
27716W        W47996   1.126  15.316   0.361 -0.0406 -0.0955 -0.3236
27717W        W47997  15.697   2.357   0.805 -0.1353 -0.0455 -0.2875
27718W        W47998   7.489   5.805   3.372 -0.2174 -0.0406 -0.0177
27719W        W47999   9.559   8.360  12.410  0.2607 -0.2907  0.1364
27720W        W48000   3.041   4.378   0.855  0.1092 -0.0219 -0.2112
27721W        W48001   7.484   8.364   2.990 -0.0803 -0.1776 -0.0410
27722W        W48002  18.484  10.944  10.079 -0.0853 -0.0098  0.2044
27723W        W48003   5.531  12.340  12.471  0.0443 -0.2403 -0.0750
27724W        W48004   9.313  13.963   3.108 -0.0082  0.2814  0.0502
27725W        W48005  14.863   9.008  10.566 -0.1774  0.0947 -0.0974
27726W        W48006   7.911   5.596   3.342 -0.1208 -0.2203 -0.0570
27727W        W48007  17.630  17.793  13.266  0.0587 -0.3805 -0.0781
27728W        W48008  11.632  15.169  11.159  0.0209  0.1009 -0.2702
27729W        W48009  13.943  15.895   0.349  0.1942  0.2027 -0.0890
27730W        W48010  16.532   4.305   3.856 -0.1663  0.0610  0.0367
27731W        W48011   8.614   9.970  12.912  0.1910  0.0593  0.1765
27732W        W48012  10.361   7.507   0.219 -0.2324 -0.1180 -0.2352
27733W        W48013   9.281  18.540   2.399  0.0380  0.0292 -0.3619
27734W        W48014   5.270   1.969   2.208  0.1755  0.2117  0.0506
27735W        W48015   3.548  11.014  13.682  0.2265  0.0907 -0.0963
27736W        W48016   1.282   1.963  13.403 -0.1273 -0.1643  0.1986
27737W        W48017  16.292   5.839  11.406  0.1965  0.2654  0.3482
27738W        W48018   9.498  11.206   2.065 -0.2885 -0.2566  0.1692
27739W        W48019  18.898   8.107   1.727 -0.1687 -0.2429  0.1557
27740W        W48020   1.281  15.861   0.375  0.0972  0.2242 -0.0177
27741W        W48021   3.073   2.295  12.272  0.2652 -0.0097 -0.0609
27742W        W48022  14.739   7.548   2.738  0.0493  0.1820  0.3457
27743W        W48023  19.302  17.143  12.850  0.0607 -0.1895  0.0183
27744W        W48024   3.796  11.008  13.282  0.0890 -0.2349 -0.0484
27745W        W48025  12.079   9.704  14.324  0.1075 -0.0558  0.1307
27746W        W48026   2.169  15.142   3.884  0.0888  0.0306  0.1664
27747W        W48027   7.877  13.655  11.832  0.3395 -0.2187  0.3320
27748W        W48028   8.119   9.922  12.915  0.0868 -0.1837  0.0133
27749W        W48029  14.862   4.262   1.807 -0.1570  0.1012  0.1025
27750W        W48030   0.815   0.704  12.140 -0.1500  0.1157 -0.0412
27751W        W48031  13.859  15.546   2.378 -0.0196 -0.0491  0.0074
27752W        W48032  14.041   9.575  14.128 -0.0056 -0.1815  0.0167
27753W        W48033  15.103  13.510   3.376 -0.4669 -0.2904  0.0934
27754W        W48034  17.266   3.016   2.525 -0.1569  0.0909 -0.0883
27755W        W48035  14.613  12.330  12.881  0.4389  0.2049  0.0601
27756W        W48036   7.105  16.093  14.171 -0.3065  0.2922 -0.1566
27757W        W48037   7.756  12.235  13.530  0.3172  0.1749  0.1897
27758W        W48038  12.912   9.373   4.423 -0.3839  0.3538  0.0328
27759W        W48039  16.000   2.315  13.921  0.5000 -0.1785 -0.1813
27760W        W48040   7.902   9.070   1.862  0.3232 -0.1048 -0.1746
27761W        W48041   4.517   8.929  12.575 -0.1465 -0.2109  0.0154
27762W        W48042   9.268  14.017  14.183 -0.0048 -0.1644  0.3642
27763W        W48043   0.140   8.040   0.328  0.0409 -0.1969 -0.1894
27764W        W48044  18.407   0.385   1.928  0.0487 -0.0921  0.1276
27765W        W48045  17.088   6.850   2.853  0.2710  0.1641  0.0577
27766W        W48046   9.264  19.195  13.317 -0.1034 -0.2580 -0.0283
27767W        W48047  16.774   8.212   3.397 -0.2828 -0.2266 -0.0255
27768W        W48048   9.165  12.934   1.740  0.3140 -0.1436  0.1135
27769W        W48049  11.760  16.324   2.108 -0.1156  0.1372 -0.1752
27770W        W48050  12.793  15.232   0.334 -0.0989 -0.1945  0.3899
27771W        W48051   8.049   8.083   4.086  0.4076  0.2092  0.3998
27772W        W48052   8.445  15.561   2.410 -0.2731  0.0150  0.0099
27773W        W48053  18.866  17.009   3.297 -0.2730  0.3211  0.2860
27774W        W48054   4.677  18.647   1.562  0.1217  0.0955 -0.0159
27775W        W48055   1.003   7.825   1.039  0.1280  0.2201  0.0655
27776W        W48056   8.517  10.969  11.244  0.0621 -0.1605  0.2899
27777W        W48057  17.488   4.138   3.054 -0.1347  0.0757  0.0456
27778W        W48058   2.566   4.393  12.690 -0.3407 -0.1714 -0.0412
27779W        W48059  11.210  16.855   1.074  0.0200 -0.1957  0.0974
27780W        W48060  14.850   9.573   2.787  0.5925 -0.0433 -0.2283
27781W        W48061   7.532  11.634  14.275 -0.1688 -0.2326  0.2040
27782W        W48062  19.173  14.876   3.898  0.2478  0.0514 -0.2047
27783W        W48063   2.092  11.289  11.563 -0.0487  0.1356 -0.0117
27784W        W48064   9.978   7.754   1.702 -0.0993  0.0922 -0.0855
27785W        W48065  12.415  10.888   1.184  0.0410 -0.1217  0.2090
27786W        W48066   5.568  13.996  12.076 -0.0041  0.1034 -0.3528
27787W        W48067  16.720   6.311   3.119  0.1707  0.0502 -0.0055
27788W        W48068   2.405  12.774  11.279 -0.4185  0.2777  0.0726
27789W        W48069  13.987  12.669  11.513 -0.2185  0.3451 -0.0912
27790W        W48070   6.112  16.651   3.703  0.3324  0.1005  0.3030
27791W        W48071  14.249   8.766  11.057  0.2935  0.0329 -0.0834
27792W        W48072  18.662   1.176   2.967 -0.3232 -0.2934  0.0615
27793W        W48073   6.848  11.625   1.634 -0.0121 -0.2241  0.0666
27794W        W48074   7.681  12.607   0.396 -0.0979 -0.1939 -0.0032
27795W        W48075   0.444  10.520  13.653  0.0317  0.1518  0.0126
27796W        W48076   1.169  17.446   3.238  0.3765  0.0825  0.2605
27797W        W48077   6.078   8.116  12.406 -0.0343  0.3494  0.1407
27798W        W48078  15.182  11.552   1.772 -0.2240  0.3712 -0.0844
27799W        W48079   6.457   2.990  10.505  0.0805  0.0338 -0.1672
27800W        W48080   7.063   7.055  10.581  0.1816  0.0790 -0.0785
27801W        W48081  10.533  14.959   1.424 -0.0930 -0.2029 -0.2794
27802W        W48082  16.218  12.412   1.527  0.1160  0.0231 -0.0432
27803W        W48083  16.039   4.108  11.265 -0.3361  0.3030  0.1397
27804W        W48084   6.629  14.693  14.236 -0.0447  0.2920 -0.1632
27805W        W48085   9.025   0.397  12.250  0.0365  0.0565  0.1673
27806W        W48086   1.070   6.121   3.351 -0.2346 -0.3761  0.1396
27807W        W48087  10.848   1.926  11.217 -0.3599  0.0300  0.1531
27808W        W48088   1.789   1.678   2.443  0.1798  0.1314 -0.1627
27809W        W48089   1.695  15.340  13.714 -0.2130  0.3576  0.3034
27810W        W48090  18.301   3.163   2.479  0.2303 -0.0309 -0.2428
27811W        W48091  13.056   0.050   2.504 -0.2485 -0.1103  0.0881
27812W        W48092  12.940  11.566   1.581  0.1424  0.1233  0.0478
27813W        W48093   0.204   7.246   0.378  0.0973  0.0823  0.2968
27814W        W48094   9.842  15.700   1.515 -0.2913 -0.1375  0.0084
27815W        W48095   5.180   3.771   0.366  0.0835 -0.2573  0.1302
27816W        W48096   3.284   1.292   3.439  0.3546 -0.0648  0.0874
27817W        W48097   1.785  16.206  10.479 -0.0716 -0.1867  0.2497
27818W        W48098   4.889   1.375   3.306 -0.0478 -0.1701  0.1105
27819W        W48099   0.288   3.650   3.364 -0.1763  0.2876  0.1334
27820W        W48100   9.132   8.233  12.660 -0.3449  0.0554 -0.0324
27821W        W48101  12.255  15.921   3.824  0.2913  0.1004 -0.3620
27822W        W48102  15.489   1.669  13.555  0.3238 -0.1473 -0.0418
27823W        W48103   4.164  15.279  10.863 -0.2396 -0.1715 -0.2804
27824W        W48104   1.036   6.279  14.111 -0.2364 -0.0135  0.0829
27825W        W48105   7.202  14.446  14.270 -0.1175 -0.0603  0.0843
27826W        W48106  14.461   5.213   3.996 -0.3482 -0.2315 -0.3071
27827W        W48107   3.569   3.911  11.278  0.1959 -0.0697 -0.1871
27828W        W48108  10.191  12.963  10.833 -0.1817 -0.0412 -0.1005
27829W        W48109  10.464   7.276  14.210  0.1839  0.3884  0.1053
27830W        W48110   6.477  15.783   1.201 -0.3648 -0.1586  0.1144
27831W        W48111   2.716  17.487  13.423  0.2620 -0.0368 -0.1235
27832W        W48112   9.362  10.733  13.222 -0.1403 -0.1832 -0.2922
27833W        W48113  11.126   7.485   3.775  0.2600 -0.2633 -0.1161
27834W        W48114  10.911   7.124   1.522  0.0585 -0.0923 -0.2727
27835W        W48115  15.176   9.351  10.853 -0.0566 -0.0173 -0.1239
27836W        W48116   1.313   3.083   0.171 -0.1200  0.0322  0.1400
27837W        W48117  18.649  17.811  10.465 -0.1433  0.3302  0.1246
27838W        W48118   5.345   0.204   3.805  0.0556  0.0408 -0.3777
27839W        W48119   3.968   6.946   0.298  0.1655 -0.0020  0.1459
27840W        W48120  10.829  14.017  11.154 -0.1860 -0.0188 -0.3025
27841W        W48121  12.947   2.023  11.340  0.1174 -0.1639  0.2260
27842W        W48122  17.212  11.081  11.508  0.1194 -0.1215  0.2447
27843W        W48123   7.630   5.983   2.897  0.1605 -0.0414 -0.1665
27844W        W48124   6.058  16.938   0.033 -0.2743  0.2088  0.0950
27845W        W48125  13.418  11.708  13.219 -0.0586 -0.0432  0.2201
27846W        W48126   4.520   0.707   3.928  0.1930 -0.1219 -0.0527
27847W        W48127  16.857  15.075   0.154  0.1738 -0.1566 -0.0124
27848W        W48128  15.518  17.210  10.398 -0.0077  0.0624  0.0092
27849W        W48129   8.039   7.379   2.721 -0.2304  0.1501  0.0699
27850W        W48130   2.046   8.205  10.432 -0.2103  0.0392  0.2283
27851W        W48131  18.522  17.675  14.211  0.1469 -0.4506  0.0005
27852W        W48132  14.530   2.504  14.183 -0.1591 -0.1628 -0.0821
27853W        W48133   9.199  10.595  12.228 -0.2520 -0.0445  0.0231
27854W        W48134  10.329  11.115  11.987  0.2758 -0.1549  0.2314
27855W        W48135   4.418   0.968   1.138  0.2236  0.1018  0.1009
27856W        W48136  10.497  13.639   1.668 -0.3118 -0.0546 -0.3656
27857W        W48137   0.958  19.256  13.271  0.1954 -0.1442 -0.0051
27858W        W48138  17.015  15.451   3.434 -0.1787 -0.0282  0.1657
27859W        W48139   6.457   1.747   0.686 -0.1015 -0.0565 -0.0346
27860W        W48140   3.075   0.376   1.569  0.1721 -0.0411  0.1032
27861W        W48141  13.560   6.300   2.752 -0.1603  0.0568  0.4584
27862W        W48142   0.299  16.328  14.302 -0.2537  0.2796 -0.0398
27863W        W48143  17.485   7.903   0.431  0.0044 -0.1248  0.1463
27864W        W48144   4.364  18.381   2.401 -0.0696  0.0305  0.1323
27865W        W48145  16.419   0.655   0.235  0.1389 -0.1009  0.2376
27866W        W48146   2.829   6.913  14.334  0.2853  0.0508  0.2667
27867W        W48147  18.563   2.591   2.425 -0.2490  0.0704 -0.1514
27868W        W48148   5.197  14.876   0.576  0.1167 -0.0492  0.1605
27869W        W48149   3.428  11.005  12.940 -0.2016 -0.0786  0.1094
27870W        W48150  17.959  10.205  13.587  0.2578  0.3272  0.1264
27871W        W48151   6.261   2.694   4.806 -0.1500 -0.0434  0.2988
27872W        W48152   4.955   9.845   0.559 -0.1000 -0.1311 -0.0586
27873W        W48153  15.393   2.258   3.223  0.1618 -0.3666 -0.1934
27874W        W48154   9.906  15.579   2.774 -0.0816 -0.0550 -0.0303
27875W        W48155  18.622   1.125   3.568  0.2181  0.1665 -0.1038
27876W        W48156  10.855   1.651  11.998 -0.2010 -0.2556 -0.0908
27877W        W48157  11.637   3.044  11.650 -0.1335  0.2899  0.1411
27878W        W48158  16.696   4.080   2.270  0.2312  0.1718  0.0482
27879W        W48159   9.479  18.974   1.279  0.0206 -0.1380  0.1482
27880W        W48160   6.892  14.020   2.116 -0.2588 -0.1583  0.2214
27881W        W48161   8.655   2.256  12.684 -0.1951  0.1891 -0.1229
27882W        W48162  14.858   5.907  11.474 -0.2716 -0.0474  0.0923
27883W        W48163   0.847   5.881  14.426  0.2547 -0.1414 -0.2281
27884W        W48164  16.444  15.384   3.454 -0.1658  0.0058  0.0382
27885W        W48165   9.468   7.647   0.808  0.1811 -0.1524 -0.1120
27886W        W48166   0.642   0.202  11.432  0.1035 -0.1644  0.1663
27887W        W48167  16.097  17.358  12.119 -0.0833  0.1902  0.4396
27888W        W48168  10.715  10.227  13.933 -0.0799 -0.2077  0.0056
27889W        W48169  17.593   9.513  10.395 -0.0682 -0.2104  0.0216
27890W        W48170  15.334   4.935  12.148 -0.3641  0.0942 -0.2778
27891W        W48171  12.474   5.025  14.193  0.0637  0.0135  0.2394
27892W        W48172  12.813  13.306   2.676  0.3234  0.1309 -0.1241
27893W        W48173   2.340  15.006  12.911  0.0913  0.0083 -0.0075
27894W        W48174   0.436   2.983   0.633 -0.0278 -0.1837 -0.1384
27895W        W48175  11.380   2.263  13.006  0.1688  0.0853  0.0630
27896W        W48176  12.825   7.111   2.693  0.4272 -0.1167 -0.0190
27897W        W48177  11.896  15.139   2.076  0.1472 -0.4178 -0.1129
27898W        W48178   3.286  17.379  13.406  0.4546  0.3118 -0.2543
27899W        W48179   4.215  17.857  12.880 -0.2355  0.0369  0.1620
27900W        W48180  12.171  11.201  12.998  0.0740 -0.0887  0.1027
27901W        W48181  18.624   7.114  11.164  0.0346  0.0549 -0.1493
27902W        W48182   9.705   4.510  11.490  0.3502 -0.0273  0.0320
27903W        W48183   8.084  17.195   1.817  0.0053  0.2086  0.0786
27904W        W48184  17.973  10.409  10.706  0.4329  0.1718  0.0226
27905W        W48185  17.824   2.125   0.767  0.2756 -0.0803 -0.5036
27906W        W48186   7.553   6.699  10.547  0.0445 -0.2571  0.1341
27907W        W48187  15.913  10.837   4.828 -0.2458 -0.1383  0.1894
27908W        W48188   3.334  11.292   3.393  0.0539  0.1985 -0.1874
27909W        W48189   0.686   6.599  10.144  0.1005 -0.0461 -0.1191
27910W        W48190  11.177   4.349   2.165 -0.0541 -0.0266 -0.1904
27911W        W48191  14.015  15.466  11.764 -0.0834 -0.4316 -0.0557
27912W        W48192  17.140   4.837  12.365 -0.0654  0.0929  0.0315
27913W        W48193   6.235   4.590   0.879  0.0226 -0.1778 -0.2973
27914W        W48194   8.569   0.991  10.623 -0.3075  0.1379 -0.0472
27915W        W48195   0.511  16.350  12.136  0.3885 -0.0509 -0.1976
27916W        W48196   4.699   1.574   0.002 -0.2389 -0.0112  0.2405
27917W        W48197   0.847   5.088  13.328 -0.0503 -0.0449  0.0535
27918W        W48198   3.627  10.112  12.283  0.1538 -0.1830 -0.0815
27919W        W48199   8.835   4.426   1.918  0.0617 -0.0197  0.0254
27920W        W48200  16.365  16.896  10.610 -0.2901  0.1397  0.0453
27921W        W48201  19.018  17.447  11.532 -0.0897  0.2594  0.4064
27922W        W48202  11.115   7.528  11.617  0.3235 -0.2233 -0.0670
27923W        W48203   1.070  13.266  10.943 -0.3329 -0.0513  0.2464
27924W        W48204   7.787   3.353   1.203  0.2521  0.0615  0.1435
27925W        W48205   7.746   5.283   4.121 -0.0057 -0.3566 -0.0324
27926W        W48206  10.197  18.822  12.724 -0.1873 -0.0952 -0.2789
27927W        W48207   0.566  14.366   0.505  0.2388 -0.0278  0.1492
27928W        W48208  10.112   0.289   0.876 -0.0453  0.1952  0.2826
27929W        W48209  13.761   2.974   0.789  0.1447 -0.1810  0.1966
27930W        W48210   8.417   1.008   0.428 -0.4215  0.0852 -0.0705
27931W        W48211  16.313   8.881  10.414 -0.2569  0.0567 -0.1827
27932W        W48212   8.842   6.655   2.708  0.2467  0.0399 -0.0751
27933W        W48213   4.013   2.447   3.148 -0.2706  0.0890 -0.1143
27934W        W48214  15.752  12.996   0.715 -0.1495 -0.0245  0.1847
27935W        W48215   2.303   9.375   0.305  0.0046  0.3007  0.1158
27936W        W48216  11.186  13.915  11.934  0.2594 -0.3380 -0.2116
27937W        W48217   1.961   4.541  11.454 -0.3097  0.1785 -0.1833
27938W        W48218  18.475   5.144   3.184 -0.0645 -0.0609 -0.1169
27939W        W48219  12.157  12.703   4.142 -0.0634 -0.3528  0.0229
27940W        W48220  13.692   2.951  12.580  0.0924 -0.0431  0.4347
27941W        W48221  10.550  11.207  12.725  0.0084 -0.3936  0.0467
27942W        W48222  14.295  14.214   2.021 -0.0379 -0.1959  0.3010
27943W        W48223  17.051  11.597  11.346 -0.0660 -0.3683  0.2787
27944W        W48224  12.284   2.566   0.175 -0.2005  0.1994 -0.0528
27945W        W48225   0.801  13.751  10.522  0.0028 -0.0890  0.1072
27946W        W48226   5.629   9.818  11.647  0.0505  0.0415 -0.2017
27947W        W48227  11.643  10.982   9.488 -0.0332  0.1178  0.0661
27948W        W48228   4.866   6.933   1.565 -0.0479  0.1298  0.3089
27949W        W48229  18.156  17.539   0.579  0.1713  0.3430  0.0838
27950W        W48230   7.955  12.553  10.486 -0.0437  0.4351 -0.0610
27951W        W48231  11.544  12.537   0.447  0.1551 -0.2911  0.3160
27952W        W48232   8.728   6.767  14.091 -0.1036  0.0817 -0.0759
27953W        W48233   7.384   2.937  12.334 -0.1587 -0.0619  0.0406
27954W        W48234   9.155  14.763   1.366 -0.1420 -0.1767 -0.0401
27955W        W48235  15.549  15.509  13.024 -0.1586  0.2355  0.2220
27956W        W48236   8.801  19.319   2.033 -0.4356  0.0057 -0.3634
27957W        W48237  15.143  19.235  10.016  0.0058  0.3076 -0.3268
27958W        W48238   6.932   6.393   0.319 -0.0831 -0.0656  0.0707
27959W        W48239   1.361  13.678  12.924  0.0866 -0.0519 -0.0726
27960W        W48240  14.053  11.049  13.436 -0.0374  0.0525 -0.0681
27961W        W48241   7.139   5.709   1.522  0.0240  0.0958 -0.0199
27962W        W48242   0.927  17.449  12.320 -0.1958 -0.0274 -0.1890
27963W        W48243   1.931   8.828   2.624  0.0216 -0.3351  0.0424
27964W        W48244   4.781  15.305  12.968 -0.1848  0.2377  0.0644
27965W        W48245   5.544   9.957   0.459 -0.0333 -0.1259  0.0802
27966W        W48246  14.084   4.685  11.934 -0.2114  0.1641 -0.2142
27967W        W48247   9.828  18.486   0.315 -0.1386 -0.2114 -0.1770
27968W        W48248   7.203   9.655  12.965  0.0081  0.1692  0.1230
27969W        W48249   9.251   7.878   3.235  0.2110  0.1216 -0.0452
27970W        W48250   3.337   7.277  13.255  0.1954  0.0955  0.0301
27971W        W48251   5.097   7.343   2.823  0.0372  0.1454 -0.0407
27972W        W48252   9.099  15.136  10.492  0.1105  0.0683 -0.0124
27973W        W48253  11.549   2.245  11.667  0.1753  0.0847 -0.2828
27974W        W48254  19.160   0.586   3.982  0.1845  0.2351 -0.0569
27975W        W48255  14.151  13.930  12.110 -0.1314 -0.4757  0.2944
27976W        W48256   3.076   7.798  11.826 -0.3710  0.0506 -0.0451
27977W        W48257   9.967   4.477  12.076  0.2026  0.2520 -0.1177
27978W        W48258  17.099   1.277  11.563  0.0431 -0.1296  0.1292
27979W        W48259   7.509   4.253  12.824  0.3100  0.0827  0.2500
27980W        W48260  13.427  11.253  13.527 -0.1823 -0.1548  0.1236
27981W        W48261  10.118  19.384   1.382 -0.0952  0.1433  0.1064
27982W        W48262   5.892   0.409  11.212 -0.2354  0.1681  0.0340
27983W        W48263   7.165   6.803   0.558  0.1164  0.0115  0.2096
27984W        W48264   1.973  18.776  12.290 -0.3620  0.0799 -0.1867
27985W        W48265   5.045  15.957   3.382  0.2158  0.2641 -0.0957
27986W        W48266  18.945   4.241  12.512  0.2033 -0.0942  0.0175
27987W        W48267   5.235   4.343   0.558  0.0848  0.2582  0.2571
27988W        W48268   0.423   1.423   3.357  0.2421 -0.1757  0.1159
27989W        W48269  18.296   9.794  12.738  0.2027 -0.0218 -0.0241
27990W        W48270  12.319  12.006   3.439  0.2719  0.0824  0.0864
27991W        W48271  17.639   4.370   4.516  0.0412 -0.3111 -0.1833
27992W        W48272   8.294  16.713  10.969 -0.0214  0.1816  0.4908
27993W        W48273  12.586   0.559   1.011 -0.2089 -0.1752 -0.0227
27994W        W48274   3.021   3.175  11.251 -0.0218 -0.0983 -0.0077
27995W        W48275  17.341   8.821   2.381 -0.0455 -0.0088  0.1021
27996W        W48276   2.887   7.016  13.237  0.1292 -0.0560  0.3304
27997W        W48277  18.767  17.346  11.974  0.2733 -0.1068  0.0334
27998W        W48278  10.248   3.005  12.338  0.0018  0.0831 -0.1442
27999W        W48279   2.553  12.031  10.213  0.0277 -0.2128 -0.1649
28000W        W48280   5.881  16.317  12.743 -0.2086 -0.1566 -0.1077
28001W        W48281   1.165  19.206  12.772  0.4096  0.1832  0.1928
28002W        W48282   6.395  14.617   1.509 -0.2098 -0.0459  0.3478
28003W        W48283  13.269   7.378  12.688 -0.0316  0.2932  0.2617
28004W        W48284   2.294   7.679   1.675  0.0965 -0.0077  0.0121
28005W        W48285   9.602  19.372  14.476  0.0951 -0.0649  0.0304
28006W        W48286   5.817   9.928   1.626 -0.0588  0.2022  0.1425
28007W        W48287  19.104   1.573   3.750 -0.2645 -0.0119  0.0868
28008W        W48288   3.450   2.151   2.177  0.0362 -0.0028 -0.1271
28009W        W48289  18.728   7.398   2.847  0.0750  0.0105  0.1250
28010W        W48290   9.645  18.544  10.567 -0.1719  0.1444 -0.1295
28011W        W48291   0.645  13.909  12.195 -0.0310 -0.1858 -0.0759
28012W        W48292   7.768   0.688   2.499  0.1550 -0.1851  0.1294
28013W        W48293  14.636   5.595  11.722  0.1806 -0.2328 -0.4534
28014W        W48294  15.952   0.952   2.811  0.0573 -0.2015  0.2179
28015W        W48295   3.587   1.616  11.398  0.1026 -0.2326 -0.1274
28016W        W48296  18.148  14.341   1.137  0.3615  0.2273 -0.0901
28017W        W48297   5.339  13.069   3.414  0.1754 -0.4083 -0.1466
28018W        W48298  10.849   7.943  13.889 -0.2124  0.1918 -0.0284
28019W        W48299  12.996  16.816   3.063 -0.1950 -0.2314 -0.1504
28020W        W48300   9.692  13.787   0.459 -0.0989 -0.2161 -0.0040
28021W        W48301   8.710   2.074  12.211  0.3944 -0.0018  0.0802
28022W        W48302   6.182   0.617   0.502  0.0531 -0.0885  0.0905
28023W        W48303   6.353  12.656   3.739  0.1534 -0.1466  0.3169
28024W        W48304   0.589  14.961  13.301  0.2315 -0.1695 -0.0012
28025W        W48305  16.252   2.927   3.120 -0.0017  0.0408  0.0135
28026W        W48306   2.141   8.470   0.536  0.1405 -0.0136 -0.1812
28027W        W48307  17.611  16.420   0.706 -0.0576 -0.3059 -0.3244
28028W        W48308  11.448   6.786  12.106  0.0186  0.0673 -0.0961
28029W        W48309   8.962   3.161   1.753  0.0531 -0.0888 -0.2353
28030W        W48310  16.291   6.180   1.749  0.3405  0.4351 -0.0608
28031W        W48311   8.473  15.415   1.001 -0.0523  0.0668  0.3538
28032W        W48312   8.725   5.722  12.926  0.5496  0.3885 -0.2916
28033W        W48313   1.744   5.897  13.137  0.2211 -0.0942 -0.3110
28034W        W48314  10.356   3.378  10.934  0.1409 -0.0519  0.0912
28035W        W48315   0.967  10.830   3.159  0.3289  0.1314 -0.3134
28036W        W48316   4.358  16.800  11.791  0.0229  0.2511  0.0347
28037W        W48317   5.462   3.590   1.455 -0.0336 -0.0053 -0.0267
28038W        W48318  13.535   4.293   1.104  0.2822  0.0218  0.1802
28039W        W48319   8.341  12.638  12.826 -0.1091 -0.0422 -0.0437
28040W        W48320  16.598   3.723  11.969 -0.2351 -0.1965  0.0127
28041W        W48321   4.105   0.266   3.638  0.2033  0.0168 -0.0973
28042W        W48322   2.959  11.930  13.915  0.0231  0.1269 -0.0668
28043W        W48323  14.644   6.465  12.724  0.0041  0.3696  0.1642
28044ION     NA48324  13.845  10.920   3.084  0.1154  0.1836  0.1089
28045ION     NA48325  10.053   9.921  11.146  0.1532  0.1551 -0.0120
28046ION     NA48326   1.840   5.360   4.386 -0.0239  0.1603 -0.1775
28047ION     NA48327  17.928   0.005   9.822 -0.1329 -0.0056  0.1787
28048ION     NA48328  14.009   3.310  10.006  0.0643 -0.0640 -0.0723
28049ION     NA48329  18.369   3.112   3.423 -0.0275  0.1120  0.4646
28050ION     NA48330   9.059   8.886   9.645 -0.0575 -0.0501  0.0063
28051ION     NA48331   4.638  14.781   0.052 -0.2812 -0.1263 -0.2899
28052ION     NA48332   3.277  10.707  10.401 -0.0849 -0.4437  0.3652
28053ION     NA48333   1.727  13.401  12.634  0.1113 -0.0485 -0.0634
28054ION     NA48334   6.705  14.525   9.496  0.1467 -0.0660 -0.0876
28055ION     NA48335  17.313  12.335   9.854 -0.1172  0.3806  0.1595
28056ION     NA48336   1.719   5.494  12.279  0.1060 -0.0247  0.2865
28057ION     NA48337   0.350  13.533   9.356  0.1402  0.3611  0.0137
28058ION     NA48338   1.234   8.237   1.074 -0.1645 -0.0187  0.2038
28059ION     NA48339  11.168   7.991  14.476 -0.0187  0.0756  0.1768
28060ION     NA48340   0.823   0.137  12.889 -0.0745  0.2437 -0.0770
28061ION     NA48341  15.924   0.975   4.974 -0.0117  0.2870  0.3374
28062ION     NA48342   4.757   1.338  10.380 -0.1048 -0.1017 -0.0284
28063ION     NA48343  10.401   0.615  10.609 -0.0018 -0.1847 -0.1140
28064ION     NA48344  12.187   2.291   9.845  0.1853 -0.0805  0.0839
28065ION     NA48345   8.993   7.768   4.862  0.2244  0.1694 -0.1682
28066ION     NA48346   7.313  13.219   4.508  0.1965  0.1964 -0.1028
28067ION     NA48347   9.834   3.022   0.471 -0.0257 -0.0452 -0.0619
28068ION     NA48348   2.884  19.002   4.605  0.1633  0.3430 -0.0099
28069ION     NA48349  10.741  12.113  11.852  0.1693  0.2821 -0.0026
28070ION     NA48350   1.394   0.546   3.305  0.0915  0.2195  0.0322
28071ION     NA48351   4.384  12.973   9.654 -0.2408  0.2517 -0.1214
28072ION     NA48352   4.139  19.328  10.360 -0.1114 -0.2064 -0.0269
28073ION     NA48353   2.768   5.400   9.985 -0.0726  0.1853 -0.1708
28074ION     NA48354  13.591   5.777  10.176 -0.1439 -0.3101 -0.0760
28075ION     NA48355   7.031   3.986   4.816  0.2539 -0.0241 -0.1810
28076ION     NA48356  17.061  13.415   4.605 -0.1060  0.0660  0.0680
28077ION     NA48357   2.656   0.936   4.934 -0.1068  0.0380  0.1741
28078ION     NA48358   5.184   4.192   5.034  0.0856  0.2946  0.1448
28079ION     NA48359  10.624  12.160   4.885  0.0160 -0.2955 -0.0814
28080ION     NA48360  10.615   5.015  13.099  0.0286  0.1730  0.0893
28081ION     NA48361   0.421  17.631   9.706  0.2920 -0.2943 -0.1854
28082ION     NA48362   1.981   2.859  10.167  0.1448  0.0130 -0.0201
28083ION     NA48363   3.992  10.176   9.356  0.0540 -0.1330  0.0292
28084ION     NA48364  14.142  18.166   2.425  0.1878  0.0041  0.2410
28085ION     NA48365  17.962   1.910   1.965  0.0124 -0.2473  0.0187
28086ION     NA48366   4.904  16.030   9.837  0.3200 -0.0448  0.0119
28087ION     NA48367  12.138   0.523   1.111  0.0048 -0.3067 -0.2093
28088ION     NA48368  15.614  14.569   9.954 -0.2095 -0.1336 -0.2834
28089ION     NA48369   9.275  11.013  10.468  0.0198  0.0142 -0.1820
28090ION     NA48370   0.881  13.316   9.236  0.0322  0.0924 -0.0709
28091ION     NA48371   1.504   7.437  13.484 -0.0176 -0.1857  0.0875
28092ION     NA48372   3.239   1.457   2.130 -0.0427  0.0962  0.1671
28093ION     NA48373   2.411  13.155   2.369 -0.1339 -0.2000  0.1537
28094ION     NA48374   8.409  14.148   0.012  0.1904  0.1649  0.3050
28095ION     NA48375   4.115  14.642  11.492 -0.0674 -0.1324  0.3368
28096ION     NA48376   2.024  13.644   4.609 -0.0989  0.0698 -0.2132
28097ION     NA48377  18.343  11.536   4.209 -0.1393  0.1476 -0.3424
28098ION     NA48378   5.569  11.122   2.068 -0.0964  0.0971  0.1161
28099ION     NA48379   8.771   0.994  10.135 -0.2054 -0.0452 -0.2758
28100ION     NA48380   3.108   6.724   3.930 -0.4150 -0.1270  0.1201
28101ION     NA48381  17.489   0.960   9.668 -0.4839 -0.0748 -0.3643
28102ION     NA48382  13.959   8.530   0.824  0.2116 -0.1795 -0.1733
28103ION     NA48383  17.190   9.321  10.717  0.0302 -0.1826  0.1369
28104ION     NA48384   5.147   6.969   4.914 -0.1577  0.2126  0.0954
28105ION     NA48385  13.175  13.269  10.113 -0.4730  0.3515  0.1737
28106ION     NA48386   7.881   1.924   1.825  0.0364  0.4318 -0.0526
28107ION     NA48387  18.742  10.541   0.914 -0.1463 -0.2147 -0.1718
28108ION     NA48388  17.806   0.341   4.841 -0.4248  0.2631  0.3346
28109ION     NA48389   8.491   6.038   9.933  0.0293 -0.1020  0.0176
28110ION     NA48390  11.148  11.786   9.504  0.1166 -0.1789 -0.2978
28111ION     NA48391  13.018   0.196  12.309 -0.1601 -0.0893 -0.3218
28112ION     NA48392  17.411  14.528  12.601  0.1432  0.1985  0.4217
28113ION     NA48393  18.798   3.075  12.193 -0.0757 -0.1227 -0.0972
28114ION     NA48394  15.768  13.338  12.699  0.3495 -0.0848 -0.1401
28115ION     NA48395  11.045   8.017  10.032  0.0941 -0.0380  0.0773
28116ION     NA48396  19.077   9.715   4.032 -0.2166  0.0883  0.0797
28117ION     NA48397  18.268  18.053   4.915 -0.0474 -0.0949  0.0040
28118ION     NA48398   7.677   3.346   4.910 -0.3380  0.1844 -0.1738
28119ION     NA48399   0.824   2.001  13.584 -0.1620 -0.0145 -0.0950
28120ION     NA48400  18.262   2.396   0.620 -0.1201 -0.1819 -0.2071
28121ION     NA48401   0.473  10.589   9.970 -0.2527  0.1367  0.0679
28122ION     NA48402   4.633   9.437   4.667 -0.1409 -0.2810  0.1416
28123ION     NA48403   4.504   9.234   9.778  0.1205 -0.2399 -0.2144
28124ION     NA48404   2.199   8.156   9.608 -0.0092 -0.2453 -0.1701
28125ION     NA48405  15.613  16.651  11.113 -0.3085 -0.0537 -0.0606
28126ION     NA48406   0.133   6.929   0.787  0.4258 -0.2476 -0.0746
28127ION     NA48407   2.858  18.966   9.954  0.1183  0.0652 -0.0318
28128ION     NA48408   3.409  14.140   0.405 -0.2352 -0.1013 -0.0460
28129ION     NA48409  18.605   1.081   4.850 -0.1637  0.0082 -0.0266
28130ION     NA48410   7.538   1.979   4.935  0.1851 -0.0010  0.1408
28131ION     NA48411   7.546  17.482  10.027 -0.1362  0.0191  0.3607
28132ION     NA48412   4.951  17.906   0.125  0.1243 -0.0170  0.0350
28133ION     NA48413  18.175   1.796   5.156 -0.2436 -0.5838  0.2256
28134ION     NA48414   8.026   2.584   9.881  0.4426  0.0748 -0.1719
28135ION     NA48415  18.660   6.077  13.617 -0.2973  0.0593 -0.1642
28136ION     NA48416   1.176   9.578   9.457  0.0180  0.0115 -0.1389
28137ION     NA48417   9.284   5.640   9.832 -0.1407 -0.2037 -0.2639
28138ION     NA48418  18.362  14.891   2.883 -0.0025  0.0354 -0.2852
28139ION     NA48419   3.284  11.787   0.003 -0.2370 -0.0515 -0.0047
28140ION     NA48420   7.658   7.491   4.510 -0.0252 -0.0786 -0.1737
28141ION     NA48421  12.982   3.606   5.065 -0.2014  0.0660 -0.1212
28142ION     NA48422   3.924  14.129  10.306 -0.2089  0.1282 -0.0604
28143ION     NA48423   4.178   9.243  12.278  0.0693  0.0265  0.3348
28144ION     NA48424  13.241   9.395   1.068  0.0006  0.0407  0.1344
28145ION     NA48425   2.890   8.554   9.945  0.0930 -0.0887 -0.0423
28146ION     NA48426  18.930   7.904  11.608 -0.0704  0.0707 -0.0954
28147ION     NA48427   8.276   5.236   2.040 -0.2134  0.4267  0.1369
28148ION     NA48428  16.214  11.010   9.477  0.2213  0.1779 -0.0853
28149ION     NA48429  13.107   6.372   5.110  0.0318  0.2190 -0.2718
28150ION     NA48430  17.020  18.272   3.761  0.1882  0.0331  0.2405
28151ION     NA48431  11.257   1.919   0.600  0.0915 -0.1522  0.3368
28152ION     NA48432  17.401  19.395  11.837  0.0266  0.1472 -0.3237
28153ION     NA48433  13.990   9.581   9.523  0.1507  0.1535  0.1628
28154ION     NA48434  11.620   4.133   2.355  0.2465 -0.2720 -0.0163
28155ION     NA48435  10.632   1.498   9.737  0.2812 -0.1607  0.3149
28156ION     NA48436   5.238   0.052   3.337 -0.0131  0.2098 -0.0934
28157ION     NA48437  10.937  17.632   4.791  0.0434  0.0065  0.0267
28158ION     NA48438  10.426  11.419   9.595  0.1714 -0.1539  0.3697
28159ION     NA48439   4.146  15.578   9.620 -0.1420 -0.0553  0.3931
28160ION     NA48440   5.401   4.365   9.655  0.1325 -0.1546  0.0331
28161ION     NA48441   0.123  19.354  11.014  0.0229  0.1261 -0.0723
28162ION     NA48442   2.809  15.148   4.590  0.0734  0.2581 -0.1278
28163ION     NA48443  11.997   1.171   0.549 -0.0815 -0.2851  0.0720
28164ION     NA48444   6.438  12.036   2.686 -0.0772  0.1263  0.2969
28165ION     NA48445   1.620  19.236   0.007 -0.0806 -0.4412  0.3462
28166ION     NA48446   1.634  16.569   2.055  0.0837  0.2479  0.0612
28167ION     NA48447  12.206  13.923  12.011  0.0957 -0.2134  0.0934
28168ION     NA48448   1.273   9.957  13.706  0.1604  0.0808 -0.2768
28169ION     NA48449   8.405   4.153  14.179 -0.0339 -0.1433 -0.1245
28170ION     NA48450   8.274   9.693   4.617 -0.3117  0.2616 -0.0700
28171ION     NA48451   8.831  12.805  13.711 -0.0675 -0.1203  0.0669
28172ION     NA48452   9.259  12.223   1.084  0.0195  0.0257 -0.0324
28173ION     NA48453  14.970  11.355   3.505 -0.0346  0.0229  0.1838
28174ION     NA48454  11.236  11.388   4.737  0.1755 -0.0227  0.0986
28175ION     NA48455  12.261  15.690   9.615 -0.1381 -0.2808  0.4051
28176ION     NA48456   5.956   8.006   4.755  0.0189  0.0164 -0.1318
28177ION     NA48457   0.372   5.080  10.157  0.0159  0.0829  0.2186
28178ION     NA48458   0.969   0.228  10.049  0.0026  0.1324  0.2513
28179ION     NA48459  16.193  13.437   4.697 -0.0825  0.0434 -0.1093
28180ION     NA48460  14.169   1.318   9.960  0.2855 -0.0910 -0.1512
28181ION     NA48461   3.191   6.806  10.114  0.0882 -0.1911 -0.1988
28182ION     NA48462   7.098   4.155  10.919 -0.0916 -0.1072 -0.4467
28183ION     NA48463   4.429   4.142   9.793  0.3009 -0.0156 -0.0301
28184ION     NA48464  12.774   8.612   9.811 -0.0485 -0.1689 -0.3174
28185ION     NA48465   3.321   7.322   4.853  0.0743 -0.0055  0.1512
28186ION     NA48466  18.622   3.458  11.405  0.2221  0.1861  0.1498
28187ION     NA48467   6.031  10.376   9.647 -0.0703  0.0883 -0.0691
28188ION     NA48468  17.461   8.089   4.307 -0.0571 -0.1352 -0.2557
28189ION     NA48469   6.661  14.007   0.240  0.1948 -0.0362 -0.1377
28190ION     NA48470  18.177  16.183   0.184  0.0062 -0.0012 -0.0875
28191ION     NA48471   9.957  18.706   2.100  0.2126 -0.0731 -0.0423
28192ION     NA48472   8.154   4.625   1.503 -0.2527  0.2939  0.0631
28193ION     NA48473  12.874  11.597   9.875  0.0835  0.3063 -0.0082
28194ION     NA48474  10.053  12.518  10.644 -0.5027 -0.1453 -0.0913
28195ION     NA48475   6.074   3.461   5.003 -0.1550  0.2990 -0.0677
28196ION     NA48476   7.083   7.290   9.737 -0.0871 -0.3042 -0.0934
28197ION     NA48477   2.706  14.820   1.814  0.0852  0.3455 -0.1305
28198ION     NA48478  15.690   8.256   4.408  0.0466  0.1546 -0.1402
28199ION     NA48479  16.538   2.357   2.308 -0.1604  0.2789  0.2496
28200ION     NA48480  10.413  15.796   4.791 -0.0504 -0.0047  0.1486
28201ION     NA48481  14.130  11.823   9.899 -0.2337 -0.0804  0.0653
28202ION     NA48482   1.580  12.124  11.949 -0.5721 -0.2558  0.1368
28203ION     NA48483  13.486   4.134  13.282  0.3934  0.0419  0.0009
28204ION     NA48484   2.764  16.437   4.928 -0.1871 -0.0268  0.1721
28205ION     NA48485   2.248   1.518  13.392  0.0829  0.1057 -0.0244
28206ION     NA48486  17.621  15.664   4.905 -0.3023 -0.0252  0.0942
28207ION     NA48487   3.682   9.294   9.426  0.1218  0.1125 -0.2784
28208ION     NA48488   1.103   2.725   9.890  0.2060  0.0425 -0.1029
28209ION     NA48489  16.849  14.375   1.385 -0.2527 -0.1525 -0.0114
28210ION     NA48490  11.131   5.191   1.619 -0.1232 -0.1004 -0.0748
28211ION     NA48491  10.501   2.697  13.362  0.2223  0.1001 -0.1052
28212ION     NA48492   4.836   1.951   3.873 -0.0915  0.0942  0.4625
28213ION     NA48493  15.461   6.746  11.892  0.0697 -0.1871 -0.1660
28214ION     NA48494  19.115   7.804   0.493 -0.1074 -0.0749 -0.1007
28215ION     NA48495   1.327  14.208   3.035 -0.0135  0.3560  0.1650
28216ION     NA48496  18.317   0.979   1.246  0.0500  0.0012 -0.2614
28217ION     NA48497  15.949  11.973   9.855  0.0369  0.1884  0.0249
28218ION     NA48498  17.726  17.610   9.660  0.0936 -0.0798 -0.1426
28219ION     NA48499   1.433   4.016   1.816 -0.0869 -0.0968 -0.2335
28220ION     NA48500  16.763  10.295   9.378  0.0710 -0.0445 -0.1400
28221ION     NA48501   5.358  16.896  10.061  0.0363 -0.1520  0.1401
28222ION     NA48502   6.975   5.554  11.014  0.2292 -0.3224 -0.0999
28223ION     NA48503  18.307  15.262  11.111  0.3024 -0.1028 -0.2285
28224ION     NA48504  11.814  15.146   4.620 -0.1562  0.0323 -0.1343
28225ION     NA48505  19.272   7.353   2.821  0.0094  0.0579 -0.3637
28226ION     NA48506   7.973   4.023  10.824 -0.2321  0.0693  0.0238
28227ION     NA48507   9.707   8.987   4.592  0.2462  0.1229 -0.0957
28228ION     NA48508  11.358  15.624   9.800  0.0866 -0.1952  0.1085
28229ION     NA48509  15.215  11.086  13.420 -0.1236  0.2216 -0.1228
28230ION     NA48510  16.995   3.566   9.846  0.1398  0.0045  0.2169
28231ION     NA48511   6.486  10.773   2.106 -0.2523  0.1333 -0.0510
28232ION     NA48512   8.491   1.734   5.095  0.3332  0.0929 -0.1345
28233ION     NA48513   4.856   4.768   2.683 -0.0243 -0.0997 -0.0060
28234ION     NA48514   6.386  16.055  14.337 -0.0350  0.2574  0.3365
28235ION     NA48515  12.410   1.494   5.131  0.3965  0.0115 -0.1738
28236ION     NA48516   6.571   5.921   9.720 -0.1150  0.0132  0.0331
28237ION     NA48517   1.806  15.620  14.107  0.2671 -0.1073  0.2068
28238ION     NA48518  16.440  12.632   4.718 -0.1868 -0.1589  0.1894
28239ION     NA48519   0.287  11.797   0.477  0.0873 -0.1586 -0.2461
28240ION     NA48520  14.483   2.893   4.789  0.1307 -0.2093  0.0453
28241ION     NA48521  15.391   3.883   4.965  0.0973 -0.0767 -0.2449
28242ION     NA48522  19.280   3.391  10.175  0.1358  0.3368 -0.1465
28243ION     NA48523   8.533   0.312   4.249  0.0014  0.0112  0.0476
28244ION     NA48524   9.959   5.145  14.346 -0.1063 -0.3681  0.0415
28245ION     NA48525  10.103   7.721   2.556  0.1730 -0.0084  0.0113
28246ION     NA48526   9.146  18.053   5.047  0.0924 -0.0798  0.1824
28247ION     NA48527  12.891  18.966   4.775  0.1714  0.3448 -0.1534
28248ION     NA48528   0.727   1.151   3.643  0.0410 -0.0723 -0.0790
28249ION     NA48529  10.066   9.100   9.677 -0.1674 -0.1440  0.0054
28250ION     NA48530  13.341  15.328   9.835 -0.0580 -0.0047 -0.2648
28251ION     NA48531   3.432  11.839   9.436  0.0542  0.1264  0.2251
28252ION     NA48532   8.094  18.876  12.257  0.1144 -0.0791 -0.1045
28253ION     NA48533  18.046  13.329   4.620  0.1557 -0.0783  0.2599
28254ION     NA48534   3.834   4.481  13.898  0.0986  0.1209  0.0640
28255ION     NA48535   8.421   3.188   1.884  0.0323 -0.3646 -0.1175
28256ION     NA48536   3.138  14.812  11.783 -0.0516  0.1981 -0.0609
28257ION     NA48537   8.425  12.504   0.686  0.3009  0.2934  0.1127
28258ION     NA48538   9.677   9.490   0.304  0.1782 -0.0149  0.1797
28259ION     NA48539  10.285   8.532   9.803  0.3857  0.1146  0.3311
28260ION     NA48540  10.047   5.589   4.910 -0.0407  0.1854 -0.0351
28261ION     NA48541   7.070   5.227   9.827 -0.2173 -0.0794 -0.3037
28262ION     NA48542   0.744  12.554   4.147  0.1944 -0.2305 -0.0864
28263ION     NA48543   4.521   7.561   9.918  0.1464 -0.0844 -0.2319
28264ION     NA48544   8.987  10.543   1.423 -0.2773  0.1238  0.2067
28265ION     NA48545  10.697   0.080   4.110  0.1127 -0.0910  0.0852
28266ION     NA48546  17.605  11.423   9.449 -0.0297  0.4240  0.3385
28267ION     NA48547  10.562   4.030   1.807  0.2741 -0.2587  0.0245
28268ION     NA48548  10.982  18.502   0.991 -0.2136 -0.2558  0.1722
28269ION     NA48549   9.850  13.174   4.867 -0.0654  0.1664  0.0857
28270ION     NA48550  11.958   9.332  10.092  0.3564  0.1658 -0.0839
28271ION     NA48551   1.624  12.201   9.116 -0.0134 -0.2027 -0.2080
28272ION     NA48552   2.525  14.738   0.456  0.5473  0.0549 -0.0168
28273ION     NA48553   2.820  14.214   4.509  0.3366 -0.0352 -0.0288
28274ION     NA48554  18.589   7.186   1.000  0.1182  0.0172  0.3732
28275ION     NA48555   8.650   3.265   9.917  0.2375 -0.1497 -0.4146
28276ION     NA48556   1.648  10.532   4.250  0.0031 -0.0819 -0.0772
28277ION     NA48557   6.038  13.868   9.516  0.1436  0.2366  0.1054
28278ION     NA48558   0.285   3.847   4.945  0.0496  0.1677  0.0311
28279ION     NA48559   6.960  16.494   4.530  0.2505  0.2212 -0.1812
28280ION     NA48560  15.626   7.173   4.205 -0.1597  0.4190 -0.2185
28281ION     NA48561  10.876  12.078   2.824  0.1567 -0.1452  0.2096
28282ION     NA48562   1.899  14.899  13.188  0.1314  0.0677 -0.2542
28283ION     NA48563   2.575   3.831   5.110  0.2673 -0.0084 -0.2726
28284ION     NA48564  19.362   2.227  10.234 -0.1476 -0.0077 -0.1839
28285ION     NA48565   2.367   7.466   4.766 -0.3012 -0.1727 -0.0151
28286ION     NA48566  14.093   1.541   4.539  0.1858  0.2153  0.0653
28287ION     NA48567   8.390  17.539   2.000 -0.2037 -0.0516 -0.3021
28288ION     NA48568   5.496   6.761   1.584 -0.2460  0.2391  0.4019
28289ION     NA48569  14.798  15.614  13.715  0.1391  0.0447 -0.1403
28290ION     NA48570  17.164  13.266   0.365 -0.1757  0.0407 -0.1907
28291ION     NA48571   3.512  17.450   9.820 -0.0513 -0.0423 -0.0479
28292ION     NA48572  15.797   7.404   4.576 -0.0923 -0.0267 -0.2033
28293ION     NA48573  11.399   6.418   5.068  0.2736  0.1359  0.1075
28294ION     NA48574  15.070  11.352   4.641  0.3654 -0.0785  0.5508
28295ION     NA48575  16.938   7.155   9.676  0.2127  0.0913  0.2902
28296ION     NA48576   1.059   4.520   9.996 -0.0847  0.3988 -0.0943
28297ION     NA48577  17.345   8.867   1.804  0.1202 -0.3279 -0.0123
28298ION     NA48578   0.006   4.748   9.886 -0.0916 -0.0617 -0.1554
28299ION     NA48579   2.482   0.027  10.459 -0.0375 -0.1047  0.1287
28300ION     NA48580  12.202   2.505   5.027 -0.1245 -0.0189 -0.4140
28301ION     NA48581   2.690   8.577   0.745 -0.2703  0.1491  0.2236
28302ION     NA48582   8.204  13.238  12.638 -0.2232  0.0334  0.1171
28303ION     NA48583   6.582  16.052  11.651 -0.0075  0.0530 -0.1632
28304ION     NA48584   7.409  13.571   0.782  0.1682  0.0349  0.3076
28305ION     NA48585   7.771   2.867   3.001 -0.1912 -0.2084 -0.1021
28306ION     NA48586   6.467   8.190  11.687  0.0406 -0.1314  0.0802
28307ION     NA48587   3.277  10.808   9.160  0.1492 -0.0485  0.0693
28308ION     NA48588   7.591  10.651  14.133  0.0925 -0.0773 -0.0743
28309ION     NA48589  16.097   4.049  12.192  0.1908 -0.1686 -0.0023
28310ION     NA48590  12.239   9.206   9.626 -0.0270  0.3064 -0.1774
28311ION     NA48591   0.574  13.292  13.344 -0.3295 -0.0050 -0.0572
28312ION     NA48592  10.605  13.652  12.786 -0.0103 -0.1405 -0.1210
28313ION     NA48593   7.578   3.427   9.947 -0.0438  0.0180 -0.0702
28314ION     NA48594  14.594  18.316  14.259 -0.0565  0.2168 -0.2470
28315ION     NA48595   3.039  12.082   4.528  0.3040 -0.1140 -0.1735
28316ION     NA48596  19.398  10.428  13.529  0.2139 -0.1033  0.3913
28317ION     NA48597   4.762   6.953   2.565  0.3282 -0.1784  0.1188
28318ION     NA48598   1.520   9.274   4.135 -0.4132 -0.0173  0.0828
28319ION     NA48599   5.968  16.831   4.566 -0.1152  0.1033 -0.0025
28320ION     NA48600  10.773  14.328   9.906  0.0859 -0.0374  0.1456
28321ION     NA48601  11.968  11.621   9.495 -0.3883 -0.0252 -0.0586
28322ION     NA48602   2.747  17.912  10.080  0.0485 -0.2282 -0.0506
28323ION     NA48603  14.365  12.439  10.474  0.2845  0.3018  0.0501
28324ION     NA48604   4.003   7.663   4.847 -0.1877 -0.1044 -0.0260
28325ION     NA48605  12.808  18.442   1.748 -0.0526  0.1721 -0.0361
28326ION     NA48606   0.458  18.994   9.729  0.1334  0.2474 -0.2254
28327ION     NA48607   4.976   6.787   9.850 -0.0206 -0.0006  0.1304
28328ION     NA48608   3.195  17.924   5.114  0.1438  0.0031  0.1373
28329ION     NA48609   0.075  17.895   4.580  0.1177  0.1070  0.2543
28330ION     NA48610   8.346   2.667   5.219  0.0348  0.0668 -0.1517
28331ION     NA48611   9.784   1.458   5.089 -0.0138  0.0388 -0.0791
28332ION     NA48612   5.178   9.736   4.721  0.1146  0.3496 -0.0784
28333ION     NA48613   2.885   8.128   4.740  0.2626 -0.2750 -0.0666
28334ION     NA48614   3.570  13.348   9.181  0.2675 -0.0376  0.0340
28335ION     NA48615  13.566  15.957   0.694 -0.3428 -0.5061 -0.1928
28336ION     NA48616   1.999  12.978  11.524  0.3740  0.0814 -0.1184
28337ION     NA48617  13.859   8.486   3.086  0.2230 -0.0013 -0.0859
28338ION     NA48618  13.346   1.819  10.002 -0.1878  0.0437  0.1581
28339ION     NA48619  11.060  14.617   4.857 -0.0729 -0.1877  0.0633
28340ION     NA48620  16.101   0.818   2.320 -0.0077  0.0602 -0.1579
28341ION     NA48621   9.770  12.819   9.704  0.3697  0.1823 -0.1545
28342ION     NA48622   7.886   5.989   4.809 -0.1123  0.0096 -0.1863
28343ION     NA48623   2.466   7.201  13.520 -0.0957 -0.3013 -0.0004
28344ION     NA48624  17.135   9.831   4.335  0.0795  0.0178 -0.0432
28345ION     NA48625  13.205   3.528   9.850 -0.0018 -0.0272  0.2701
28346ION     NA48626  10.169  15.003   4.857  0.1145  0.1491  0.0977
28347ION     NA48627  10.535  11.103  11.114  0.0172 -0.1396 -0.1664
28348ION     NA48628  12.032   4.325   5.087  0.2926 -0.2239 -0.0893
28349ION     NA48629  16.405   8.089   9.709 -0.0829 -0.3465  0.1897
28350ION     NA48630   1.258   0.537   1.997  0.1477 -0.3443  0.2027
28351ION     NA48631  13.677  10.094   2.552 -0.0719  0.1147  0.0984
28352ION     NA48632  12.849  17.208   5.163  0.4071 -0.2242 -0.1728
28353ION     NA48633  12.662  13.746  14.238 -0.1600 -0.0043 -0.2266
28354ION     NA48634   6.137   3.706   2.539 -0.1763  0.1146 -0.1614
28355ION     NA48635  11.894  11.711  14.462  0.2840  0.3218 -0.0217
28356ION     NA48636   8.885  12.852   4.854  0.0507 -0.0874 -0.1218
28357ION     NA48637   8.946  10.937   9.565  0.0429 -0.3430 -0.1102
28358ION     NA48638   9.098  14.991   4.497  0.2206  0.1143 -0.1109
28359ION     NA48639   0.754   1.908  10.242  0.0680  0.0205 -0.0748
28360ION     NA48640  17.597   5.009   9.886 -0.0764  0.1097  0.4974
28361ION     NA48641  11.709   9.460  14.455  0.2251 -0.2270 -0.1010
28362ION     NA48642  14.548   6.721   4.455 -0.2902  0.1284  0.2685
28363ION     NA48643   9.306  19.257  11.201 -0.0365  0.0412 -0.0185
28364ION     NA48644   7.161  13.202  12.705  0.0544  0.2450  0.2302
28365ION     NA48645  12.289   3.217   4.975 -0.2118 -0.0864 -0.0204
28366ION     NA48646   8.669   8.109   2.238 -0.0529  0.3371  0.0608
28367ION     NA48647  12.694   8.604  13.259 -0.3057 -0.2334 -0.0946
28368ION     NA48648   6.349   5.273  14.044 -0.1406 -0.1807  0.1942
28369ION     NA48649   5.005   5.304  14.419 -0.0512 -0.0535  0.3974
28370ION     NA48650   8.615   0.844   1.574 -0.1962  0.2007  0.2020
28371ION     NA48651  19.378  18.837  14.172  0.0410  0.1539  0.0928
28372ION     NA48652   3.140   6.263   3.131  0.0650  0.1153 -0.0024
28373ION     NA48653  11.002   2.032   4.772  0.0570 -0.3502 -0.3794
28374ION     NA48654  16.968  14.335   9.909  0.0720 -0.3792  0.1632
28375ION     NA48655   5.012   5.159   1.148 -0.0242 -0.0965 -0.1354
28376ION     NA48656  12.114  16.467  11.246  0.2141  0.1312 -0.1836
28377ION     NA48657  13.167  14.916  11.715 -0.1187 -0.0613 -0.1539
28378ION     NA48658  15.891   1.902   4.782 -0.1171  0.0746 -0.1497
28379ION     NA48659   2.823  17.614   2.489 -0.2559 -0.1345  0.2426
28380ION     NA48660   9.351   2.155   5.069  0.0143  0.0106 -0.2708
28381ION     NA48661  12.229   6.492  10.143 -0.0941  0.0147  0.0382
28382ION     NA48662  17.359  12.570   4.413 -0.0711  0.1234 -0.1585
28383ION     NA48663  10.735   5.176   4.323 -0.0184 -0.2019  0.0224
28384ION     NA48664   5.482  18.232   4.521  0.1986 -0.1052 -0.1784
28385ION     NA48665  14.991  12.184   4.730 -0.1539  0.2004 -0.1508
28386ION     NA48666   7.064   0.533   0.695 -0.1076 -0.2240 -0.2621
28387ION     NA48667   6.777  10.973  13.774 -0.2521  0.0638 -0.1758
28388ION     NA48668   3.741  12.011   3.784 -0.0420 -0.1280  0.4138
28389ION     NA48669  16.270   9.910   4.260  0.0536 -0.0074  0.1252
28390ION     NA48670  14.610  13.404   4.275  0.0008  0.1537  0.1248
28391ION     NA48671   0.509   3.522   1.790 -0.0836  0.3249  0.2166
28392ION     NA48672   0.707   4.581   4.050  0.1679  0.1454  0.0623
28393ION     NA48673   0.357  15.086   1.663  0.2364 -0.1584  0.0356
28394ION     NA48674   8.726  13.764  13.815 -0.2589  0.3064  0.0013
28395ION     NA48675   6.551   3.280  13.052 -0.0313  0.3250 -0.0162
28396ION     NA48676   8.633   9.536   9.939 -0.2304 -0.1229  0.1924
28397ION     NA48677  10.992  19.127  10.005 -0.4234  0.2791 -0.2745
28398ION     NA48678  10.546  16.426   4.789 -0.1073  0.1301  0.2813
28399ION     NA48679  15.020  19.105   0.811 -0.2019  0.0483  0.0076
28400ION     NA48680  14.091   6.968   3.209 -0.2288  0.1789  0.0547
28401ION     NA48681  18.526   8.914   0.070 -0.0006 -0.3542  0.0683
28402ION     NA48682   6.428   8.785   4.906  0.2992  0.3042  0.2671
28403ION     NA48683  15.784   4.464   9.857  0.1259  0.2625 -0.0165
28404ION     NA48684  12.231  18.513  13.163  0.0721  0.0647  0.2590
28405ION     NA48685   8.032  14.898   4.542 -0.2112 -0.2127 -0.0648
28406ION     NA48686  15.399   0.280   4.735 -0.0091  0.0270  0.1868
28407ION     NA48687  14.827   6.879   1.111  0.2680  0.0050 -0.0640
28408ION     NA48688  11.953   4.874   3.053  0.0555  0.1557 -0.0995
28409ION     NA48689  11.092  12.832   4.575  0.2607 -0.3544  0.0561
28410ION     NA48690  15.707   0.984   9.847 -0.3347 -0.0261 -0.2798
28411ION     NA48691   7.788  16.339  11.715 -0.0693 -0.3610 -0.1629
28412ION     NA48692  14.070  12.784   9.615  0.0216  0.2929  0.1343
28413ION     NA48693  17.938  13.465  12.588 -0.1950  0.0946  0.2330
28414ION     NA48694  19.036  10.673   9.408  0.2909 -0.0108 -0.0056
28415ION     NA48695   3.445  13.249  13.846  0.3066  0.1090 -0.0791
28416ION     NA48696   9.746   8.039   4.837 -0.0847  0.0201  0.0832
28417ION     NA48697  13.852  12.524   2.827  0.0684 -0.0483  0.0034
28418ION     NA48698  10.958   3.281   5.011  0.1693  0.1308  0.0304
28419ION     NA48699   1.977   2.284   3.169  0.1676  0.0425  0.0674
28420ION     NA48700   4.703  13.981   4.568 -0.1522 -0.0373 -0.0653
28421ION     NA48701   4.135  10.112   3.619 -0.1606 -0.1477  0.0861
28422ION     NA48702   0.515  13.489   4.575  0.1099  0.1947 -0.2466
28423ION     NA48703   3.222   1.597   4.604  0.2991  0.1194  0.2884
28424ION     NA48704   0.373   4.362  13.589 -0.0185  0.1156  0.0015
28425ION     NA48705   7.801   7.762   9.547  0.0406 -0.1418 -0.2764
28426ION     NA48706  12.436  11.304   0.795  0.3089 -0.0789 -0.2356
28427ION     NA48707   3.545  10.992   2.535 -0.1195  0.0829 -0.2122
28428ION     NA48708  10.088  16.425   9.634 -0.2815  0.0115 -0.0772
28429ION     NA48709  14.584   1.480   1.074 -0.2701  0.4064 -0.1294
28430ION     NA48710  13.195   4.738   5.153  0.0666  0.1282  0.4951
28431ION     NA48711  14.139   1.652  12.795  0.2687  0.1325  0.1779
28432ION     NA48712   4.422   5.995   1.374  0.0464 -0.0617 -0.0522
28433ION     NA48713  14.724   8.342   1.869 -0.1823  0.0291 -0.0561
28434ION     NA48714  17.780  13.112   9.740  0.1239  0.0891  0.0428
28435ION     NA48715  13.081   7.889   3.210 -0.2851 -0.2017 -0.1516
28436ION     NA48716  18.656  15.430   4.788  0.0454  0.4326  0.0559
28437ION     NA48717  12.697  11.414   4.509  0.0073  0.1997 -0.2043
28438ION     NA48718   0.068  14.469   0.687  0.1020 -0.2006  0.1956
28439ION     NA48719   7.705  15.804   4.130 -0.2906  0.0487 -0.3265
28440ION     NA48720   9.225   0.167   9.956 -0.2932  0.2111 -0.2861
28441ION     NA48721  13.743  15.697   4.694  0.1734  0.1240 -0.0201
28442ION     NA48722  16.089   2.262   9.825  0.0792 -0.0028 -0.0064
28443ION     NA48723   0.343   2.003   4.653  0.0562  0.0674  0.0473
28444ION     NA48724   9.814   2.186  11.323 -0.2726 -0.1978 -0.2280
28445ION     NA48725  14.432  11.514  13.258 -0.1339 -0.1108 -0.0404
28446ION     NA48726   3.859  10.610   0.178  0.1881  0.1747 -0.3766
28447ION     NA48727   6.203  14.832   4.771 -0.1522 -0.2680 -0.1528
28448ION     NA48728  19.000  16.174   4.980  0.0599  0.0667 -0.2985
28449ION     NA48729  16.163  16.455   0.974 -0.4254  0.1017 -0.1745
28450ION     NA48730   4.207   4.459   5.050 -0.1097 -0.1075  0.0445
28451ION     NA48731  13.476  16.573   4.975 -0.0023 -0.0731  0.0922
28452ION     NA48732  13.960   4.912   3.260 -0.1398  0.0511  0.1516
28453ION     NA48733   3.348  17.150  11.612 -0.1800 -0.0200 -0.1223
28454ION     NA48734  18.917   2.489   5.115  0.0046  0.2638 -0.0547
28455ION     NA48735   1.255  17.540   4.954 -0.0236 -0.0257  0.1103
28456ION     NA48736  15.682  10.501   4.500  0.2232 -0.0510  0.3840
28457ION     NA48737  19.287  14.155   9.236  0.2333  0.0931 -0.1582
28458ION     NA48738   5.537  10.629   4.498 -0.0491  0.0709  0.0156
28459ION     NA48739  12.614   7.588   1.822  0.2151 -0.1010 -0.3438
28460ION     NA48740   0.305   6.302   9.590 -0.0867  0.0577  0.2322
28461ION     NA48741   0.971  11.566   4.145 -0.0045  0.2446  0.3372
28462ION     NA48742  15.189  13.827   9.757 -0.0237  0.1875 -0.2057
28463ION     NA48743   2.392   9.081   9.362 -0.3656  0.0343  0.1132
28464ION     NA48744  10.987   2.354  10.149  0.1786 -0.0285  0.1796
28465ION     NA48745   8.308  12.210   4.600 -0.1778 -0.0114  0.0801
28466ION     NA48746   0.655   5.466   9.867  0.2601  0.0785  0.0924
28467ION     NA48747  16.884   2.566  12.277 -0.1619 -0.2268 -0.1605
28468ION     NA48748   7.652   2.797   0.447 -0.0145 -0.1712  0.2151
28469ION     NA48749  15.720   3.352  14.405 -0.2778 -0.1650  0.2184
28470ION     NA48750   5.850  11.684   4.677  0.0144  0.2550  0.2089
28471ION     NA48751   9.542  13.320  12.847 -0.3953 -0.1006 -0.2080
28472ION     NA48752   2.616   2.177   9.959 -0.1355  0.1474 -0.0550
28473ION     NA48753  14.982  18.650   4.965 -0.3394  0.0784 -0.1155
28474ION     NA48754  13.065  14.715   0.190  0.0209 -0.1156 -0.4413
28475ION     NA48755  12.571   3.452   3.348 -0.0407  0.4952  0.2786
28476ION     NA48756   3.707  13.192   4.254  0.1096  0.1799  0.0968
28477ION     NA48757  17.122  15.058   1.009 -0.1090 -0.0655  0.1332
28478ION     NA48758  16.242  15.132   4.982  0.4137  0.1390 -0.0646
28479ION     NA48759   1.089   0.201   4.695  0.1615 -0.1467 -0.2802
28480ION     NA48760   7.481   8.728  14.495  0.0004  0.1107  0.0049
28481ION     NA48761   3.694   3.147   0.149  0.1668  0.3791 -0.0956
28482ION     NA48762  18.268   6.016  10.576  0.0061  0.1421 -0.2572
28483ION     NA48763   6.491   8.495  13.133  0.3145  0.2009  0.0274
28484ION     NA48764   8.827  11.434   4.534  0.3129  0.2567 -0.0647
28485ION     NA48765   8.954   3.556  10.591  0.1949 -0.3293  0.1668
28486ION     NA48766   4.060  14.533   4.734 -0.2687 -0.2588 -0.3081
28487ION     NA48767  17.989   8.797   9.312  0.1887  0.0600  0.2155
28488ION     NA48768  14.162  19.185   5.138  0.2470 -0.0257  0.1876
28489ION     NA48769  13.716  10.047   1.673 -0.4696 -0.0411 -0.0862
28490ION     NA48770   7.394  10.767   4.806  0.0886  0.0387  0.0093
28491ION     NA48771  17.146  17.712   3.020 -0.0813  0.1954 -0.1562
28492ION     NA48772   0.283   7.796  13.519  0.0453 -0.4301 -0.1173
28493ION     NA48773   2.957   0.721  10.294  0.0895  0.1466  0.1418
28494ION     NA48774   0.826  14.273  14.035  0.2099  0.0965  0.0990
28495ION     NA48775  19.199   5.733  10.170 -0.0697 -0.0613 -0.1297
28496ION     NA48776   5.496  13.515   4.514 -0.1979 -0.1174  0.1678
28497ION     NA48777  14.920  14.651  10.178 -0.0879 -0.1528 -0.4197
28498ION     NA48778   4.610   1.904   5.056 -0.2678  0.2288 -0.3399
28499ION     NA48779   1.019   7.802   4.377 -0.3527 -0.2119  0.1052
28500ION     NA48780  15.894  18.913  10.970 -0.2688  0.1129  0.0538
28501ION     NA48781   3.787  13.557   2.715  0.1327  0.1046 -0.0277
28502ION     NA48782  10.051   4.944  10.142  0.0539 -0.0329  0.0052
28503ION     NA48783   5.858  10.417   2.728  0.0992 -0.0208  0.3483
28504ION     NA48784  12.259   3.235  10.049 -0.2713  0.3901 -0.1113
28505ION     NA48785   2.753  11.515  11.074 -0.2084 -0.2942  0.0416
28506ION     NA48786  10.491  15.576   9.758  0.0088 -0.0774  0.1772
28507ION     NA48787  18.318   6.624   9.827 -0.1296  0.1704 -0.0651
28508ION     NA48788  11.917   1.774  12.233  0.1155  0.0006 -0.0271
28509ION     NA48789  16.451  16.919  10.070 -0.0114 -0.0767 -0.0023
28510ION     NA48790   1.634  15.647  11.890 -0.1977  0.0043 -0.0881
28511ION     NA48791   4.951  11.059   4.792 -0.1042  0.0660 -0.2069
28512ION     NA48792   1.202   9.731   4.127 -0.1518  0.2452 -0.0352
28513ION     NA48793   5.974   9.565   4.947  0.2893 -0.1329 -0.2568
28514ION     NA48794   6.320  18.028  10.166  0.3656  0.0178 -0.0882
28515ION     NA48795  19.377  11.226  13.179  0.0852 -0.1602  0.2029
28516ION     NA48796  13.138  14.951   4.428 -0.1578 -0.1332 -0.0055
28517ION     NA48797  10.787  13.744  10.217  0.0894 -0.0850  0.1259
28518ION     NA48798   7.669  14.944   9.341  0.0129  0.3413  0.2476
28519ION     NA48799   2.754  17.854   3.733 -0.1584 -0.1194 -0.1582
28520ION     NA48800   5.325   8.722   9.755  0.2739 -0.4264 -0.0862
28521ION     NA48801   7.669  10.930   2.473 -0.1115 -0.2524 -0.1595
28522ION     NA48802  13.755   9.879  11.395  0.0466  0.0451 -0.1862
28523ION     NA48803  18.766  16.517  13.322  0.0387 -0.0853  0.0341
28524ION     NA48804   7.206  13.304   9.410  0.2270 -0.2947  0.0074
28525ION     NA48805  15.780   3.435  10.829  0.0627  0.0869  0.0302
28526ION     NA48806   5.861  12.086  13.848  0.0973  0.1547  0.0789
28527ION     NA48807  18.497  13.507   9.432  0.0383 -0.2242  0.0377
28528ION     NA48808   9.618   7.957   9.664  0.0968  0.0711  0.0303
28529ION     NA48809  11.480  13.867   4.734  0.3902 -0.1804 -0.3153
28530ION     NA48810   0.316   1.169   2.361  0.0349  0.0366 -0.0367
28531ION     NA48811   4.668  18.603   4.862 -0.1316 -0.0269  0.0318
28532ION     NA48812  13.655   2.257  14.380  0.2378 -0.1682 -0.3470
28533ION     NA48813   1.386  18.188  14.149  0.1212  0.2222 -0.1239
28534ION     NA48814   1.562  18.670  10.234  0.0224 -0.0024  0.0567
28535ION     NA48815   1.478   1.064  10.979  0.2624  0.0754  0.1689
28536ION     NA48816  16.264  18.952  13.583  0.2363 -0.0347 -0.2439
28537ION     NA48817   1.390  13.144   9.144  0.1296  0.0297 -0.1429
28538ION     NA48818   9.199   2.984   5.193  0.1149 -0.0553  0.0303
28539ION     NA48819   0.639  16.267   9.435 -0.2797 -0.4158 -0.2012
28540ION     NA48820   7.549  16.184   9.890  0.0768  0.1703 -0.1037
28541ION     NA48821   1.541  12.213   4.055  0.4257  0.0110  0.0869
28542ION     NA48822   6.569   0.290  10.155  0.2129  0.0452  0.2793
28543ION     NA48823  19.228  11.542   1.287  0.1092  0.3330  0.2083
28544ION     NA48824   1.151   9.769  10.992 -0.0372 -0.2790 -0.1053
28545ION     NA48825  14.515  16.554   3.367 -0.1775  0.4271  0.0212
28546ION     NA48826  15.734  18.973   4.723  0.2792 -0.1692  0.0300
28547ION     NA48827  19.047   1.802   5.112 -0.0750 -0.0248  0.2376
28548ION     NA48828   5.260  15.993   4.654  0.1572 -0.1085 -0.1031
28549ION     NA48829   9.097   6.558   9.803 -0.0632  0.1190  0.0863
28550ION     NA48830   0.528  11.930   9.209 -0.2385 -0.1281  0.1531
28551ION     NA48831  15.029   7.799   4.458 -0.0223 -0.0012 -0.1802
28552ION     NA48832   8.242   6.947   9.733  0.1908 -0.1491 -0.0095
28553ION     NA48833   3.872   3.575  10.344 -0.0457  0.0914 -0.0436
28554ION     NA48834   0.335  15.759   9.392 -0.0469 -0.2536 -0.0039
28555ION     NA48835  17.458  15.814   2.539 -0.0407  0.2722 -0.3123
28556ION     NA48836  10.314   4.456   5.161 -0.0361  0.2528  0.2772
28557ION     NA48837  10.289   3.728  10.076  0.0254 -0.2279  0.2548
28558ION     NA48838  13.522  16.777   2.857  0.2104 -0.2039  0.1059
28559ION     NA48839  14.679  19.406   3.764  0.0021  0.0754  0.0513
28560ION     NA48840   3.432   4.080  13.108 -0.2693  0.0778 -0.4407
28561ION     NA48841   2.414  18.216   5.095  0.1952 -0.1090  0.0790
28562ION     NA48842  18.338   9.498   9.318  0.0642  0.2383  0.0091
28563ION     NA48843   6.119   1.761  10.068  0.0547 -0.0080  0.1165
28564ION     NA48844  11.892  10.132   9.726  0.0261  0.0814  0.1173
28565ION     NA48845   8.265  15.077   3.044  0.1987 -0.1940  0.0369
28566ION     NA48846   0.382   9.404  12.501  0.0616 -0.2284  0.1719
28567ION     NA48847   0.440  13.437  11.934 -0.0044 -0.0694 -0.0407
28568ION     NA48848   8.924   8.841  12.752  0.0644 -0.0135 -0.0189
28569ION     NA48849  17.746   7.741  10.665  0.2151  0.0926  0.0379
28570ION     NA48850   3.033   9.288   4.597  0.1379  0.1391  0.0022
28571ION     NA48851  13.164   9.377   9.758  0.1335 -0.0614  0.0154
28572ION     NA48852  18.273   6.294   4.514 -0.2363  0.1291  0.0294
28573ION     NA48853  19.346   6.914  14.481  0.1735 -0.2194 -0.5649
28574ION     NA48854  17.132   5.285   9.669  0.1581 -0.0209  0.2866
28575ION     NA48855   8.141   4.059   9.863 -0.1179  0.0009 -0.3001
28576ION     NA48856  14.840  14.517   1.841  0.0385 -0.3038  0.1575
28577ION     NA48857   1.255   2.299   1.669  0.0679  0.4780 -0.1217
28578ION     NA48858   1.997  16.478  10.077  0.2996  0.2635 -0.0379
28579ION     NA48859  10.234  16.280  11.628  0.0924 -0.0792 -0.0782
28580ION     NA48860  12.150   1.920   1.697  0.1131 -0.0947 -0.2729
28581ION     NA48861  18.379   0.812  10.000  0.1018  0.0282 -0.0391
28582ION     NA48862   3.477  18.558  12.320 -0.1991  0.5185 -0.0682
28583ION     NA48863  12.122   3.140  13.710 -0.2091  0.3423  0.0520
28584ION     NA48864   1.021   8.545   9.324 -0.1324  0.1292 -0.2895
28585ION     NA48865  10.869  12.711   9.605  0.1077  0.2158 -0.1226
28586ION     NA48866   8.767   5.984   1.067  0.1448 -0.1258  0.0100
28587ION     NA48867   7.561  19.097   4.916  0.1935 -0.2449 -0.1959
28588ION     NA48868   4.547   3.402   4.872  0.1737 -0.2279 -0.1276
28589ION     NA48869   0.991   3.252  13.919  0.0957 -0.2139  0.0372
28590ION     NA48870  14.549   4.667   1.436  0.0715  0.1823  0.0883
28591ION     NA48871  17.245   5.180   3.719  0.1307  0.0903  0.2487
28592ION     NA48872   3.400  14.211   9.345 -0.0103  0.4456 -0.4421
28593ION     NA48873   8.027  18.516  13.955 -0.0855 -0.2520 -0.1482
28594ION     NA48874   2.591  14.787  14.361  0.2420 -0.0073 -0.0424
28595ION     NA48875   3.958   8.416   2.311  0.2766 -0.0492 -0.0150
28596ION     NA48876   7.492   8.365  12.447 -0.2392 -0.1766 -0.2962
28597ION     NA48877  12.565   9.208   4.880  0.0165  0.3850  0.0375
28598ION     NA48878  16.347  11.986   1.199 -0.1278 -0.1087  0.0340
28599ION     NA48879   6.145  18.028   4.711  0.1780  0.0808  0.1076
28600ION     NA48880   8.529  19.017   4.756 -0.1000  0.3758  0.2125
28601ION     NA48881   3.643   5.525   9.926  0.0804  0.1905  0.0048
28602ION     NA48882  14.148  15.191   9.904  0.2570 -0.1354  0.0273
28603ION     NA48883   0.921   2.545   4.699  0.1483  0.0273 -0.1736
28604ION     NA48884   1.688   0.580   0.801 -0.0563 -0.1660 -0.0102
28605ION     NA48885   2.135  18.867  13.662 -0.0883  0.0416 -0.0756
28606ION     NA48886  19.180   1.466   0.406 -0.1948 -0.4079 -0.0137
28607ION     NA48887  16.586  16.461   4.672  0.0200  0.0616 -0.1896
28608ION     NA48888  12.581   4.585  10.188  0.1232  0.1852  0.0204
28609ION     NA48889   7.023  14.174   4.619 -0.2278  0.2057  0.2941
28610ION     NA48890   5.395  14.487   4.545  0.1431  0.0884 -0.0129
28611ION     NA48891   2.229   5.548   4.966  0.1945 -0.0449 -0.0158
28612ION     NA48892  14.951   3.667  12.253  0.0393 -0.2994 -0.0732
28613ION     NA48893   9.954   0.108   4.955 -0.0631 -0.0595  0.3393
28614ION     NA48894  16.563  17.941   9.659  0.1004  0.1846 -0.3177
28615ION     NA48895  18.068   8.836   9.813 -0.1684 -0.0065  0.2968
28616ION     NA48896   9.828  10.414   4.613 -0.2480  0.1238 -0.1658
28617ION     NA48897  17.864  17.847   0.891  0.4691 -0.1160  0.2677
28618ION     NA48898  14.881   0.606  10.170  0.4603  0.0581 -0.1141
28619ION     NA48899   7.106   1.148   4.844  0.3492 -0.1762  0.1714
28620ION     NA48900   2.567   7.335  14.197  0.0039 -0.0428 -0.2322
28621ION     NA48901  18.035   6.210  13.580  0.3589  0.0821  0.0175
28622ION     NA48902  17.135   8.716   9.420 -0.4433 -0.1996 -0.1631
28623ION     NA48903  13.869   3.998   5.236 -0.1098 -0.2446  0.0750
28624ION     NA48904  12.015  12.284   9.888  0.3411  0.0254  0.0026
28625ION     NA48905  10.559   8.752   4.950 -0.3053  0.0516 -0.1140
28626ION     NA48906  17.400   9.613   9.443 -0.0681  0.1037  0.1369
28627ION     NA48907  11.914  14.508   4.631 -0.4904  0.1171 -0.0459
28628ION     NA48908  11.978  11.861   4.627  0.0540 -0.2667 -0.0403
28629ION     NA48909   5.899   0.818   9.972  0.1091  0.4421  0.0655
28630ION     NA48910  15.273   4.394   9.933  0.1146  0.1681  0.0433
28631ION     NA48911  19.198   8.090   9.551  0.0809 -0.0157  0.1045
28632ION     NA48912   4.338  11.712   9.472  0.0188  0.1867 -0.3613
28633ION     NA48913   0.160  17.784  14.230 -0.0673 -0.0998 -0.1399
28634ION     NA48914   7.457  12.583   2.880 -0.0989  0.2026 -0.3137
28635ION     NA48915  18.578   1.036  10.396  0.0281 -0.0497  0.0347
28636ION     NA48916   0.183   4.869   4.887  0.1981 -0.0418  0.3207
28637ION     NA48917  13.779  14.286   4.882  0.1499  0.0342 -0.1592
28638ION     NA48918   8.176   0.196   0.619  0.0963  0.1927  0.2135
28639ION     NA48919  12.505  17.277   9.575 -0.3534  0.3144  0.0394
28640ION     NA48920   0.328   2.760  10.386 -0.2918 -0.0900 -0.0698
28641ION     NA48921   8.441  13.365   0.482 -0.2023  0.0424 -0.1368
28642ION     NA48922   1.544   6.068   9.865 -0.2190 -0.1112 -0.1992
28643ION     NA48923   8.393   3.749   3.314  0.1157 -0.1816  0.0457
28644ION     NA48924   6.004   4.590   4.983 -0.0536  0.0953  0.1708
28645ION     NA48925  14.580  13.359  13.885  0.3072  0.4284 -0.0395
28646ION     NA48926  10.426  13.906   4.751 -0.0971 -0.0957 -0.2293
28647ION     NA48927  10.658   9.037   4.031  0.2383  0.1504  0.1592
28648ION     NA48928  16.860   4.133  11.592 -0.0543  0.0701 -0.2289
28649ION     NA48929   9.599  10.757   2.762  0.2599 -0.0908  0.0974
28650ION     NA48930   6.518  12.721   9.169 -0.2222 -0.2577  0.0603
28651ION     NA48931   0.296   8.419   1.222  0.1746  0.3338 -0.0881
28652ION     NA48932  11.591   7.229  10.413 -0.0240  0.4527 -0.1664
28653ION     NA48933  15.136   5.994   5.027 -0.1391 -0.0015  0.2278
28654ION     NA48934  14.192   4.179  10.036 -0.2048 -0.1081 -0.1955
28655ION     NA48935  15.133  17.604   4.972 -0.0371 -0.3770  0.0880
28656ION     NA48936   1.147  16.964   9.864 -0.2132  0.2256 -0.1275
28657ION     NA48937  11.750   3.371   5.279 -0.0577 -0.0629  0.2644
28658ION     NA48938  15.067  11.378   9.901  0.0840  0.2708 -0.0086
28659ION     NA48939  11.247   4.245   1.151 -0.0224 -0.0716  0.1735
28660ION     NA48940   3.364   3.616  12.197 -0.0437 -0.1876 -0.4178
28661ION     NA48941  14.473  10.145   9.786 -0.1099 -0.2498  0.1501
28662ION     NA48942   8.955  16.517   9.548 -0.1161  0.1722 -0.2457
28663ION     NA48943   0.185  17.099   9.601 -0.0730  0.4672 -0.0498
28664ION     NA48944  12.983  16.239   4.759 -0.4283  0.2896  0.2333
28665ION     NA48945  13.350  14.185   9.865  0.0634 -0.2600  0.3079
28666ION     NA48946   9.744  14.880   9.846  0.0414  0.2023  0.2260
28667ION     NA48947   4.574   4.761  11.219 -0.2535 -0.0854 -0.1427
28668ION     NA48948   6.645  15.635   4.600  0.0253 -0.2093 -0.0635
28669ION     NA48949   2.809  15.053  13.030 -0.2921 -0.0038 -0.2236
28670ION     NA48950   4.922   9.954   9.563  0.2572  0.1591 -0.1955
28671ION     NA48951  11.814  18.449   9.869 -0.2265 -0.0373 -0.1819
28672ION     NA48952   8.586  11.589  13.627 -0.0343 -0.2157 -0.0119
28673ION     NA48953   6.504   3.814  11.567 -0.0515  0.0321 -0.2660
28674ION     NA48954   5.444   8.916   4.884 -0.0933 -0.0999 -0.1945
28675ION     NA48955  16.063   0.250   0.176 -0.1177 -0.1007 -0.4376
28676ION     NA48956  18.926  12.559  11.781  0.1535  0.1973 -0.0735
28677ION     NA48957   0.085  19.230   4.622  0.0793  0.1199 -0.0280
28678ION     NA48958   9.886  19.189   9.871  0.1804  0.0114 -0.0359
28679ION     NA48959  10.198   6.868  11.729 -0.0743  0.0971 -0.1205
28680ION     NA48960  18.390   9.116   4.199 -0.0947  0.1523  0.1261
28681ION     NA48961   3.759   4.452  10.148  0.0045  0.0282  0.0363
28682ION     NA48962  16.074  17.742   9.995  0.2311 -0.0359  0.0991
28683ION     NA48963   3.684   2.964   4.812 -0.2514 -0.3157  0.0159
28684ION     NA48964  10.612   3.060   0.178 -0.1814  0.4916  0.1327
28685ION     NA48965  11.764   2.433   5.373  0.0976 -0.1619  0.0729
28686ION     NA48966   5.180  13.826   1.221  0.2132  0.2825  0.2503
28687ION     NA48967  11.264   9.199   1.710  0.2050 -0.0602  0.1134
28688ION     NA48968   1.905  11.484   3.999 -0.0195 -0.2707  0.1837
28689ION     NA48969   8.878  18.782   3.270  0.3542  0.0807  0.0109
28690ION     NA48970  17.965   2.579   5.240 -0.0451  0.1871 -0.0906
28691ION     NA48971   6.796   8.149   9.641 -0.0828 -0.1972 -0.1485
28692ION     NA48972  11.950   5.306   4.921 -0.0931  0.2080 -0.0810
28693ION     NA48973   7.932  16.666   4.630 -0.1813  0.1938 -0.1542
28694ION     NA48974  15.252   7.281  10.752 -0.1792  0.4394  0.1993
28695ION     NA48975  15.098   2.629  12.498 -0.0968 -0.0525 -0.1078
28696ION     NA48976   8.317   4.062   4.976 -0.1954  0.2338  0.0244
28697ION     NA48977  16.738  16.208  11.069 -0.1341 -0.0017  0.1454
28698ION     NA48978   8.254  14.425   1.436  0.0311 -0.0647  0.1037
28699ION     NA48979   3.095   5.306   4.958 -0.1138  0.3739 -0.2387
28700ION     NA48980   8.065   4.555   0.671 -0.2370 -0.2095  0.0116
28701ION     NA48981  19.018   2.619  13.478  0.0953 -0.0611 -0.0823
28702ION     NA48982   6.110  17.528  12.734  0.1846 -0.0550  0.0429
28703ION     NA48983   7.381   1.516  13.008  0.1932 -0.0606  0.0921
28704ION     NA48984   9.630  15.114   1.467 -0.2179 -0.1610  0.2944
28705ION     NA48985  16.135  13.691   9.720  0.2371  0.1125 -0.1003
28706ION     NA48986   5.359   7.801  13.758  0.0622  0.2348  0.0398
28707ION     NA48987   3.283  10.403   4.343  0.2417  0.1400  0.3073
28708ION     NA48988  15.935  15.842  10.608  0.2398 -0.2071 -0.4179
28709ION     NA48989  17.512   5.867   4.838  0.1957 -0.0473  0.0917
28710ION     NA48990   8.566  17.320   9.891 -0.2450 -0.1011 -0.0903
28711ION     NA48991   2.859   7.597   9.775  0.0323  0.2191 -0.2444
28712ION     NA48992   1.318  15.566   9.376 -0.3981 -0.1006  0.0574
28713ION     NA48993  12.858  10.579  13.317 -0.0426  0.2702 -0.0118
28714ION     NA48994   5.479  18.350   1.703 -0.0398 -0.1669 -0.2531
28715ION     NA48995  11.166  11.010   9.570 -0.0054 -0.1257 -0.0352
28716ION     NA48996   7.322  16.644  10.668 -0.2078 -0.2702  0.1477
28717ION     NA48997   7.246   9.258   9.686 -0.1998  0.0528  0.0738
28718ION     NA48998  10.439  13.471   9.704 -0.1926  0.0644  0.1461
28719ION     NA48999   2.734  11.290  12.441 -0.2645 -0.1228 -0.0913
28720ION     NA49000   9.277  10.118   9.617  0.0521  0.2353 -0.1791
28721ION     NA49001  18.414  12.141   2.569  0.1003 -0.2788  0.0444
28722ION     NA49002  12.195   0.637   9.901  0.0781 -0.1175  0.2460
28723ION     NA49003   9.255   2.273   0.847 -0.0341 -0.1337 -0.1686
28724ION     NA49004   0.521   8.592   9.220 -0.2157  0.2062  0.4138
28725ION     NA49005   4.189   6.784   4.939 -0.0254 -0.1419  0.0160
28726ION     NA49006  15.342   7.990  10.043  0.1976 -0.1176  0.0938
28727ION     NA49007   9.823  10.887   9.755 -0.0004  0.2044  0.0084
28728ION     NA49008  16.911  18.766  12.901  0.1307  0.3297 -0.2000
28729ION     NA49009  18.277  18.798   9.980  0.0541 -0.4106 -0.1460
28730ION     NA49010  17.742   0.064  10.279 -0.0228 -0.0746 -0.1685
28731ION     NA49011   7.633   5.157   4.807  0.2501 -0.2290 -0.1380
28732ION     NA49012  18.785   1.302  11.222 -0.1821 -0.1437  0.2974
28733ION     NA49013  11.831   0.733   9.547  0.1932  0.1126 -0.1445
28734ION     NA49014   8.436  15.769   9.615  0.0631  0.4267  0.0486
28735ION     NA49015  17.122   2.889   5.020 -0.0250  0.0388 -0.2742
28736ION     NA49016  12.242   5.797  10.977  0.0496 -0.2192  0.3052
28737ION     NA49017   8.109  14.070   4.592  0.0190 -0.0021 -0.1241
28738ION     NA49018  13.482  11.871   4.837 -0.1015 -0.3978 -0.4715
28739ION     NA49019   7.869   9.936   9.607  0.1635  0.1796  0.3894
28740ION     NA49020  10.092   9.338   4.513  0.0142  0.2012  0.1358
28741ION     NA49021   0.070  14.843  12.892  0.0374  0.0665  0.1353
28742ION     NA49022  17.811   6.499  11.188  0.0694  0.2065  0.0956
28743ION     NA49023  18.741   1.910   9.882  0.1238 -0.2687  0.4251
28744ION     NA49024   7.177   0.584   5.178 -0.2282 -0.1148  0.1094
28745ION     NA49025   5.814   2.544   4.976 -0.2640  0.5856  0.1779
28746ION     NA49026   3.032   7.775  10.455  0.0095  0.1222 -0.1010
28747ION     NA49027   3.374  10.354   3.342 -0.0777 -0.1216  0.2093
28748ION     NA49028   0.206   0.833   4.911  0.2184 -0.1863  0.0632
28749ION     NA49029  15.343  18.747  13.778  0.2048 -0.0522  0.2546
28750ION     NA49030   7.981   6.949   4.966 -0.1659 -0.0520  0.0100
28751ION     NA49031  13.364  12.718   4.934  0.1086 -0.0147  0.1263
28752ION     NA49032   0.102   8.961   3.416 -0.0131  0.0868 -0.3020
28753ION     NA49033  19.166  16.378   9.932  0.1348 -0.0781 -0.0974
28754ION     NA49034   0.987   1.037   4.928  0.0160  0.0855  0.5480
28755ION     NA49035   0.714   9.227  14.471 -0.0432  0.1016  0.0577
28756ION     NA49036   6.724   6.909   9.744  0.0668  0.0110 -0.0025
28757ION     NA49037   6.591   8.168  14.324 -0.2071  0.1382 -0.0388
28758ION     NA49038   0.411  17.079  11.913  0.1771  0.0694  0.0525
28759ION     NA49039   9.273  13.358   3.899 -0.0134 -0.4267 -0.1488
28760ION     NA49040   6.615   5.737  12.937  0.0711  0.1033  0.0684
28761ION     NA49041   5.608   4.998   4.665 -0.0366  0.0355  0.1492
28762ION     NA49042   9.920  16.599  14.227  0.3538 -0.1645 -0.4344
28763ION     NA49043   2.350   8.965   4.134  0.1116  0.1227 -0.0494
28764ION     NA49044   6.608  15.789  10.003  0.4163 -0.0407 -0.1080
28765ION     NA49045   1.459  16.619   4.875  0.0118  0.0120 -0.0048
28766ION     NA49046   1.591   0.800  10.219  0.1012  0.0992  0.2825
28767ION     NA49047  10.292   2.656   5.112 -0.3807  0.2671  0.0898
28768ION     NA49048   1.663  10.872   9.358 -0.2280 -0.2201 -0.1600
28769ION     NA49049  17.940  11.140  10.303 -0.0914 -0.0600 -0.0817
28770ION     NA49050   5.663   5.929   1.966  0.1655 -0.2958  0.0669
28771ION     NA49051  16.699   9.068   4.481  0.1641 -0.1650  0.1232
28772ION     NA49052   9.795   1.824  10.043  0.0835  0.3633  0.0482
28773ION     NA49053  12.195   3.537   2.427 -0.0893  0.0227  0.1086
28774ION     NA49054   6.857  10.804  12.185  0.3313  0.1706 -0.0236
28775ION     NA49055  16.077  15.067   9.914  0.0982  0.1049 -0.3604
28776ION     NA49056   2.949  18.793  10.436 -0.1458  0.0648 -0.1224
28777ION     NA49057  17.709   0.921   4.796 -0.4797 -0.0960 -0.1310
28778ION     NA49058  15.525  11.369   4.747  0.0415 -0.0010  0.0886
28779ION     NA49059   8.814  12.541   9.750 -0.0294  0.0635  0.0028
28780ION     NA49060   6.827  14.859  10.318  0.1607  0.2673 -0.3569
28781ION     NA49061  19.300   2.081  11.699  0.1061 -0.0732 -0.0797
28782ION     NA49062  17.063   6.615   9.528 -0.0251 -0.0262  0.1370
28783ION     NA49063   5.970   9.923   2.919  0.2216  0.1678 -0.0486
28784ION     NA49064  13.742   6.069   3.922  0.0900 -0.1391 -0.0804
28785ION     NA49065  13.635  19.013   2.186 -0.1823  0.2554  0.1060
28786ION     NA49066   3.903  16.516   9.781 -0.1540  0.0256  0.3129
28787ION     NA49067  18.536  13.374   4.484 -0.0055 -0.0722  0.2385
28788ION     NA49068  15.463   9.983  10.668  0.0323  0.0091  0.1048
28789ION     NA49069  12.795   8.701   5.135 -0.1675 -0.5523 -0.3256
28790ION     NA49070  10.746   1.214   5.011  0.3599 -0.2067 -0.2289
28791ION     NA49071   8.166   8.260   4.528  0.1324  0.0461 -0.1239
28792ION     NA49072   5.900   9.594   0.583 -0.0544 -0.3736  0.1949
28793ION     NA49073  16.356   4.040   1.445  0.1626 -0.2789  0.3463
28794ION     NA49074   8.160  14.421  13.620  0.3620  0.0041  0.0187
28795ION     NA49075   8.918   1.296   5.078  0.1748  0.3002 -0.0861
28796ION     NA49076  11.355   8.746   2.189 -0.0953  0.1967 -0.1494
28797ION     NA49077  14.637   4.195   5.065  0.0337  0.0158 -0.3042
28798ION     NA49078   9.166  15.228  13.974 -0.3676  0.0026  0.3602
28799ION     NA49079  13.473   7.295   4.359  0.1638  0.2703 -0.2422
28800ION     NA49080   1.491   9.295   1.273  0.1341  0.0410  0.2412
28801ION     NA49081  11.121   3.562  10.389 -0.2789 -0.0421 -0.0096
28802ION     NA49082   2.719   5.695   4.915  0.1633  0.0623 -0.0325
28803ION     NA49083  19.212  15.692  13.194  0.1663  0.1544  0.3162
28804ION     NA49084   4.653   1.820  13.645  0.3857  0.3497  0.0436
28805ION     NA49085   7.490   9.150   4.735  0.1235  0.4308 -0.3505
28806ION     NA49086   6.069   9.070   1.748  0.0446 -0.0021 -0.2226
28807ION     NA49087   5.050  12.843   4.604 -0.1008  0.3672  0.2303
28808ION     NA49088  14.641  15.039   4.645  0.1069 -0.0336  0.0350
28809ION     NA49089  14.323  14.358  14.271 -0.0970 -0.1656 -0.2051
28810ION     NA49090  17.123   5.105   4.715  0.1453 -0.0343  0.0890
28811ION     NA49091  10.508  12.326   9.564  0.2882  0.1186 -0.2179
28812ION     NA49092  17.503  15.606   9.644  0.0390  0.1379  0.2279
28813ION     NA49093  15.073   4.204  14.007  0.1740 -0.0117  0.2046
28814ION     NA49094   6.793  15.904   2.121 -0.1564  0.0743  0.2519
28815ION     NA49095  11.398  18.028   2.307  0.2136 -0.1002 -0.1176
28816ION     NA49096   3.158  11.593   4.257 -0.1314  0.0048  0.0373
28817ION     NA49097   4.940   1.184   0.374 -0.2696  0.0168  0.3423
28818ION     NA49098  14.484  13.498   9.496 -0.1185  0.0332 -0.0626
28819ION     NA49099   4.789  10.947  13.217  0.0554 -0.1365  0.1410
28820ION     NA49100  18.586   4.591   9.890 -0.0210 -0.1845  0.1071
28821ION     NA49101   1.191  14.164   9.638  0.0276  0.0572 -0.1313
28822ION     NA49102  13.864   7.770  12.450 -0.0930 -0.1016  0.2354
28823ION     NA49103  10.807   9.525   9.681  0.0923  0.0137 -0.0368
28824ION     NA49104  15.939   4.041  14.243 -0.3862 -0.2532 -0.2512
28825ION     NA49105   6.965  11.604   9.512 -0.0080 -0.0924 -0.1105
28826ION     NA49106   4.561  11.752  12.011 -0.2887  0.0253 -0.0602
28827ION     NA49107   0.175   7.372   4.521  0.0167 -0.1443  0.0987
28828ION     NA49108  14.406   2.219  10.032 -0.2071 -0.5511  0.1514
28829ION     NA49109  10.589   2.521   2.678 -0.0583  0.0683  0.4395
28830ION     NA49110  15.064   9.378   4.518 -0.1241 -0.0825 -0.0676
28831ION     NA49111   5.146  16.140   0.765  0.0880  0.0656 -0.0768
28832ION     NA49112   7.082   0.162  13.936 -0.0289  0.1328 -0.3200
28833ION     NA49113   4.354   4.995   9.782  0.1834  0.0470  0.0772
28834ION     NA49114  15.211  15.084  13.093 -0.2412 -0.0012 -0.3425
28835ION     NA49115  16.743  12.662  11.930  0.0644 -0.2466 -0.3481
28836ION     NA49116   4.068   0.829   9.947  0.1448  0.2633 -0.0243
28837ION     NA49117   8.262   8.626   9.806  0.0654 -0.0408 -0.1539
28838ION     NA49118   3.259   4.455   4.940 -0.0857  0.0727 -0.0027
28839ION     NA49119   0.691   5.310   3.285 -0.1152 -0.3116 -0.0376
28840ION     NA49120   6.484  18.892  10.203 -0.3934 -0.0088 -0.0103
28841ION     NA49121  16.756  16.036   0.243  0.2922  0.1405 -0.1375
28842ION     NA49122   3.251   5.071  14.020 -0.1992 -0.0244 -0.2461
28843ION     NA49123  11.890   6.148  12.263  0.1522 -0.1177  0.1630
28844ION     NA49124   5.178  19.377   0.015 -0.1071 -0.3314 -0.2068
28845ION     NA49125  12.795  18.613  12.233  0.0969 -0.1578 -0.0358
28846ION     NA49126   0.634   8.277   0.287 -0.1001 -0.3124  0.1070
28847ION     NA49127   3.889   2.761   2.482  0.1044 -0.1063  0.0710
28848ION     NA49128   7.641  10.792   9.606  0.1665 -0.0704  0.1965
28849ION     NA49129  16.032   5.727  14.400  0.0647  0.3390  0.0936
28850ION     NA49130   0.018   0.935   9.961 -0.1988 -0.0018  0.0026
28851ION     NA49131  18.707  19.189  11.319 -0.1614 -0.0178  0.0732
28852ION     NA49132  11.045  10.619   4.614 -0.0815 -0.0647  0.1245
28853ION     NA49133   2.409  15.533   1.155 -0.0247 -0.2579  0.2156
28854ION     NA49134  16.906   8.234  10.600  0.1989  0.3523  0.1140
28855ION     NA49135  18.755  16.638   1.190 -0.1608  0.1459 -0.0534
28856ION     NA49136   2.753  16.344  14.301  0.0083 -0.2151  0.1960
28857ION     NA49137  13.571   8.640   9.619 -0.1909  0.3260 -0.1032
28858ION     NA49138  17.345  16.565  10.239 -0.2225  0.2135  0.0464
28859ION     NA49139   8.443  17.881   4.753 -0.1562 -0.2107  0.2600
28860ION     NA49140   2.532   5.126   0.705 -0.0518 -0.2270 -0.0484
28861ION     NA49141  14.024   0.057   9.917 -0.2643 -0.1595  0.0583
28862ION     NA49142   0.776   3.354   0.827  0.1726  0.0965 -0.2027
28863ION     NA49143   9.384  18.892   4.771  0.0328 -0.1144  0.2326
28864ION     NA49144   0.585  12.524   9.376  0.2221  0.1752 -0.0632
28865ION     NA49145   5.356  16.308   3.642  0.0276  0.3502  0.1430
28866ION     NA49146  17.957   1.895   9.633  0.0300 -0.0383 -0.1697
28867ION     NA49147  16.803  11.183   1.491  0.1023 -0.1247 -0.1288
28868ION     NA49148   2.453  12.194   3.813  0.0723  0.0019  0.0310
28869ION     NA49149  18.192  15.200   0.026 -0.1426  0.0738 -0.0110
28870ION     NA49150  11.125  15.977   4.668  0.0178  0.1984 -0.0110
28871ION     NA49151  13.042  17.354   2.905  0.0636 -0.1690 -0.1568
28872ION     NA49152   6.540  13.150  14.472  0.0256 -0.1671  0.0041
28873ION     NA49153   2.649  18.051  13.406 -0.1248 -0.1156  0.0190
28874ION     NA49154  18.158  16.306   4.779  0.1061  0.1048  0.0113
28875ION     NA49155  17.334  18.955   1.583 -0.1759  0.0498 -0.1410
28876ION     NA49156  15.420   8.962   2.277 -0.0008  0.0776  0.2221
28877ION     NA49157   5.707  10.837   1.120  0.1605  0.0026 -0.2405
28878ION     NA49158  10.282   7.574  10.046 -0.2164 -0.3824  0.0057
28879ION     NA49159   7.023  10.185   9.575 -0.3623 -0.0792 -0.3784
28880ION     NA49160   9.249  16.187   0.000  0.1816  0.0035 -0.2815
28881ION     NA49161   7.151   4.275   9.867  0.2593  0.0644  0.3368
28882ION     NA49162   4.947  15.512  13.423  0.0431  0.0314  0.0988
28883ION     NA49163  13.813  16.035   9.894  0.0175  0.0566 -0.0112
28884ION     NA49164   0.735   4.090   4.979  0.3127 -0.1491 -0.1988
28885ION     NA49165   6.330   8.528   3.458  0.1456 -0.0262  0.1760
28886ION     NA49166   8.051  13.384  10.814 -0.0340  0.0870  0.0304
28887ION     NA49167  16.823  13.165  11.855 -0.2346  0.1567 -0.1336
28888ION     NA49168   1.164   3.348   4.869  0.1064 -0.0337  0.1447
28889ION     NA49169  19.382   9.469   2.743  0.1299  0.2714  0.1249
28890ION     NA49170   9.557  17.571   3.111 -0.2828 -0.0523  0.0165
28891ION     NA49171   2.178  17.266   4.912  0.2394  0.2740  0.0181
28892ION     NA49172  15.086  18.701  10.149 -0.2010 -0.2043  0.1107
28893ION     NA49173  13.666  19.161  11.965  0.0841 -0.0414 -0.2611
28894ION     NA49174   1.227   9.264   3.210  0.2461 -0.1244 -0.2628
28895ION     NA49175  10.861  19.045  11.361 -0.0163 -0.0219 -0.2159
28896ION     NA49176  16.524   6.901   4.460 -0.0923  0.1310  0.1278
28897ION     NA49177   5.760  13.365   3.306  0.2396 -0.0993  0.1158
28898ION     NA49178   3.282  15.360   9.718 -0.2404  0.2269  0.0357
28899ION     NA49179   1.015  10.614   4.153 -0.1086  0.2570  0.1524
28900ION     NA49180  16.286   5.276   4.859  0.2447  0.1037  0.0859
28901ION     NA49181  16.683   6.111   4.573 -0.1254 -0.0078  0.1934
28902ION     NA49182  13.468   7.035  13.190  0.0078 -0.0478  0.0975
28903ION     NA49183   6.543   0.331   5.143 -0.4483 -0.2484  0.1514
28904ION     NA49184   8.024   5.224   9.788  0.0358  0.1538  0.2792
28905ION     NA49185   7.787   1.122   9.970 -0.1315  0.1471  0.2771
28906ION     NA49186  16.554  15.137  10.132  0.2085  0.0072  0.1079
28907ION     NA49187  16.864  17.399   4.747  0.1811 -0.2235  0.2203
28908ION     NA49188   3.520  15.558   4.910  0.2233  0.0561 -0.0635
28909ION     NA49189   7.222  19.266  11.927  0.0817 -0.2840  0.0201
28910ION     NA49190  12.878   9.820  13.566 -0.0558  0.0548  0.5867
28911ION     NA49191  18.045   4.191   4.734 -0.1840  0.3296  0.1884
28912ION     NA49192  14.752   1.657  14.229  0.2659 -0.1099 -0.1821
28913ION     NA49193  12.166  10.016   4.596 -0.1350 -0.1148  0.0447
28914ION     NA49194   9.354  10.532   4.484  0.2374  0.1264 -0.2503
28915ION     NA49195   7.925  12.675   9.360 -0.1567  0.3793  0.1720
28916ION     NA49196  17.955   8.430   4.405 -0.0586 -0.0213  0.1036
28917ION     NA49197   4.311   0.099   4.776  0.0716  0.0414 -0.1413
28918ION     NA49198  17.388   6.657   4.446 -0.2865  0.0347 -0.3323
28919ION     NA49199   9.354   5.063  12.530 -0.1504  0.1966 -0.2098
28920ION     NA49200   0.652  18.335  12.062 -0.0113 -0.0284  0.1508
28921ION     NA49201   5.581  11.222  13.429  0.0575 -0.0930  0.0771
28922ION     NA49202   3.625  13.562  13.032  0.1197  0.2546  0.1291
28923ION     NA49203  11.605  16.722   2.819  0.0889 -0.0995 -0.2619
28924ION     NA49204  18.682   9.445   2.278  0.2081 -0.0044  0.1056
28925ION     NA49205   9.589  16.769   2.062 -0.2319 -0.1566  0.0232
28926ION     NA49206   2.456  11.427   9.405 -0.0822  0.1608 -0.3440
28927ION     NA49207  12.492   8.009  12.695  0.3139 -0.1303 -0.3164
28928ION     NA49208   6.479   4.330   3.924 -0.1543 -0.1399  0.0748
28929ION     NA49209  18.351  10.050  14.136 -0.0652  0.2508 -0.1111
28930ION     NA49210   9.702   6.799   2.781 -0.1184  0.0862 -0.0826
28931ION     NA49211   0.515  15.831  14.420  0.0075  0.1386  0.2555
28932ION     NA49212  14.595  14.444   9.836 -0.0467 -0.1095  0.2019
28933ION     NA49213  12.711   6.307  10.032 -0.1328 -0.0852 -0.1747
28934ION     NA49214  14.915  11.469   1.328  0.3712 -0.0307  0.1098
28935ION     NA49215   0.394   5.672  14.265 -0.1589 -0.2006  0.0080
28936ION     NA49216   3.653   3.010  10.231  0.0969 -0.0541  0.2534
28937ION     NA49217  19.101  14.602   4.895  0.0607  0.0768  0.0672
28938ION     NA49218  15.450   2.911   1.928 -0.0370 -0.0979  0.0483
28939ION     NA49219  19.349   4.331  10.517  0.1265  0.2449  0.1456
28940ION     NA49220   8.650   3.799  12.227 -0.3340  0.0246 -0.1574
28941ION     NA49221   7.808  18.533   4.943 -0.1130  0.2172  0.2977
28942ION     NA49222   7.244   5.831   4.528  0.0632  0.0653  0.3181
28943ION     NA49223   1.720   3.312   2.562 -0.1516 -0.0825 -0.2136
28944ION     NA49224  14.408  18.449   5.252  0.0393  0.1170 -0.0044
28945ION     NA49225   9.090  14.013   9.809 -0.1571  0.2085  0.1950
28946ION     NA49226  17.121   5.856  13.422  0.0907  0.0134 -0.0604
28947ION     NA49227  13.412   7.133   5.001  0.1389  0.0356 -0.1340
28948ION     NA49228   6.976  15.538   9.620 -0.1037 -0.1997 -0.2520
28949ION     NA49229   1.949   4.701  10.029 -0.2772  0.2979  0.1770
28950ION     NA49230  15.341   1.006  11.351  0.1860 -0.3860  0.2350
28951ION     NA49231  15.524   9.686   9.406 -0.3694 -0.1255  0.0608
28952ION     NA49232  18.536   5.461   4.900 -0.2659  0.2699 -0.1017
28953ION     NA49233   7.809   4.374   9.706  0.2231 -0.0245  0.1479
28954ION     NA49234   9.614   6.945   1.467 -0.1757 -0.3067  0.0347
28955ION     NA49235  11.614   3.155   3.161  0.1716 -0.0289 -0.2452
28956ION     NA49236  11.906  15.549   4.948 -0.0573  0.4010  0.1157
28957ION     NA49237  18.146  14.472   9.728  0.0839 -0.0259 -0.0003
28958ION     NA49238   5.120   7.867  11.689  0.3558  0.0940  0.0536
28959ION     NA49239   8.290   6.718   1.874 -0.2487 -0.0581 -0.0815
28960ION     NA49240  14.282  11.531   4.623  0.2290 -0.2649  0.0475
28961ION     NA49241   5.184   7.769   9.593  0.1944  0.1128 -0.0866
28962ION     NA49242   8.410  16.195   1.777 -0.0109  0.3930  0.0690
28963ION     NA49243  14.255   7.196   0.362  0.1894  0.1943 -0.2237
28964ION     NA49244  18.365  15.443   9.925 -0.2881  0.1409  0.0238
28965ION     NA49245  11.814  19.077   0.038 -0.0027 -0.1424  0.2499
28966ION     NA49246  19.111   6.102   4.588  0.0389 -0.0720 -0.1413
28967ION     NA49247  11.864  13.040   4.968  0.4421  0.0189 -0.1696
28968ION     NA49248   2.138  15.337   9.439 -0.4636  0.0314  0.0675
28969ION     NA49249   5.334  16.726   2.638 -0.1364 -0.4212 -0.1095
28970ION     NA49250  18.173  10.895   1.925 -0.0669 -0.2858 -0.0168
28971ION     NA49251  16.699   0.573   9.795 -0.0743  0.0759 -0.0941
28972ION     NA49252  14.938  10.263   9.492 -0.2677 -0.0369 -0.0220
28973ION     NA49253   1.648   3.808  10.126  0.2007 -0.0268 -0.0200
28974ION     NA49254   7.513   7.294   4.930  0.0006  0.0120 -0.0085
28975ION     NA49255  12.001  16.940   9.800 -0.2461 -0.0763  0.1830
28976ION     NA49256   8.630   5.273   3.969  0.0194 -0.1499 -0.0665
28977ION     NA49257  16.353   6.668   0.110 -0.0048  0.0641  0.1057
28978ION     NA49258  12.707  18.012   9.793 -0.4113  0.0589 -0.1503
28979ION     NA49259   8.472  17.393   4.978 -0.1801 -0.1634 -0.0222
28980ION     NA49260  14.756   4.552   4.362  0.1713 -0.0182 -0.0811
28981ION     NA49261   3.919  18.069   1.653 -0.2760  0.0935 -0.1938
28982ION     NA49262   2.154  10.247  13.823  0.0891 -0.1355  0.4152
28983ION     NA49263  15.101  12.976  12.170  0.0136  0.0622  0.0214
28984ION     NA49264   4.114   3.029  11.096 -0.3904  0.0095  0.4958
28985ION     NA49265  10.970  18.287   9.739  0.0572  0.1890 -0.0027
28986ION     NA49266  10.333   1.732  12.115 -0.1604  0.0771  0.3611
28987ION     NA49267  15.012   1.722   2.406 -0.1915  0.2194  0.0451
28988ION     NA49268  15.846  16.705  14.121  0.1415  0.0486 -0.5207
28989ION     NA49269  17.384   7.913   9.542 -0.4416 -0.1913 -0.0425
28990ION     NA49270  17.579   8.873  14.416  0.1290 -0.1304  0.2298
28991ION     NA49271   3.652   7.982   9.617  0.0608 -0.1701  0.2183
28992ION     NA49272  17.980   5.753   9.851 -0.1549  0.0295 -0.0315
28993ION     NA49273  18.677  15.732   4.148 -0.0799 -0.1566 -0.3091
28994ION     NA49274   4.603  11.278   9.602 -0.2863  0.1441  0.4907
28995ION     NA49275  11.068   0.167   4.913 -0.0871  0.2218  0.0790
28996ION     NA49276   3.255  15.816   9.526 -0.3365  0.0610 -0.1090
28997ION     NA49277   7.248  19.375   0.943  0.2342  0.2051  0.0588
28998ION     NA49278  14.574   2.339   4.870 -0.0415 -0.1206 -0.0758
28999ION     NA49279  13.218   6.551   2.440 -0.3577  0.0330 -0.0308
29000ION     NA49280  18.150   5.991   1.250  0.1851  0.1941 -0.0098
29001ION     NA49281  15.713   6.060   0.707  0.1028  0.1038  0.1258
29002ION     NA49282  13.146   6.978   9.965  0.0952 -0.2467  0.0760
29003ION     NA49283   2.632   3.000   4.865 -0.1826 -0.0023 -0.5362
29004ION     NA49284   0.479   2.322   0.103 -0.1191 -0.2519  0.0764
29005ION     NA49285   1.132  15.717   2.503  0.1443 -0.0908  0.0372
29006ION     NA49286  12.000  16.384   9.943 -0.2868  0.2101 -0.1276
29007ION     NA49287   5.336   8.513   1.194  0.0620 -0.0660 -0.0268
29008ION     NA49288  16.752  16.031   1.883  0.1401 -0.0826 -0.1668
29009ION     NA49289  17.514  10.615  13.630 -0.3396  0.1601  0.0376
29010ION     NA49290   6.156  15.826   4.866 -0.0295  0.1389 -0.6380
29011ION     NA49291  16.636  12.626   1.735 -0.0486 -0.0678  0.0475
29012ION     NA49292   9.043   4.845   5.156  0.2613 -0.0500  0.0412
29013ION     NA49293   2.944   2.357   4.861  0.0848 -0.0526 -0.3865
29014ION     NA49294  14.553   9.989   2.914 -0.0358 -0.0125 -0.1607
29015ION     NA49295  14.315  12.868   4.827  0.0969 -0.1223  0.0288
29016ION     NA49296  15.974   2.317  13.066  0.2112 -0.0853 -0.1210
29017ION     NA49297   8.023   1.177   4.846  0.0638  0.5208  0.4221
29018ION     NA49298   5.483   1.159   3.453 -0.1721 -0.1124 -0.4200
29019ION     NA49299   6.418   8.932   9.529  0.0036 -0.3949 -0.1806
29020ION     NA49300   2.219  12.890   9.387 -0.0873 -0.0513 -0.2694
29021ION     NA49301   1.553   2.361  11.764  0.1426 -0.0450 -0.3621
29022ION     NA49302  13.726   4.436  10.670 -0.0385 -0.2044 -0.0466
29023ION     NA49303  11.409  18.255   5.323  0.3793  0.0236  0.0169
29024ION     NA49304  10.073  16.538  10.631  0.0420  0.0586  0.1652
29025ION     NA49305  17.762  14.139   4.783  0.0809 -0.1782  0.1560
29026ION     NA49306  10.861   7.985  11.457 -0.1490 -0.0539 -0.2570
29027ION     NA49307   2.769   4.601  11.311  0.0441 -0.2762 -0.0907
29028ION     NA49308   6.767  11.324   4.744 -0.3035 -0.0068 -0.2021
29029ION     NA49309   4.015  11.226   4.347 -0.1430 -0.1896  0.1054
29030ION     NA49310  13.026  16.128  14.459 -0.1630  0.2019 -0.3320
29031ION     NA49311   2.519   9.957   4.371  0.3711  0.2391  0.0359
29032ION     NA49312   8.803  12.285   1.986 -0.3644  0.0571  0.2238
29033ION     NA49313   2.269   7.212   9.951 -0.0669  0.2436 -0.0778
29034ION     NA49314   1.639   6.479   1.480  0.0170  0.1578 -0.1975
29035ION     NA49315  13.647  10.152   4.787  0.1743  0.1801  0.1013
29036ION     NA49316   8.118  14.121   9.563  0.2339 -0.0053 -0.0691
29037ION     NA49317  10.333  11.361   4.523 -0.0462 -0.0650  0.2781
29038ION     NA49318  19.180   8.128   4.481  0.2954 -0.1991  0.0937
29039ION     NA49319   2.335   4.717   5.058 -0.0623  0.1124  0.1851
29040ION     NA49320  17.679   7.242  10.006 -0.2771  0.0071  0.3278
29041ION     NA49321  13.512   1.461   5.201 -0.1843 -0.3189  0.2426
29042ION     NA49322   4.800  12.355   3.165  0.1972 -0.1418 -0.0776
29043ION     NA49323  10.879  11.694   3.697  0.2047 -0.2667 -0.2962
29044ION     NA49324   8.816  10.249  12.556  0.0183  0.0681  0.2420
29045ION     NA49325  14.966  12.819   9.763 -0.1197 -0.0490 -0.0948
29046ION     NA49326   9.428   3.947   5.016  0.1374 -0.1118  0.1315
29047ION     NA49327   6.253   1.186   5.025 -0.5069 -0.1272  0.0542
29048ION     NA49328  11.412  14.521   2.781 -0.0053  0.2139 -0.0573
29049ION     NA49329   5.421   2.924  12.764 -0.0692 -0.1932  0.2878
29050ION     NA49330  18.794   1.260   2.512 -0.1288 -0.0894  0.2847
29051ION     NA49331   7.178   0.231  10.195  0.1300  0.1990 -0.0251
29052ION     NA49332  10.513   7.358   4.807 -0.0207 -0.0577  0.2078
29053ION     NA49333  13.272  17.374   9.728 -0.0024 -0.0514 -0.2590
29054ION     NA49334  15.071   2.645  14.000 -0.2829  0.2427  0.0773
29055ION     NA49335  19.131  14.420   3.671 -0.0515 -0.0685  0.3106
29056ION     NA49336   9.218   7.107  10.083  0.2783 -0.0601 -0.1195
29057ION     NA49337  19.267  12.938   4.310 -0.1968 -0.3080  0.0075
29058ION     NA49338   4.552  11.802   0.564 -0.0328 -0.1677  0.3049
29059ION     NA49339  16.902   3.868   4.900 -0.1746 -0.1680 -0.1248
29060ION     NA49340  18.410   3.144   9.945 -0.3700 -0.2317 -0.3319
29061ION     NA49341   5.826  12.549   4.499 -0.0509  0.1230 -0.0581
29062ION     NA49342   1.856   2.039   4.914  0.0730 -0.2725  0.0642
29063ION     NA49343   0.433   6.615   1.369  0.0132  0.0743 -0.1279
29064ION     NA49344  16.204   6.432   9.716 -0.2330 -0.1409  0.1558
29065ION     NA49345  14.841   3.529  10.199  0.0145 -0.0198  0.0235
29066ION     NA49346  18.042  15.392   1.508  0.1516  0.0526 -0.1226
29067ION     NA49347  18.096   8.022   9.483 -0.3007 -0.2924  0.1317
29068ION     NA49348  13.787   2.464  12.515 -0.1082  0.2521  0.0730
29069ION     NA49349   7.141   6.863   4.587  0.1688  0.2543 -0.1674
29070ION     NA49350   6.423   6.774  13.031 -0.1319 -0.2682  0.2211
29071ION     NA49351   6.724  16.848   0.782 -0.1543 -0.3855 -0.0067
29072ION     NA49352  13.554  18.737   9.944  0.0974 -0.0413 -0.0434
29073ION     NA49353   8.164   3.277  12.052  0.0058  0.0514 -0.1526
29074ION     NA49354  19.242  18.433   4.882 -0.1378 -0.1787  0.0878
29075ION     NA49355   1.087  10.245   3.270 -0.0982 -0.0919  0.2196
29076ION     NA49356  18.993  11.362   9.282 -0.0821  0.0155  0.1130
29077ION     NA49357  12.430  17.494   1.830 -0.2883 -0.2470  0.1829
29078ION     NA49358   9.853   5.909   0.175  0.0854 -0.0097  0.2038
29079ION     NA49359  15.857   4.552   3.630 -0.1283 -0.0990  0.2690
29080ION     NA49360   5.469   5.646  11.500  0.0462  0.2751 -0.0744
29081ION     NA49361   9.690  13.789  14.443  0.1881 -0.0510 -0.2357
29082ION     NA49362  15.129  10.974  14.434 -0.2021 -0.0956  0.0204
29083ION     NA49363   5.002   0.461  10.262  0.3550  0.2404 -0.0797
29084ION     NA49364  11.191  16.915  12.534 -0.1456  0.0042  0.4285
29085ION     NA49365  15.905  13.318  10.581  0.0023  0.2552 -0.1228
29086ION     NA49366  10.835  19.212  12.554 -0.1914 -0.0745  0.3600
29087ION     NA49367  17.077  18.267   5.072  0.0939  0.0412  0.0517
29088ION     NA49368  19.203   8.351   2.709  0.3387 -0.0565  0.0351
29089ION     NA49369  12.663   6.497   1.508  0.2079  0.0733 -0.1930
29090ION     NA49370   9.100   9.932   4.482 -0.0550  0.1755  0.1828
29091ION     NA49371  17.081   0.330  12.252  0.0497 -0.0040  0.0382
29092ION     NA49372   2.011  18.399  11.153  0.2619  0.1467  0.1285
29093ION     NA49373   6.393  14.018   2.334 -0.2942  0.2138  0.1023
29094ION     NA49374  19.349  18.997  10.003 -0.2327  0.3098  0.1066
29095ION     NA49375   7.760   2.854   5.084 -0.3431 -0.2334  0.2449
29096ION     NA49376   2.684   3.988  13.643 -0.0045  0.1609 -0.2739
29097ION     NA49377   6.310  16.641  10.236  0.0708  0.0974 -0.1115
29098ION     NA49378   5.758   5.359  12.766  0.2704 -0.0293 -0.1695
29099ION     NA49379   6.021   3.432  13.826  0.2939 -0.4079 -0.1432
29100ION     NA49380   3.941  13.152   1.251  0.0501 -0.0239 -0.0381
29101ION     NA49381   7.512   4.358   2.397  0.0879 -0.0741 -0.1431
29102ION     NA49382   7.709  13.459   9.587  0.4399 -0.1165  0.2837
29103ION     NA49383   0.244  18.810  13.317 -0.2819 -0.1191 -0.1102
29104ION     NA49384  16.748  19.058   9.773 -0.1949  0.3149  0.0253
29105ION     NA49385  17.313  15.112   9.743 -0.0044  0.0922  0.2416
29106ION     NA49386  18.841  17.938   9.777 -0.1469 -0.1449 -0.1035
29107ION     NA49387   0.529  18.185   9.878 -0.0514  0.1323  0.1956
29108ION     NA49388  14.621   5.840  10.030 -0.0041  0.1074  0.0277
29109ION     NA49389   5.022   0.682   1.654 -0.1149  0.2024 -0.1617
29110ION     NA49390   8.420   0.601  10.282  0.0069 -0.1686  0.2829
29111ION     NA49391  17.067   1.705   2.379 -0.1018 -0.1996 -0.0027
29112ION     NA49392  18.843   6.671  11.559 -0.2161  0.0307  0.3046
29113ION     NA49393   8.381  10.521   4.436  0.0019  0.1488 -0.1692
29114ION     NA49394   1.676  18.207  10.015  0.0782 -0.0334 -0.2066
29115ION     NA49395  15.917  13.087   9.568 -0.0584 -0.2109  0.0048
29116ION     NA49396   9.799  11.523  14.320  0.0201 -0.2168  0.1071
29117ION     NA49397   5.460   6.268   4.816 -0.3829 -0.1555 -0.0961
29118ION     NA49398   9.074  15.468  10.867  0.1181  0.0749 -0.4109
29119ION     NA49399  15.470  10.357   1.514  0.2577 -0.1478  0.5043
29120ION     NA49400  15.944  11.656  10.229 -0.1073  0.2060  0.3109
29121ION     NA49401   2.306   5.644   9.995 -0.1030  0.1231 -0.2226
29122ION     NA49402  15.328   2.965   5.175 -0.1528  0.1139 -0.1218
29123ION     NA49403  15.906  16.348   5.016 -0.3964  0.0093  0.4178
29124ION     NA49404   5.616  13.116   0.314  0.0738 -0.3170 -0.0954
29125ION     NA49405  17.373   6.695  12.435  0.2187 -0.1723 -0.2825
29126ION     NA49406   3.664   8.298  13.799  0.1929  0.0014  0.2018
29127ION     NA49407   8.502  12.640   4.016 -0.1089 -0.1102 -0.2994
29128ION     NA49408   5.745   9.576   9.689 -0.0383 -0.0685 -0.0875
29129ION     NA49409  11.001   7.975   5.047  0.1142  0.1578  0.0089
29130ION     NA49410   5.321  14.592   9.754  0.1120 -0.1374 -0.1819
29131ION     NA49411  12.151   0.516   2.702  0.0046  0.0828 -0.0539
29132ION     NA49412   5.711   1.697  10.359 -0.0996  0.2586 -0.1239
29133ION     NA49413  13.752   7.558   9.588 -0.2722 -0.1390 -0.1145
29134ION     NA49414   5.846   2.604   9.678  0.0916  0.0418 -0.2224
29135ION     NA49415   3.812  14.431  12.477 -0.3244 -0.0938 -0.1691
29136ION     NA49416   9.145  16.287  11.245 -0.2077 -0.0578  0.0225
29137ION     NA49417  13.374   9.483   4.644 -0.0203 -0.3031 -0.0859
29138ION     NA49418   1.597  10.258   9.351  0.0405  0.1750 -0.1116
29139ION     NA49419   9.285   2.090   1.892 -0.1894 -0.0613 -0.1613
29140ION     NA49420   3.656  11.334  12.544  0.2498  0.0508  0.0345
29141ION     NA49421  18.941  12.858   9.512 -0.1495  0.0700 -0.0207
29142ION     NA49422  10.947   4.907  10.090  0.0127  0.1088  0.3665
29143ION     NA49423   5.128   8.676  13.656  0.0482  0.0133 -0.1227
29144ION     NA49424   7.592  18.506   1.684 -0.0376 -0.1606 -0.1280
29145ION     NA49425   0.125  10.374   4.172  0.0970  0.2046 -0.1501
29146ION     NA49426  11.496   8.928  13.754  0.1949 -0.0845  0.3697
29147ION     NA49427   8.506  14.786   9.519  0.0586  0.2509 -0.1768
29148ION     NA49428  18.246   2.112  12.694  0.0279  0.4337 -0.2605
29149ION     NA49429   7.202  15.040   4.628 -0.3201  0.1521 -0.0895
29150ION     NA49430  17.547   9.910   0.657 -0.1758 -0.1490 -0.0556
29151ION     NA49431   0.668   4.588  14.459 -0.0747  0.0761  0.2732
29152ION     NA49432  14.769   5.330   0.068 -0.1641 -0.0357 -0.1305
29153ION     NA49433   9.632   4.049   1.312  0.0409  0.1068 -0.0127
29154ION     NA49434  11.029   8.861   9.786  0.3571  0.0560 -0.2865
29155ION     NA49435  12.024   8.226   0.515 -0.1906 -0.1193 -0.3350
29156ION     NA49436   7.507  17.195  13.444 -0.3198  0.1447 -0.1043
29157ION     NA49437   6.977  17.299   4.980 -0.2133 -0.1998 -0.0880
29158ION     NA49438  15.861  12.365   3.332  0.0542 -0.2142 -0.0594
29159ION     NA49439  16.852   8.540  13.645 -0.2465  0.1995 -0.2809
29160ION     NA49440   6.351  13.414   4.437  0.1644 -0.0698  0.1808
29161ION     NA49441  11.529  10.873   0.269  0.1509 -0.1937 -0.0386
29162ION     NA49442  11.384  15.833  14.108 -0.1290 -0.0667  0.1392
29163ION     NA49443   4.726  12.346  10.127 -0.0429  0.3290 -0.1742
29164ION     NA49444   5.761  15.568   4.914 -0.2030  0.1695 -0.0035
29165ION     NA49445  16.011  16.052  10.107  0.1246 -0.4183 -0.0768
29166ION     NA49446  14.839  15.620  10.077 -0.1109  0.4406 -0.3405
29167ION     NA49447  16.547   6.302   3.622 -0.2854 -0.0171  0.0952
29168ION     NA49448   2.056   0.102   4.703  0.4676  0.1064  0.2151
29169ION     NA49449  11.074  16.822   9.825 -0.1495  0.1192  0.0763
29170ION     NA49450   7.743  14.343   2.323 -0.0844 -0.0028 -0.0044
29171ION     NA49451   7.134   1.484   0.196  0.0220 -0.2595  0.2388
29172ION     NA49452  18.594  10.573   4.178 -0.0217  0.2864  0.0325
29173ION     NA49453   6.672   5.176   4.695 -0.0079 -0.4169  0.0075
29174ION     NA49454  17.023  10.583   9.799  0.2604  0.0726  0.0318
29175ION     NA49455  18.762   3.697   5.165 -0.0798 -0.1946 -0.2942
29176ION     NA49456   4.081   1.162   1.587  0.0741 -0.1811 -0.0929
29177ION     NA49457  11.516  17.611   9.646  0.4179 -0.2234  0.3854
29178ION     NA49458  15.532   4.553  11.500 -0.0298  0.0396  0.3936
29179ION     NA49459  11.031   0.998   9.579  0.1491 -0.2205 -0.3175
29180ION     NA49460  14.805  10.491   4.393  0.3417  0.2102  0.3130
29181ION     NA49461   4.973  10.447   9.665 -0.0763  0.1170  0.2206
29182ION     NA49462   6.015   0.186  13.263 -0.2426  0.0342 -0.0620
29183ION     NA49463  17.508   9.080   4.223 -0.2440 -0.0333  0.0371
29184ION     NA49464   1.296  12.614  13.141  0.3148  0.2508  0.0754
29185ION     NA49465   8.517   3.254  13.093 -0.0343  0.1894  0.4089
29186ION     NA49466  14.029  10.517  13.466 -0.0068  0.1937  0.1930
29187ION     NA49467   1.813  14.166   1.939 -0.4188 -0.0728 -0.0873
29188ION     NA49468   5.033  18.040   4.745  0.2961 -0.0076 -0.0809
29189ION     NA49469  11.214  14.728  14.039  0.2714  0.0829 -0.2443
29190ION     NA49470   0.491  10.364   9.152  0.2565 -0.3987  0.2356
29191ION     NA49471   0.499  14.890   9.680 -0.0230  0.1879 -0.3014
29192ION     NA49472   8.888   8.436   4.445  0.0619 -0.0848 -0.2062
29193ION     NA49473  11.592   1.686   9.744  0.0822 -0.1714  0.0145
29194ION     NA49474  16.429  18.768  14.103 -0.0512  0.1543 -0.0702
29195ION     NA49475  10.690   0.497  13.729  0.2946 -0.0376  0.1080
29196ION     NA49476  15.384  18.463   1.603  0.1059  0.2924 -0.0990
29197ION     NA49477  12.773   6.209  13.346 -0.0516  0.2540 -0.4738
29198ION     NA49478   1.312   9.399  12.883  0.0600 -0.2107  0.1164
29199ION     NA49479   6.350  12.480   4.443 -0.3692  0.3123 -0.1637
29200ION     NA49480   3.510   5.497  10.450  0.1286 -0.0790  0.2395
29201ION     NA49481   5.113   2.583  10.205  0.1011 -0.0500  0.4392
29202ION     NA49482  16.022   4.403   0.791 -0.0613  0.0896  0.1025
29203ION     NA49483  17.133   2.546  13.230  0.1924  0.0677  0.2711
29204ION     NA49484  17.917   3.343   5.419  0.2176  0.3552  0.2241
29205ION     NA49485   0.265   9.540   9.249  0.2075 -0.2034 -0.0899
29206ION     NA49486   5.739  12.721  10.737 -0.0284 -0.1363  0.0014
29207ION     NA49487   3.399   6.147  10.709  0.3374 -0.0976 -0.0813
29208ION     NA49488  15.147   4.254   0.374 -0.2773 -0.0491  0.1117
29209ION     NA49489  16.352  10.751  11.095 -0.0675  0.2581 -0.2196
29210ION     NA49490   2.853   6.225  12.716 -0.1889 -0.3925 -0.0378
29211ION     NA49491   4.148  16.882   4.816 -0.1193 -0.2137 -0.2661
29212ION     NA49492  10.816   0.854   1.964 -0.0023 -0.0072  0.3096
29213ION     NA49493  16.457  11.086   4.425  0.0679  0.1917 -0.0777
29214ION     NA49494  15.092  11.770  10.255 -0.0427 -0.4180 -0.1921
29215ION     NA49495  16.865   0.661  10.279  0.0271 -0.0594 -0.0840
29216ION     NA49496  14.400   8.269   9.798  0.0451  0.1124  0.3958
29217ION     NA49497   8.601   5.163   4.877 -0.0601  0.0418 -0.1021
29218ION     NA49498   9.663   3.451   5.120  0.0117  0.2569  0.1608
29219ION     NA49499   5.204   0.853   4.972 -0.0592  0.0253  0.2797
29220ION     NA49500  12.047  19.275   9.892  0.2459  0.0749  0.2967
29221ION     NA49501   9.625  11.895   9.601  0.1352 -0.0407 -0.2311
29222ION     NA49502  11.050   4.159   4.973 -0.0208  0.1038 -0.0168
29223ION     NA49503  11.479  13.165  11.758  0.1175 -0.2552 -0.0149
29224ION     NA49504  17.375   4.290   0.621  0.2149  0.0549 -0.1542
29225ION     NA49505   7.568   1.401  13.761  0.2272 -0.1911  0.2427
29226ION     NA49506   4.339   5.482   5.066  0.1337 -0.0589 -0.0341
29227ION     NA49507  16.670  14.236   4.825 -0.1005  0.2780  0.4546
29228ION     NA49508   1.851  13.780   9.280  0.1171  0.0103 -0.2298
29229ION     NA49509   3.959   8.386   9.819 -0.2285  0.0326  0.0306
29230ION     NA49510   8.448  18.999  10.129 -0.0837  0.1403 -0.1453
29231ION     NA49511   3.194  11.908  12.654  0.0283 -0.0176  0.3259
29232ION     NA49512   6.483  11.843   4.753  0.0769 -0.3389 -0.0659
29233ION     NA49513  19.199  19.408   5.024  0.2485  0.0261 -0.2930
29234ION     NA49514  18.514   7.551   9.916 -0.1149 -0.0567  0.2755
29235ION     NA49515   2.757   8.856   2.188  0.0737  0.1916  0.1395
29236ION     NA49516   5.190   9.202  12.314 -0.2257 -0.2452 -0.4323
29237ION     NA49517  12.497   1.597   9.917 -0.2093  0.3280 -0.4530
29238ION     NA49518   3.738   9.238   1.591 -0.0996  0.1639 -0.0403
29239ION     NA49519  10.833   4.440  10.382 -0.3903 -0.0917  0.0152
29240ION     NA49520   1.778  13.954  11.348  0.2332  0.4408  0.1992
29241ION     NA49521   1.055   4.483   4.923 -0.0448 -0.0231 -0.1122
29242ION     NA49522   9.976   2.702   4.742 -0.0725 -0.0258 -0.0571
29243ION     NA49523  17.402  18.657   9.979 -0.0853 -0.2157  0.1205
29244ION     NA49524  18.025   9.836   3.970 -0.0112 -0.1492  0.0659
29245ION     NA49525   9.091   0.330   4.940  0.0881  0.0699 -0.0958
29246ION     NA49526   0.119  16.096   0.745  0.0440 -0.2253 -0.1423
29247ION     NA49527  11.276   7.443   2.580  0.2002 -0.0509  0.0145
29248ION     NA49528   7.320  12.156   4.613 -0.0860  0.1296 -0.1298
29249ION     NA49529  15.801   3.000   9.995 -0.2844  0.1922  0.2026
29250ION     NA49530   4.825   9.573   2.765 -0.0292 -0.1245  0.3387
29251ION     NA49531  12.713   5.511  10.245  0.0768  0.0675 -0.0434
29252ION     NA49532   4.958   7.883   4.884  0.1964 -0.0624 -0.1463
29253ION     NA49533  17.894   3.906  13.142 -0.2923 -0.3313  0.0508
29254ION     NA49534   9.462  15.614   4.910  0.1132  0.2241  0.0686
29255ION     NA49535  11.858   7.830   4.994  0.0598 -0.1252  0.4993
29256ION     NA49536  17.996  16.270   9.853 -0.1449  0.0135  0.0598
29257ION     NA49537  13.192  19.234   5.315  0.1200 -0.1203 -0.0848
29258ION     NA49538  13.874   6.587  10.056 -0.0355 -0.1520 -0.0029
29259ION     NA49539   9.656  17.195  10.009 -0.2210 -0.0567 -0.0145
29260ION     NA49540  12.870  16.393   9.817 -0.1690 -0.2662  0.4018
29261ION     NA49541  15.625   5.344  10.102 -0.0593  0.2150 -0.2157
29262ION     NA49542   9.340   4.216  12.789  0.1118 -0.1881  0.0013
29263ION     NA49543   8.837   2.323  10.209  0.0399 -0.1740 -0.1847
29264ION     NA49544  10.436  17.819  13.700  0.0357 -0.2154 -0.0072
29265ION     NA49545   5.722   3.962   9.766  0.0969 -0.2802 -0.2529
29266ION     NA49546   9.792  11.988  12.124 -0.1652 -0.0279 -0.1910
29267ION     NA49547  13.834  16.897  10.440  0.3179 -0.1542  0.2331
29268ION     NA49548   9.058  14.193  13.749 -0.3923 -0.1675 -0.2003
29269ION     NA49549  11.878  12.548  10.960  0.0252  0.0243 -0.1046
29270ION     NA49550   3.301   4.566   1.854  0.1199  0.1772 -0.1129
29271ION     NA49551   0.605  14.911   4.820 -0.0421 -0.0750 -0.5350
29272ION     NA49552  16.976  13.355  10.613  0.2673 -0.0857  0.3536
29273ION     NA49553   4.359  18.537  10.425  0.2177  0.3034 -0.2097
29274ION     NA49554  10.934   9.497   4.908 -0.0341 -0.2310  0.2056
29275ION     NA49555   4.481   5.947  10.008 -0.3328  0.0297 -0.1251
29276ION     NA49556  10.584  17.507   9.520  0.0589 -0.0064  0.2658
29277ION     NA49557  11.924   7.510   9.875  0.0985 -0.0134  0.1485
29278ION     NA49558  14.095  14.098  11.107 -0.0396 -0.1594  0.0744
29279ION     NA49559   6.115   6.268   9.943 -0.1369 -0.2699 -0.1766
29280ION     NA49560  12.966  11.869   4.600  0.0854  0.2170 -0.3345
29281ION     NA49561  17.673   2.986   9.729 -0.1237  0.2900  0.0232
29282ION     NA49562   6.479   4.436  12.180 -0.1728 -0.1800  0.2590
29283ION     NA49563   5.497  13.204   2.499  0.1248  0.1673 -0.1759
29284ION     NA49564  16.486   8.914  12.239 -0.0234 -0.0980  0.0242
29285ION     NA49565  10.837   6.088  10.428 -0.2159  0.1502 -0.2503
29286ION     NA49566  16.657  12.095  13.874 -0.4814 -0.0214 -0.0170
29287ION     NA49567   7.164   6.755   3.289 -0.0756 -0.0193 -0.1757
29288ION     NA49568   7.393  18.128  12.306  0.1684  0.1505  0.4223
29289ION     NA49569   0.566   3.970  10.984 -0.0817 -0.0164 -0.2909
29290ION     NA49570   0.806  10.437   1.337 -0.1362 -0.0957 -0.0422
29291ION     NA49571  12.006  17.874   0.322 -0.0608  0.0089  0.0205
29292ION     NA49572  14.569   7.095  14.117 -0.1636 -0.1859 -0.1600
29293ION     NA49573  18.694  11.632  11.776 -0.3891  0.2527  0.0577
29294ION     NA49574   4.460  10.091  14.290  0.1175 -0.1198 -0.0196
29295ION     NA49575  14.986  15.742   5.050 -0.2088 -0.2166  0.1921
29296ION     NA49576   7.463   6.111   9.984 -0.2816 -0.0299  0.0902
29297ION     NA49577   9.166   5.842   4.863  0.3819 -0.0212 -0.4316
29298ION     NA49578   2.176   3.701  10.200 -0.0464  0.0818  0.0598
29299ION     NA49579   3.310   6.826  13.564 -0.1747 -0.0350 -0.0269
29300ION     NA49580   4.888  16.982  10.873  0.1688 -0.0471 -0.0202
29301ION     NA49581  18.316  17.020   4.883 -0.1012 -0.0110 -0.2283
29302ION     NA49582  17.324  10.112  12.861  0.0358  0.0843 -0.0297
29303ION     NA49583   6.719   3.305   9.857  0.0500  0.0106  0.2150
29304ION     NA49584  10.383   6.558   4.810  0.0793 -0.0237  0.1039
29305ION     NA49585   9.176   5.469   2.299 -0.4057  0.0793  0.2413
29306ION     NA49586   1.339   6.855   9.586 -0.0891 -0.0970 -0.0070
29307ION     NA49587   4.765  16.864  12.733 -0.0240  0.1017  0.2390
29308ION     NA49588   4.424  17.665   4.708  0.1210 -0.1669 -0.4341
29309ION     NA49589   7.565  11.643   9.435  0.0995  0.0728  0.0537
29310ION     NA49590   1.858  17.923   2.127  0.0155 -0.1938  0.2092
29311ION     NA49591  18.408   4.793   2.802 -0.0511 -0.0451  0.0293
29312ION     NA49592   2.213   7.565  11.832  0.4794 -0.0763 -0.1617
29313ION     NA49593   3.668   5.973   4.753 -0.0961  0.1876 -0.0119
29314ION     NA49594   2.751   6.605   4.958  0.1195 -0.1121  0.1349
29315ION     NA49595  12.227  14.828   9.591 -0.0089 -0.0967 -0.3200
29316ION     NA49596   5.129  18.068  12.884  0.0077  0.1517  0.1115
29317ION     NA49597   3.081  12.698   9.296  0.0116  0.1296 -0.3636
29318ION     NA49598   2.614  14.246  13.183 -0.2093 -0.1748  0.3050
29319ION     NA49599  16.276  13.373  13.713  0.4438  0.2569 -0.1016
29320ION     NA49600  15.977   9.041   9.401  0.1435  0.0486  0.0557
29321ION     NA49601  18.258  13.449   2.879  0.0525 -0.1423  0.0431
29322ION     NA49602   1.849   2.031  10.016 -0.1671 -0.1666 -0.0895
29323ION     NA49603  14.164  11.137  11.959 -0.2242  0.2558  0.1298
29324ION     NA49604   1.544   7.026   4.610  0.0510 -0.0751  0.1139
29325ION     NA49605  12.116  15.801   1.321  0.0714  0.5839 -0.1652
29326ION     NA49606  15.471  14.661   4.923  0.3709  0.0595 -0.0453
29327ION     NA49607   4.963  17.026   4.745 -0.3673  0.0254  0.0826
29328ION     NA49608  13.729   0.326  13.291 -0.1397 -0.1988 -0.1053
29329ION     NA49609   4.264   7.662   3.118 -0.0523  0.0077 -0.2202
29330ION     NA49610  17.869   3.982   9.732 -0.2205 -0.2371  0.1593
29331ION     NA49611   8.357   2.349   3.719 -0.2203 -0.2269 -0.0858
29332ION     NA49612   2.566   8.709  14.213  0.1566 -0.1674  0.1698
29333ION     NA49613   5.282   6.386   9.895  0.0352  0.0177 -0.0149
29334ION     NA49614  16.364  15.010   2.952 -0.2212  0.2081 -0.1867
29335ION     NA49615   9.757   6.271   4.649  0.0388 -0.0122 -0.2215
29336ION     NA49616  19.165   7.141   9.484 -0.0508 -0.0502  0.2618
29337ION     NA49617   4.826  15.674  12.025 -0.0056 -0.1734 -0.0566
29338ION     NA49618   6.372   5.241  11.533 -0.1375  0.1034  0.1009
29339ION     NA49619   8.521  16.490   2.377 -0.0036 -0.3877  0.2878
29340ION     NA49620   0.758   3.658  10.008  0.0017 -0.0744  0.0845
29341ION     NA49621  13.442   5.070  13.531  0.2848  0.0024 -0.0140
29342ION     NA49622   4.450   8.532   0.987 -0.1121  0.0243 -0.1746
29343ION     NA49623   9.112  14.408  11.111  0.0778 -0.1051 -0.2195
29344ION     NA49624   4.760   2.709  13.445 -0.0333 -0.1900 -0.3193
29345ION     NA49625   7.402   4.329   4.754 -0.2141  0.0357  0.4173
29346ION     NA49626  17.871  11.051   4.263  0.2001 -0.0889  0.0354
29347ION     NA49627   8.836  19.312   2.529 -0.2749  0.2445  0.0106
29348ION     NA49628  17.811  11.743  11.474 -0.2776  0.0508 -0.5595
29349ION     NA49629   6.316   5.518   4.687 -0.1194  0.0437  0.1753
29350ION     NA49630  10.094   8.760  13.221 -0.0926 -0.1930 -0.2581
29351ION     NA49631  11.996  10.971   4.716  0.0269 -0.2741  0.4277
29352ION     NA49632   2.438  10.543   9.301  0.2710  0.0362 -0.0511
29353ION     NA49633  12.038  19.358   4.914 -0.0374  0.1662 -0.2419
29354ION     NA49634   6.518  18.835   4.881  0.0059 -0.0552  0.1341
29355ION     NA49635   5.590  11.409   9.424  0.2712 -0.0006 -0.3127
29356ION     NA49636  12.200   6.922   5.135 -0.2941 -0.8867  0.0056
29357ION     NA49637  14.571  16.795   0.458  0.2240 -0.2190  0.0010
29358ION     NA49638  16.933   1.701   9.664 -0.2505  0.0796 -0.1812
29359ION     NA49639  11.933  17.720   5.173 -0.1743 -0.0334  0.0646
29360ION     NA49640   0.076   6.570   4.391  0.0422 -0.0345 -0.0154
29361ION     NA49641   8.961  15.964   9.502 -0.1607  0.1192 -0.1197
29362ION     NA49642  16.006   6.107  10.823 -0.1868 -0.0956 -0.3145
29363ION     NA49643   4.958  11.992   4.731 -0.6247 -0.0663  0.1471
29364ION     NA49644  14.332  18.980   9.996  0.0016 -0.1372  0.0163
29365ION     NA49645   4.646   2.290  10.873  0.0219 -0.3793 -0.1043
29366ION     NA49646   7.550   1.929  11.275  0.1122  0.1618 -0.0339
29367ION     NA49647  14.906   7.247   9.717 -0.2181  0.0895  0.1573
29368ION     NA49648  18.921   6.457   9.642 -0.1341 -0.1023  0.2983
29369ION     NA49649  15.122  13.725   4.927  0.0980 -0.3757  0.1393
29370ION     NA49650  11.888   2.439  10.332  0.0560  0.2660  0.0251
29371ION     NA49651   4.445  14.291   9.421  0.0191  0.4748 -0.3260
29372ION     NA49652   8.538  13.321   9.525  0.0759  0.0029 -0.0977
29373ION     NA49653   2.136  16.017   3.370  0.0139 -0.0726  0.1360
29374ION     NA49654   4.310   2.150  10.095  0.1980  0.0502  0.2032
29375ION     NA49655  10.787  13.868  11.635 -0.0372 -0.0896  0.2534
29376ION     NA49656   0.209  12.036   4.400 -0.0525  0.1681  0.2105
29377ION     NA49657   9.686   2.967  10.018  0.2247  0.0620  0.2586
29378ION     NA49658  15.147   5.082   5.103 -0.3728 -0.0268 -0.4574
29379ION     NA49659   0.560   1.418  10.523 -0.0031  0.1276  0.4119
29380ION     NA49660  13.751  10.956   9.756 -0.2340 -0.0921 -0.0146
29381ION     NA49661   1.667  19.378   1.319 -0.1847  0.0663  0.0161
29382ION     NA49662   6.795   9.666   4.694 -0.1368  0.1234 -0.0385
29383ION     NA49663   8.952   6.763   4.933 -0.3104  0.1694 -0.0571
29384ION     NA49664   1.120  10.986  14.173  0.0010 -0.0391  0.1717
29385ION     NA49665   1.506  18.225   5.113 -0.0563 -0.0235 -0.4268
29386ION     NA49666   2.144   8.224   1.819  0.0042  0.1554 -0.2675
29387ION     NA49667   8.466   1.863  12.950  0.0216 -0.2385 -0.1569
29388ION     NA49668   8.864  16.771  12.828  0.1727  0.1126 -0.0456
29389ION     NA49669  17.656   8.002  13.561 -0.0114 -0.0464 -0.0184
29390ION     NA49670  14.571  13.749   4.940  0.0054  0.0167  0.1259
29391ION     NA49671  16.294   4.130   9.888  0.0419 -0.0566  0.0687
29392ION     NA49672  17.108  14.517   4.588  0.1248  0.1249 -0.1250
29393ION     NA49673  17.611  13.800   9.656  0.1660  0.1318 -0.1371
29394ION     NA49674  13.588   0.450   5.228  0.3158  0.2882  0.0521
29395ION     NA49675   4.925  15.175   4.589 -0.2857  0.0224 -0.0603
  19.42722  19.42722  14.49926
