INSANE! Membrane UpperLeaflet>loPI=1 LowerLeaflet>loPI=1
49675
    1loPI    C1    1   4.518   5.140   9.597  0.1114  0.0546 -0.0335
    1loPI    C2    2   4.737   5.402   9.390 -0.2877  0.3496 -0.0951
    1loPI    C3    3   4.808   5.346   9.780  0.1618  0.1341 -0.2014
    1loPI   PO4    4   4.520   4.856   9.434  0.1126  0.1045  0.0339
    1loPI   GL1    5   4.239   4.686   9.087 -0.1953 -0.5235  0.1473
    1loPI   GL2    6   3.909   4.776   9.068 -0.0714  0.4517 -0.0414
    1loPI   C1A    7   4.382   4.810   8.694  0.0407 -0.1056  0.0241
    1loPI   C2A    8   4.369   4.899   8.235  0.3929  0.0830  0.1171
    1loPI   C3A    9   4.291   4.789   7.851  0.2500 -0.4441 -0.0322
    1loPI   C4A   10   4.396   4.841   7.408 -0.0160  0.1386 -0.0201
    1loPI   C5A   11   4.252   4.978   6.935 -0.0544 -0.0050 -0.0088
    1loPI   C6A   12   4.203   4.781   6.547  0.3119 -0.0313 -0.1081
    1loPI   C1B   13   3.571   4.866   8.782 -0.0485  0.2481 -0.1592
    1loPI   C2B   14   3.261   4.880   8.584  0.0411 -0.0558  0.0465
    1loPI   C3B   15   3.111   5.252   8.167  0.1319 -0.3079  0.1387
    1loPI   C4B   16   2.982   5.452   7.767 -0.1967 -0.0267 -0.3956
    2loPI    C1   17  14.580   7.722   9.328 -0.1652 -0.0690  0.0977
    2loPI    C2   18  14.523   7.348   9.458  0.0145 -0.0901  0.1190
    2loPI    C3   19  14.573   7.646   9.720  0.2145 -0.1067  0.1007
    2loPI   PO4   20  14.430   7.719   9.049 -0.2567  0.0379 -0.1361
    2loPI   GL1   21  14.290   7.687   8.679  0.2509  0.2179 -0.1400
    2loPI   GL2   22  14.509   7.831   8.444 -0.0010 -0.0656  0.3272
    2loPI   C1A   23  14.212   7.438   8.302 -0.1952  0.0219  0.2690
    2loPI   C2A   24  14.194   7.549   7.894  0.1878  0.4857 -0.3704
    2loPI   C3A   25  14.454   7.587   7.545  0.1687  0.4306 -0.2139
    2loPI   C4A   26  14.557   7.996   7.441  0.3001  0.1810  0.1256
    2loPI   C5A   27  14.417   8.309   7.048  0.0923 -0.0517 -0.1768
    2loPI   C6A   28  14.413   8.693   6.769 -0.0029 -0.0307  0.2032
    2loPI   C1B   29  14.367   8.268   8.487 -0.0938 -0.0680 -0.0327
    2loPI   C2B   30  14.647   8.639   8.462 -0.0041  0.1143  0.0594
    2loPI   C3B   31  14.853   8.742   8.152 -0.1345 -0.2229  0.2182
    2loPI   C4B   32  15.063   8.832   7.905 -0.1533 -0.0210  0.0173
    3loPI    C1   33   3.545   0.788  10.386  0.0563 -0.0446 -0.2449
    3loPI    C2   34   3.151   0.784  10.315  0.0072  0.0759  0.0088
    3loPI    C3   35   3.295   0.624  10.652  0.1549  0.2155  0.0134
    3loPI   PO4   36   3.664   0.746  10.123  0.5174  0.1269 -0.0993
    3loPI   GL1   37   3.529   0.679   9.670  0.0820  0.0424 -0.2063
    3loPI   GL2   38   3.607   0.421   9.678 -0.1828  0.1446  0.4157
    3loPI   C1A   39   3.178   0.798   9.437  0.1196  0.0380 -0.0882
    3loPI   C2A   40   2.897   0.980   9.194 -0.1275  0.3590 -0.2530
    3loPI   C3A   41   2.903   1.007   8.770 -0.2414 -0.4472  0.2274
    3loPI   C4A   42   2.820   1.015   8.323  0.0117 -0.0077  0.2057
    3loPI   C5A   43   2.731   1.109   7.879  0.1146 -0.0061 -0.2011
    3loPI   C6A   44   2.655   1.224   7.435  0.0861 -0.2570  0.0769
    3loPI   C1B   45   3.358   0.360   9.284 -0.1489 -0.0767  0.2719
    3loPI   C2B   46   3.254   0.224   8.915 -0.1965 -0.2033 -0.2291
    3loPI   C3B   47   3.299   0.071   8.451 -0.2719  0.0144  0.0438
    3loPI   C4B   48   3.485   0.039   8.032 -0.3234 -0.0457  0.1463
    4loPI    C1   49  18.520  18.322   9.410 -0.1021 -0.0743  0.1429
    4loPI    C2   50  18.632  18.663   9.588  0.1015 -0.1710  0.2031
    4loPI    C3   51  18.386  18.410   9.777  0.0604 -0.1226  0.2147
    4loPI   PO4   52  18.429  18.507   9.143  0.0387 -0.1945 -0.4407
    4loPI   GL1   53  18.187  18.539   8.799 -0.0787  0.1135  0.4577
    4loPI   GL2   54  18.435  18.864   8.739  0.0851  0.1653  0.1285
    4loPI   C1A   55  17.870  18.585   8.508 -0.0700  0.0693  0.3925
    4loPI   C2A   56  17.828  18.831   8.133  0.0572  0.1002  0.1855
    4loPI   C3A   57  18.222  18.905   7.839 -0.0975  0.0284  0.6345
    4loPI   C4A   58  18.578  19.145   7.868 -0.0459  0.1465  0.2175
    4loPI   C5A   59  18.796  18.996   7.576 -0.0758 -0.2078 -0.0864
    4loPI   C6A   60  18.804  18.845   7.223  0.0781 -0.1388  0.0061
    4loPI   C1B   61  18.269  18.937   8.401  0.0072  0.0975  0.0438
    4loPI   C2B   62  18.134  19.233   8.183 -0.1428 -0.2103 -0.2115
    4loPI   C3B   63  18.223  19.490   7.951 -0.2444  0.3055 -0.0556
    4loPI   C4B   64  18.021  19.701   7.655  0.1020  0.0483  0.2038
    5loPI    C1   65   3.641  15.597   9.860  0.2183  0.1111 -0.1596
    5loPI    C2   66   4.040  15.590   9.868  0.2154 -0.0974 -0.1358
    5loPI    C3   67   3.832  15.405  10.154  0.1013 -0.0614 -0.1950
    5loPI   PO4   68   3.602  15.574   9.679 -0.2401 -0.1861  0.0457
    5loPI   GL1   69   3.739  15.542   9.351  0.1886 -0.3609  0.2357
    5loPI   GL2   70   4.020  15.664   9.370 -0.0941 -0.0397 -0.0424
    5loPI   C1A   71   3.790  15.331   8.931 -0.0351 -0.1094 -0.0831
    5loPI   C2A   72   3.693  15.489   8.542 -0.1194 -0.1357 -0.0462
    5loPI   C3A   73   3.736  15.622   8.093  0.0125  0.1427 -0.0917
    5loPI   C4A   74   3.564  15.952   7.884 -0.1080  0.0623 -0.0639
    5loPI   C5A   75   3.769  16.269   7.537  0.1595  0.0843 -0.0391
    5loPI   C6A   76   3.933  16.472   7.090  0.1649 -0.3255  0.0247
    5loPI   C1B   77   3.888  15.797   8.942 -0.2165  0.2827  0.2803
    5loPI   C2B   78   4.036  15.913   8.526  0.2564 -0.0481 -0.2105
    5loPI   C3B   79   4.005  16.138   8.152 -0.0777  0.3232 -0.3618
    5loPI   C4B   80   4.003  16.444   7.940  0.1769 -0.0297  0.1717
    6loPI    C1   81  17.153  10.644   9.323 -0.1224  0.1469  0.0294
    6loPI    C2   82  16.840  10.816   9.504 -0.0785  0.1021  0.1489
    6loPI    C3   83  17.024  10.505   9.675  0.0507  0.1474  0.0942
    6loPI   PO4   84  17.134  10.551   9.061 -0.0548 -0.2317  0.2190
    6loPI   GL1   85  17.387  10.659   8.816 -0.0119 -0.1243  0.1315
    6loPI   GL2   86  17.393  10.834   8.659  0.0886 -0.0608 -0.3064
    6loPI   C1A   87  17.674  10.314   8.648  0.0618  0.1709 -0.1010
    6loPI   C2A   88  17.557  10.057   8.232  0.2101 -0.1058 -0.0698
    6loPI   C3A   89  17.673  10.310   7.753 -0.0849 -0.0013 -0.0635
    6loPI   C4A   90  17.836  10.388   7.324  0.2341  0.4628  0.2068
    6loPI   C5A   91  17.726  10.664   6.966  0.1974 -0.1982  0.2038
    6loPI   C6A   92  17.751  10.956   6.600  0.3204 -0.1413  0.3530
    6loPI   C1B   93  17.266  11.098   8.316  0.2957 -0.4174  0.1291
    6loPI   C2B   94  17.481  11.144   7.936 -0.1796 -0.0808 -0.0127
    6loPI   C3B   95  17.576  10.837   7.601 -0.1895  0.0090 -0.0413
    6loPI   C4B   96  17.332  10.661   7.297 -0.2172  0.0901 -0.1337
    7loPI    C1   97   8.494  19.042   9.660 -0.3186 -0.1219  0.1008
    7loPI    C2   98   8.244  19.346   9.729  0.0677  0.2454 -0.0776
    7loPI    C3   99   8.628  19.373   9.840  0.1471 -0.1078 -0.2515
    7loPI   PO4  100   8.384  18.980   9.357 -0.1174  0.1310  0.0930
    7loPI   GL1  101   8.493  18.847   8.865 -0.0619  0.0881 -0.2208
    7loPI   GL2  102   8.552  19.216   8.874 -0.4856  0.0167 -0.1422
    7loPI   C1A  103   8.297  18.561   8.638  0.1253  0.1136  0.0450
    7loPI   C2A  104   8.124  18.152   8.502 -0.2371 -0.3546  0.0878
    7loPI   C3A  105   8.209  17.773   8.309 -0.0773  0.1306 -0.2616
    7loPI   C4A  106   8.171  17.676   7.808  0.0080 -0.0460 -0.0814
    7loPI   C5A  107   7.857  17.642   7.449 -0.1670 -0.0194  0.0712
    7loPI   C6A  108   7.446  17.568   7.270  0.0223  0.2865 -0.1202
    7loPI   C1B  109   8.555  19.116   8.423  0.1678  0.0318 -0.2901
    7loPI   C2B  110   8.545  18.747   8.220  0.1054  0.1603  0.2053
    7loPI   C3B  111   8.757  18.493   7.973 -0.0481  0.1711  0.2242
    7loPI   C4B  112   9.008  18.287   7.684  0.0701 -0.4281  0.2389
    8loPI    C1  113  18.865   5.103   9.351  0.0991 -0.0526  0.1545
    8loPI    C2  114  18.537   5.330   9.388  0.1253  0.0240 -0.0637
    8loPI    C3  115  18.582   5.003   9.616  0.0028  0.1366  0.1246
    8loPI   PO4  116  18.929   4.958   9.178  0.0065 -0.0022 -0.0177
    8loPI   GL1  117  18.845   4.780   8.805  0.2245 -0.1922 -0.0705
    8loPI   GL2  118  18.895   4.537   8.914 -0.1042  0.0083 -0.1611
    8loPI   C1A  119  18.628   4.988   8.376 -0.1467 -0.1035 -0.0694
    8loPI   C2A  120  18.542   5.240   7.994  0.0697 -0.0401  0.0240
    8loPI   C3A  121  18.721   5.286   7.603  0.1840  0.1480 -0.2811
    8loPI   C4A  122  18.568   5.173   7.210  0.0442 -0.1468 -0.0347
    8loPI   C5A  123  18.563   5.005   6.816  0.3636  0.1101  0.0217
    8loPI   C6A  124  18.233   4.920   6.579  0.4052 -0.0707  0.2490
    8loPI   C1B  125  19.022   4.492   8.483  0.2629  0.2222 -0.0954
    8loPI   C2B  126  18.932   4.767   8.059  0.0280  0.1642  0.3550
    8loPI   C3B  127  19.010   4.877   7.615 -0.0763  0.0041 -0.0329
    8loPI   C4B  128  19.040   5.082   7.295 -0.1832 -0.1974 -0.0875
    9loPI    C1  129  15.107   4.743   9.143 -0.2530  0.0504 -0.0620
    9loPI    C2  130  14.869   4.652   9.451 -0.2258 -0.2194 -0.1182
    9loPI    C3  131  15.231   4.484   9.422 -0.0122  0.2092 -0.0186
    9loPI   PO4  132  15.100   4.969   9.097 -0.3157 -0.1182 -0.0379
    9loPI   GL1  133  14.957   5.078   8.679 -0.4135 -0.2465 -0.2480
    9loPI   GL2  134  14.883   4.789   8.640  0.0864 -0.2811 -0.0442
    9loPI   C1A  135  15.049   5.326   8.344 -0.1704 -0.6448  0.3779
    9loPI   C2A  136  15.099   5.154   8.031  0.0724  0.0815 -0.2484
    9loPI   C3A  137  15.094   4.973   7.601  0.1344 -0.0147 -0.0104
    9loPI   C4A  138  15.375   4.870   7.319 -0.2742  0.1091  0.1973
    9loPI   C5A  139  15.393   4.644   6.992 -0.1395 -0.1172 -0.0972
    9loPI   C6A  140  15.617   4.404   6.952  0.0131 -0.1674  0.0394
    9loPI   C1B  141  14.716   4.858   8.223 -0.0580 -0.3320  0.2921
    9loPI   C2B  142  14.531   4.768   7.799  0.0319  0.0279  0.0597
    9loPI   C3B  143  14.418   4.707   7.358 -0.1465 -0.0768 -0.0348
    9loPI   C4B  144  14.370   4.932   7.030  0.2434 -0.0014 -0.5107
   10loPI    C1  145   4.702  15.688  10.333  0.1894  0.2042  0.0045
   10loPI    C2  146   4.658  16.067  10.455 -0.0293  0.0901  0.2923
   10loPI    C3  147   4.979  15.857  10.569 -0.0215  0.1174  0.3207
   10loPI   PO4  148   4.659  15.766  10.067  0.0848  0.0374  0.1492
   10loPI   GL1  149   4.499  15.508   9.612  0.1749 -0.2723 -0.0638
   10loPI   GL2  150   4.336  15.140   9.567 -0.0233 -0.3012 -0.0110
   10loPI   C1A  151   4.496  15.575   9.068 -0.1619  0.0278  0.2729
   10loPI   C2A  152   4.268  15.476   8.726 -0.1210  0.0772 -0.4772
   10loPI   C3A  153   4.258  15.528   8.306  0.0882 -0.1585  0.2047
   10loPI   C4A  154   4.172  15.702   7.922 -0.1038 -0.0875 -0.4305
   10loPI   C5A  155   4.076  15.926   7.676 -0.1344 -0.0411 -0.1641
   10loPI   C6A  156   4.260  16.243   7.444  0.0608  0.3137 -0.0993
   10loPI   C1B  157   4.191  15.197   9.145  0.0842  0.1175  0.0240
   10loPI   C2B  158   4.353  14.991   8.683  0.2652  0.1727  0.1656
   10loPI   C3B  159   4.341  14.989   8.252 -0.1508  0.1614  0.2351
   10loPI   C4B  160   4.464  15.245   7.786 -0.0159  0.0315 -0.2282
   11loPI    C1  161  12.190  16.982   9.619 -0.1559  0.0020 -0.0478
   11loPI    C2  162  11.949  17.245   9.801 -0.0043  0.0068  0.1492
   11loPI    C3  163  12.326  17.198   9.927 -0.0212 -0.2850  0.0981
   11loPI   PO4  164  12.127  17.023   9.410 -0.5137 -0.3135 -0.2911
   11loPI   GL1  165  12.278  17.102   9.086 -0.1674  0.1547  0.0462
   11loPI   GL2  166  12.273  16.784   8.898 -0.0107 -0.0215  0.1606
   11loPI   C1A  167  12.351  17.272   8.657 -0.1556 -0.2916 -0.2440
   11loPI   C2A  168  12.089  17.643   8.416  0.1927 -0.1234 -0.3188
   11loPI   C3A  169  11.943  17.933   8.040 -0.2902 -0.1117 -0.0827
   11loPI   C4A  170  11.661  17.871   7.682  0.1067 -0.0178 -0.0695
   11loPI   C5A  171  11.199  18.066   7.571 -0.2150  0.1407 -0.1959
   11loPI   C6A  172  10.809  18.069   7.701 -0.2864  0.1739 -0.1470
   11loPI   C1B  173  12.439  16.770   8.556 -0.0639  0.1760  0.3400
   11loPI   C2B  174  12.466  17.073   8.178  0.0687  0.0126 -0.0203
   11loPI   C3B  175  12.446  17.085   7.730 -0.0863  0.1967 -0.0564
   11loPI   C4B  176  12.068  17.108   7.452 -0.3510 -0.2836  0.0883
   12loPI    C1  177  11.927   7.669   9.622  0.1327 -0.1747  0.1772
   12loPI    C2  178  11.571   7.488   9.601  0.0195  0.0631 -0.0063
   12loPI    C3  179  11.650   7.738   9.903 -0.0591  0.1942 -0.0933
   12loPI   PO4  180  11.981   7.762   9.337 -0.3046  0.2182  0.3158
   12loPI   GL1  181  12.079   8.045   8.986  0.0289 -0.2052 -0.1999
   12loPI   GL2  182  12.268   7.816   8.861  0.3480 -0.1923  0.3174
   12loPI   C1A  183  11.663   8.216   8.768  0.1919 -0.0860 -0.1644
   12loPI   C2A  184  11.564   8.065   8.436 -0.0237 -0.1408 -0.4128
   12loPI   C3A  185  11.375   8.196   8.136  0.1045 -0.0129  0.0088
   12loPI   C4A  186  11.343   8.097   7.750  0.0314  0.2672 -0.0414
   12loPI   C5A  187  11.393   8.252   7.342 -0.3985  0.1918  0.1677
   12loPI   C6A  188  11.207   8.530   7.042  0.2361 -0.1140  0.0054
   12loPI   C1B  189  12.098   7.885   8.392 -0.0039 -0.0213 -0.0375
   12loPI   C2B  190  11.822   8.088   7.954 -0.0936  0.1567 -0.1410
   12loPI   C3B  191  11.880   8.269   7.505 -0.1381 -0.1322 -0.1650
   12loPI   C4B  192  11.861   8.262   6.979  0.2726  0.0456 -0.1072
   13loPI    C1  193  18.120   9.723   9.397  0.1086 -0.1401 -0.2004
   13loPI    C2  194  17.895  10.053   9.419 -0.2272 -0.3838  0.1498
   13loPI    C3  195  18.238  10.030   9.624 -0.1109 -0.1865 -0.0197
   13loPI   PO4  196  18.117   9.640   9.154 -0.0828 -0.1135  0.3382
   13loPI   GL1  197  18.220   9.306   8.912  0.0947  0.2389 -0.0466
   13loPI   GL2  198  18.350   9.541   8.661 -0.2857  0.3155 -0.0097
   13loPI   C1A  199  17.949   9.200   8.555  0.1914  0.1120  0.1009
   13loPI   C2A  200  17.933   9.181   8.102  0.0240 -0.0225 -0.0289
   13loPI   C3A  201  17.996   9.452   7.786 -0.1677 -0.4202 -0.1656
   13loPI   C4A  202  17.914   9.405   7.332 -0.3182  0.1017 -0.0414
   13loPI   C5A  203  18.228   9.484   6.975 -0.1259  0.2328 -0.4598
   13loPI   C6A  204  18.097   9.347   6.571 -0.2572 -0.1680  0.1213
   13loPI   C1B  205  18.074   9.654   8.299 -0.2488  0.0194  0.0227
   13loPI   C2B  206  18.021   9.910   8.006 -0.1311 -0.0521 -0.2520
   13loPI   C3B  207  17.965   9.935   7.583  0.2410 -0.3747  0.0596
   13loPI   C4B  208  17.687   9.865   7.238  0.0517 -0.1005 -0.3341
   14loPI    C1  209   6.270  18.456   9.779 -0.1041  0.0020  0.0490
   14loPI    C2  210   6.240  18.370  10.169 -0.1688  0.0870  0.0628
   14loPI    C3  211   6.090  18.713  10.027 -0.1875  0.0346 -0.0449
   14loPI   PO4  212   6.217  18.242   9.696  0.0359  0.3681  0.0373
   14loPI   GL1  213   6.493  18.172   9.237  0.2724 -0.0056 -0.0979
   14loPI   GL2  214   6.204  18.063   9.252  0.4025 -0.2141  0.3057
   14loPI   C1A  215   6.627  18.026   8.923 -0.0038  0.1874  0.0649
   14loPI   C2A  216   6.755  18.444   8.664  0.2324  0.1041  0.0588
   14loPI   C3A  217   6.801  18.611   8.204  0.0607  0.1669 -0.0298
   14loPI   C4A  218   6.868  18.682   7.760  0.0182  0.0568 -0.2868
   14loPI   C5A  219   6.919  18.783   7.316  0.0931 -0.0677 -0.1556
   14loPI   C6A  220   7.229  18.926   7.009  0.2198  0.1841 -0.1157
   14loPI   C1B  221   6.135  18.143   8.884  0.1910 -0.3465  0.2386
   14loPI   C2B  222   6.253  18.413   8.539  0.0307 -0.0448  0.1378
   14loPI   C3B  223   6.104  18.535   8.180  0.1467 -0.2364 -0.0932
   14loPI   C4B  224   6.059  18.440   7.674 -0.0584 -0.0991 -0.1249
   15loPI    C1  225  11.409  12.682  10.017  0.0304  0.1400  0.2017
   15loPI    C2  226  11.392  13.069   9.917  0.3688  0.1891  0.3207
   15loPI    C3  227  11.209  12.940  10.248 -0.2620  0.1302 -0.0330
   15loPI   PO4  228  11.319  12.589   9.740  0.0867 -0.0392 -0.0342
   15loPI   GL1  229  11.383  12.470   9.313 -0.1252 -0.2052  0.1307
   15loPI   GL2  230  11.755  12.558   9.267 -0.0781  0.0173 -0.1362
   15loPI   C1A  231  11.508  12.366   8.930  0.3282  0.3725  0.0680
   15loPI   C2A  232  11.695  12.563   8.569  0.0047 -0.2416 -0.0432
   15loPI   C3A  233  11.669  12.481   8.169 -0.0541 -0.0919  0.0021
   15loPI   C4A  234  11.408  12.408   7.814 -0.1363  0.0605  0.1370
   15loPI   C5A  235  11.122  12.135   7.720 -0.1826  0.1446 -0.0833
   15loPI   C6A  236  10.885  11.798   7.411 -0.1982  0.1788 -0.3058
   15loPI   C1B  237  11.836  12.913   9.004  0.1053 -0.2685 -0.0247
   15loPI   C2B  238  12.153  12.990   8.675 -0.0149  0.1188 -0.0213
   15loPI   C3B  239  12.323  13.229   8.381  0.0588 -0.0328 -0.0584
   15loPI   C4B  240  12.286  13.115   7.937 -0.3279 -0.0409  0.1612
   16loPI    C1  241  11.096  14.064   9.440 -0.2827 -0.2562 -0.1252
   16loPI    C2  242  10.894  14.250   9.730  0.2456  0.0267  0.0739
   16loPI    C3  243  11.040  13.883   9.792 -0.3241 -0.2457 -0.1264
   16loPI   PO4  244  11.066  14.362   9.297 -0.1158  0.1491  0.1027
   16loPI   GL1  245  11.280  14.555   8.889  0.1267  0.0797  0.1659
   16loPI   GL2  246  11.354  14.795   8.660  0.0270  0.1936 -0.2130
   16loPI   C1A  247  11.128  14.283   8.582 -0.1960 -0.1351  0.0664
   16loPI   C2A  248  11.088  14.125   8.255  0.3100 -0.0516  0.2853
   16loPI   C3A  249  11.389  13.974   7.956  0.1657  0.0067  0.1256
   16loPI   C4A  250  11.409  13.932   7.557 -0.4237 -0.1162  0.1562
   16loPI   C5A  251  11.577  13.786   7.177 -0.0136  0.0075 -0.1043
   16loPI   C6A  252  11.650  13.562   6.963 -0.1157  0.1238  0.2583
   16loPI   C1B  253  11.480  14.467   8.193 -0.2350  0.1870  0.1496
   16loPI   C2B  254  11.658  14.344   7.868 -0.1017  0.0118 -0.0182
   16loPI   C3B  255  11.860  14.193   7.376 -0.0077  0.0688  0.0554
   16loPI   C4B  256  12.027  14.031   7.146  0.1635 -0.0118  0.2824
   17loPI    C1  257  15.162  17.227   9.429  0.1651  0.0201  0.0141
   17loPI    C2  258  14.767  17.282   9.397  0.1652  0.0063 -0.0127
   17loPI    C3  259  14.920  17.125   9.731  0.1483  0.0141 -0.0012
   17loPI   PO4  260  15.181  17.096   9.217 -0.2289 -0.0846 -0.3948
   17loPI   GL1  261  14.935  17.066   8.931  0.1341 -0.3649 -0.1092
   17loPI   GL2  262  14.996  16.752   8.878  0.0534 -0.3262 -0.1834
   17loPI   C1A  263  14.843  17.359   8.553 -0.0711 -0.2222 -0.0982
   17loPI   C2A  264  14.606  17.478   8.170  0.0141  0.2043 -0.0048
   17loPI   C3A  265  14.599  17.863   7.956  0.0187  0.2207  0.2676
   17loPI   C4A  266  14.772  17.987   7.530  0.0638 -0.1737  0.1910
   17loPI   C5A  267  15.029  18.038   7.124  0.0164  0.2640  0.0347
   17loPI   C6A  268  15.277  18.208   6.837 -0.1327 -0.0426  0.1322
   17loPI   C1B  269  14.830  16.782   8.480  0.1080 -0.0851 -0.0160
   17loPI   C2B  270  14.855  16.949   8.180  0.0788 -0.3944  0.2128
   17loPI   C3B  271  14.748  17.127   7.811 -0.0243 -0.5623 -0.1285
   17loPI   C4B  272  14.668  17.457   7.661 -0.1445  0.0173 -0.0116
   18loPI    C1  273   7.724  15.924   9.183  0.0126 -0.0899 -0.0355
   18loPI    C2  274   7.501  16.225   9.324 -0.0039 -0.1706  0.1136
   18loPI    C3  275   7.459  16.105   8.945 -0.0213 -0.0085  0.0632
   18loPI   PO4  276   7.729  15.733   9.296 -0.1083 -0.1021 -0.4854
   18loPI   GL1  277   7.939  15.365   9.091 -0.1387  0.1189  0.1148
   18loPI   GL2  278   8.097  15.586   8.966 -0.3747  0.1847 -0.1644
   18loPI   C1A  279   7.923  15.033   8.872 -0.2883 -0.0589  0.0755
   18loPI   C2A  280   7.864  14.899   8.407  0.3234  0.4076 -0.0510
   18loPI   C3A  281   7.784  14.843   7.967  0.1534 -0.0128  0.0903
   18loPI   C4A  282   7.865  14.592   7.589 -0.0823  0.2241  0.1956
   18loPI   C5A  283   8.060  14.440   7.249 -0.0908  0.0841  0.0613
   18loPI   C6A  284   8.118  14.617   6.951 -0.1193  0.0624 -0.2016
   18loPI   C1B  285   8.013  15.433   8.553 -0.1063 -0.2015  0.2858
   18loPI   C2B  286   8.122  15.178   8.109  0.3643  0.0058  0.2695
   18loPI   C3B  287   8.486  15.225   7.721  0.1221 -0.0178  0.2381
   18loPI   C4B  288   8.769  15.246   7.341  0.0606  0.1129  0.0805
   19loPI    C1  289   8.473  18.017   9.766 -0.1787  0.0789 -0.0919
   19loPI    C2  290   8.815  18.151   9.607 -0.1456 -0.0128 -0.0988
   19loPI    C3  291   8.685  18.298   9.956  0.0037 -0.1192  0.0034
   19loPI   PO4  292   8.206  18.002   9.647 -0.2412  0.2871  0.1758
   19loPI   GL1  293   7.976  18.167   9.283  0.4975  0.1474 -0.2478
   19loPI   GL2  294   8.011  17.986   9.018  0.1583  0.1013 -0.1999
   19loPI   C1A  295   7.620  18.328   9.082 -0.3583 -0.1003 -0.2159
   19loPI   C2A  296   7.499  18.106   8.675 -0.0724 -0.2953  0.1454
   19loPI   C3A  297   7.610  18.050   8.237  0.0729 -0.0647 -0.0899
   19loPI   C4A  298   7.984  18.112   7.969  0.1595  0.0815 -0.2989
   19loPI   C5A  299   8.150  18.169   7.653  0.0964 -0.2049  0.1293
   19loPI   C6A  300   8.281  17.919   7.250 -0.1884 -0.0205  0.4580
   19loPI   C1B  301   7.907  17.681   8.758  0.2726  0.0310  0.0906
   19loPI   C2B  302   7.729  17.520   8.439  0.2996  0.0500 -0.1054
   19loPI   C3B  303   7.717  17.611   8.024  0.0105  0.2257  0.3539
   19loPI   C4B  304   7.455  17.892   7.747  0.0588  0.1517 -0.0597
   20loPI    C1  305  10.698   1.211   9.599 -0.0601 -0.1116 -0.0299
   20loPI    C2  306  10.686   1.558   9.797 -0.2051 -0.2143  0.1452
   20loPI    C3  307  10.890   1.249   9.948 -0.2147 -0.2561  0.0731
   20loPI   PO4  308  10.695   1.269   9.364  0.4107 -0.2526  0.0529
   20loPI   GL1  309  10.731   1.320   8.866  0.0534  0.2498  0.0222
   20loPI   GL2  310  10.800   1.652   8.899 -0.2482  0.1491  0.1503
   20loPI   C1A  311  10.547   1.165   8.520 -0.1393 -0.1419 -0.3691
   20loPI   C2A  312  10.406   1.122   8.154  0.1534 -0.2347 -0.0507
   20loPI   C3A  313  10.481   1.186   7.660  0.0421 -0.1662 -0.0702
   20loPI   C4A  314  10.577   1.580   7.507  0.0468  0.1861  0.1486
   20loPI   C5A  315  10.520   1.851   7.144  0.0489  0.2359 -0.0984
   20loPI   C6A  316  10.350   2.014   6.822  0.1641  0.2314  0.4615
   20loPI   C1B  317  11.001   1.526   8.492  0.1440 -0.3223 -0.0453
   20loPI   C2B  318  10.880   1.667   8.024  0.1872  0.2776  0.2841
   20loPI   C3B  319  10.978   1.751   7.726 -0.0998 -0.0922 -0.0441
   20loPI   C4B  320  10.749   2.155   7.488  0.1184  0.1258  0.0340
   21loPI    C1  321   5.275   4.185   9.722 -0.0091  0.2280  0.1782
   21loPI    C2  322   5.393   4.318  10.080  0.5295  0.2291  0.0096
   21loPI    C3  323   5.647   4.112   9.850  0.1501  0.1200 -0.3232
   21loPI   PO4  324   5.028   4.314   9.729  0.2279 -0.0157  0.0430
   21loPI   GL1  325   4.976   4.596   9.354 -0.1869  0.0764 -0.0408
   21loPI   GL2  326   5.043   5.020   9.282  0.1410  0.0579 -0.2222
   21loPI   C1A  327   4.793   4.642   8.889 -0.0477  0.1953  0.2657
   21loPI   C2A  328   4.712   4.539   8.431  0.0445  0.1917 -0.0310
   21loPI   C3A  329   4.729   4.591   8.092 -0.0854 -0.2943  0.0079
   21loPI   C4A  330   4.688   4.342   7.750  0.3863  0.0897 -0.0002
   21loPI   C5A  331   4.509   4.122   7.283 -0.0977  0.0382  0.0126
   21loPI   C6A  332   4.058   3.912   7.152  0.2962  0.1448 -0.0994
   21loPI   C1B  333   5.031   5.136   8.830 -0.0384  0.1603  0.0502
   21loPI   C2B  334   4.823   5.127   8.472 -0.0765 -0.0601 -0.0408
   21loPI   C3B  335   4.742   5.094   7.963 -0.1521  0.0112 -0.0701
   21loPI   C4B  336   4.817   4.844   7.674  0.0569  0.1300  0.0368
   22loPI    C1  337   7.530   6.092   9.964  0.2325  0.2304 -0.1910
   22loPI    C2  338   7.873   6.092  10.170  0.2460 -0.1117 -0.2073
   22loPI    C3  339   7.523   6.099  10.364  0.2598  0.0875 -0.1874
   22loPI   PO4  340   7.652   6.129   9.670  0.4082 -0.0636 -0.0257
   22loPI   GL1  341   7.855   6.288   9.368  0.2278  0.1026 -0.0182
   22loPI   GL2  342   8.066   6.547   9.359  0.0238 -0.0607 -0.1282
   22loPI   C1A  343   7.999   6.218   8.984 -0.0967  0.1878 -0.3232
   22loPI   C2A  344   8.077   6.170   8.590 -0.1373  0.2951 -0.0729
   22loPI   C3A  345   8.176   5.907   8.227 -0.0883 -0.2589  0.2248
   22loPI   C4A  346   8.027   5.578   7.949  0.3701  0.1877  0.2794
   22loPI   C5A  347   7.682   5.352   7.774 -0.0271 -0.1337  0.1430
   22loPI   C6A  348   7.332   5.331   7.518  0.1688  0.1163  0.0672
   22loPI   C1B  349   8.155   6.803   8.971 -0.3517 -0.1031 -0.4710
   22loPI   C2B  350   8.185   6.992   8.576  0.0486 -0.0559  0.1911
   22loPI   C3B  351   8.537   7.013   8.243  0.0573 -0.0337 -0.0924
   22loPI   C4B  352   8.638   7.399   7.924 -0.0902 -0.0872 -0.2795
   23loPI    C1  353  18.726  15.973   9.577 -0.0443  0.0007 -0.1288
   23loPI    C2  354  18.942  16.010   9.912  0.1571 -0.1842 -0.2351
   23loPI    C3  355  18.555  16.110   9.911  0.3185  0.4962 -0.1343
   23loPI   PO4  356  18.892  16.072   9.387 -0.1253 -0.3161  0.1660
   23loPI   GL1  357  18.965  16.251   8.929 -0.0408 -0.1074 -0.1218
   23loPI   GL2  358  18.734  16.447   8.792  0.0259  0.4063  0.0153
   23loPI   C1A  359  18.989  15.976   8.694  0.0627  0.1776  0.1915
   23loPI   C2A  360  18.978  15.760   8.250  0.1683 -0.2856 -0.1040
   23loPI   C3A  361  18.724  15.433   8.114  0.0515  0.0699  0.0485
   23loPI   C4A  362  18.739  15.159   7.761  0.1705  0.0288  0.1328
   23loPI   C5A  363  18.601  14.830   7.583 -0.1050  0.0531 -0.0138
   23loPI   C6A  364  18.525  14.520   7.792 -0.3716 -0.1962 -0.0290
   23loPI   C1B  365  18.690  16.652   8.435 -0.0230 -0.2846 -0.0997
   23loPI   C2B  366  18.827  16.674   8.036  0.2014  0.2230  0.2369
   23loPI   C3B  367  19.054  16.566   7.649 -0.2136  0.0239  0.0727
   23loPI   C4B  368  19.337  16.323   7.285  0.1282 -0.0683 -0.1799
   24loPI    C1  369  19.696  10.356   8.861  0.1301 -0.2492 -0.0189
   24loPI    C2  370  19.771  10.648   9.124  0.1175 -0.1867 -0.0842
   24loPI    C3  371  19.886  10.273   9.203  0.0526 -0.1810  0.0409
   24loPI   PO4  372  19.517  10.513   8.667  0.0553 -0.0747  0.0411
   24loPI   GL1  373  19.516  10.616   8.346 -0.1223  0.1156 -0.0297
   24loPI   GL2  374  19.302  10.756   8.178 -0.1953  0.1790  0.0557
   24loPI   C1A  375  19.827  10.771   8.055  0.1097  0.2148 -0.2470
   24loPI   C2A  376  20.156  10.783   7.767  0.0315  0.3259  0.0054
   24loPI   C3A  377  20.447  10.764   7.480  0.1659  0.1204 -0.0620
   24loPI   C4A  378  20.862  10.603   7.257  0.1043  0.0768 -0.5433
   24loPI   C5A  379  20.960  10.529   6.839 -0.2960  0.3394  0.1029
   24loPI   C6A  380  21.319  10.353   6.653 -0.1498  0.2221 -0.0279
   24loPI   C1B  381  19.453  10.776   7.772 -0.1183 -0.1909  0.1067
   24loPI   C2B  382  19.168  10.991   7.511  0.3307  0.1292  0.3890
   24loPI   C3B  383  19.084  11.183   7.189  0.1422  0.0360 -0.1727
   24loPI   C4B  384  19.268  11.354   6.714 -0.2343  0.0801 -0.1227
   25loPI    C1  385   3.847   1.977  10.088 -0.2022  0.2100 -0.2879
   25loPI    C2  386   3.546   1.713  10.077  0.1254 -0.1909  0.0338
   25loPI    C3  387   3.534   2.021  10.332 -0.1866  0.0257 -0.2335
   25loPI   PO4  388   3.904   1.986   9.793  0.0167  0.0903  0.0375
   25loPI   GL1  389   3.619   2.184   9.422 -0.1827  0.1473 -0.1386
   25loPI   GL2  390   3.876   2.410   9.364 -0.1092 -0.1626 -0.2466
   25loPI   C1A  391   3.461   2.255   8.992  0.3169  0.0887 -0.1293
   25loPI   C2A  392   3.505   2.228   8.564  0.2897  0.0921 -0.2928
   25loPI   C3A  393   3.570   1.976   8.200  0.0990  0.1968  0.2148
   25loPI   C4A  394   3.840   2.091   7.805  0.0816 -0.1400 -0.1663
   25loPI   C5A  395   4.041   1.801   7.427 -0.0142 -0.0690  0.0120
   25loPI   C6A  396   3.908   1.459   7.270  0.1708 -0.1296  0.2647
   25loPI   C1B  397   3.963   2.097   8.964  0.2493  0.1069  0.1238
   25loPI   C2B  398   3.968   1.869   8.480  0.1554 -0.1492  0.1208
   25loPI   C3B  399   4.012   1.763   8.097  0.1001 -0.0139  0.2403
   25loPI   C4B  400   4.007   1.486   7.805  0.0409 -0.2398  0.0964
   26loPI    C1  401  15.368   1.833   9.438 -0.1647 -0.2157 -0.2030
   26loPI    C2  402  15.540   2.106   9.202  0.2103 -0.2497  0.0240
   26loPI    C3  403  15.281   2.221   9.484  0.1277 -0.1614 -0.0869
   26loPI   PO4  404  15.399   1.582   9.303  0.0441  0.2193  0.1391
   26loPI   GL1  405  15.451   1.420   8.803  0.0495 -0.0471  0.0257
   26loPI   GL2  406  15.510   1.723   8.865  0.1216 -0.1977  0.1200
   26loPI   C1A  407  15.530   1.369   8.392  0.2444  0.0897  0.3475
   26loPI   C2A  408  15.812   1.286   8.090 -0.4848  0.0892 -0.0534
   26loPI   C3A  409  15.961   1.139   7.660 -0.1129 -0.0254 -0.0127
   26loPI   C4A  410  15.978   1.385   7.400 -0.4027 -0.0727  0.0240
   26loPI   C5A  411  16.036   1.521   6.997  0.1592  0.1858  0.1333
   26loPI   C6A  412  16.337   1.750   6.735  0.0909  0.3458 -0.2340
   26loPI   C1B  413  15.290   1.835   8.408  0.1269 -0.1182 -0.4141
   26loPI   C2B  414  15.538   2.062   8.046  0.1547  0.1694 -0.0711
   26loPI   C3B  415  15.602   2.006   7.610 -0.0991 -0.0053 -0.1157
   26loPI   C4B  416  15.585   2.105   7.128  0.0938 -0.1798  0.1333
   27loPI    C1  417  12.000  14.203   9.687 -0.0959  0.2933  0.2748
   27loPI    C2  418  12.353  14.047   9.791 -0.0817  0.0027 -0.1795
   27loPI    C3  419  12.013  13.879   9.921 -0.0595  0.1526  0.0803
   27loPI   PO4  420  12.054  14.253   9.404 -0.0348  0.0974  0.2955
   27loPI   GL1  421  12.127  14.435   8.960 -0.1095  0.2668 -0.2627
   27loPI   GL2  422  11.825  14.406   8.993  0.0931  0.2623  0.1675
   27loPI   C1A  423  12.276  14.592   8.548 -0.3106  0.0204 -0.1386
   27loPI   C2A  424  12.358  14.864   8.102 -0.0017  0.1346  0.0554
   27loPI   C3A  425  12.247  15.044   7.795 -0.2346 -0.1164  0.2512
   27loPI   C4A  426  12.278  15.217   7.378 -0.0008 -0.0627 -0.3334
   27loPI   C5A  427  12.038  15.400   7.111 -0.1513  0.0359 -0.1624
   27loPI   C6A  428  11.735  15.252   6.762  0.1785  0.0840  0.3280
   27loPI   C1B  429  11.833  14.332   8.534  0.2065  0.2042  0.2178
   27loPI   C2B  430  11.818  13.991   8.210 -0.0134  0.0594 -0.2596
   27loPI   C3B  431  11.994  13.941   7.790  0.1423 -0.0669 -0.0937
   27loPI   C4B  432  12.407  14.084   7.586  0.1511 -0.2620  0.0484
   28loPI    C1  433  17.746  17.325   9.384 -0.1018  0.0018 -0.2272
   28loPI    C2  434  17.463  17.565   9.532  0.0186 -0.0348  0.0702
   28loPI    C3  435  17.568  17.235   9.731  0.1744 -0.0941 -0.1076
   28loPI   PO4  436  17.617  17.375   9.146  0.0379 -0.0513  0.0879
   28loPI   GL1  437  17.461  17.230   8.723 -0.5324  0.0881 -0.3107
   28loPI   GL2  438  17.473  17.517   8.694  0.0315 -0.2529 -0.0278
   28loPI   C1A  439  17.580  16.999   8.546  0.1264 -0.3611 -0.2013
   28loPI   C2A  440  17.570  17.044   7.997  0.2617 -0.0078  0.0139
   28loPI   C3A  441  17.607  16.932   7.523  0.1060  0.2226 -0.1579
   28loPI   C4A  442  17.356  16.711   7.203  0.0259 -0.1823 -0.0988
   28loPI   C5A  443  17.152  16.669   6.780 -0.1305 -0.0450 -0.2137
   28loPI   C6A  444  16.710  16.706   6.634 -0.0561  0.1417  0.1762
   28loPI   C1B  445  17.594  17.447   8.269  0.2507 -0.1922  0.0986
   28loPI   C2B  446  17.381  17.502   7.990  0.1136  0.1006  0.0627
   28loPI   C3B  447  17.185  17.848   7.697  0.2589 -0.1227 -0.1193
   28loPI   C4B  448  17.000  17.898   7.324  0.1823 -0.2019 -0.2598
   29loPI    C1  449  14.220   8.508   9.328  0.0076  0.1597 -0.0630
   29loPI    C2  450  14.227   8.183   9.095  0.0077  0.2622 -0.2067
   29loPI    C3  451  14.403   8.175   9.454  0.0300  0.1118 -0.2204
   29loPI   PO4  452  14.010   8.650   9.081  0.0042 -0.0122  0.1152
   29loPI   GL1  453  13.624   8.588   8.895 -0.3366 -0.1555 -0.1084
   29loPI   GL2  454  13.405   8.769   8.987 -0.0922 -0.0849 -0.1306
   29loPI   C1A  455  13.409   8.461   8.440  0.3456  0.2562 -0.0750
   29loPI   C2A  456  13.265   8.587   8.100  0.1234  0.2122  0.0388
   29loPI   C3A  457  13.215   8.751   7.700  0.0369  0.1466 -0.2050
   29loPI   C4A  458  13.288   9.145   7.521  0.1755  0.0658  0.1020
   29loPI   C5A  459  13.504   9.453   7.246  0.1466  0.1254 -0.2057
   29loPI   C6A  460  13.718   9.861   7.087 -0.3516 -0.0315  0.2223
   29loPI   C1B  461  13.265   9.060   8.655 -0.2700  0.0199  0.0358
   29loPI   C2B  462  13.131   9.140   8.337 -0.0897  0.1923 -0.2903
   29loPI   C3B  463  12.837   8.996   8.124 -0.2214 -0.0925 -0.0870
   29loPI   C4B  464  12.828   9.079   7.694  0.0146  0.1874  0.2725
   30loPI    C1  465  15.805   7.075   9.257 -0.0511  0.0511  0.0444
   30loPI    C2  466  15.947   7.134   9.626 -0.3381 -0.1294  0.1881
   30loPI    C3  467  15.585   7.272   9.527 -0.2433 -0.0404 -0.0430
   30loPI   PO4  468  16.017   7.025   9.062  0.0054  0.1359 -0.0023
   30loPI   GL1  469  16.067   7.115   8.632 -0.0551 -0.1514 -0.0065
   30loPI   GL2  470  15.856   6.946   8.373  0.2257 -0.1062  0.2578
   30loPI   C1A  471  16.263   7.082   8.141  0.1683  0.1139 -0.0533
   30loPI   C2A  472  16.187   7.159   7.610  0.2459 -0.0576  0.2493
   30loPI   C3A  473  16.157   7.067   7.198  0.1588 -0.2342  0.3512
   30loPI   C4A  474  16.063   6.723   6.950  0.2693 -0.1730  0.1029
   30loPI   C5A  475  16.322   6.350   6.973  0.3206  0.3322 -0.1274
   30loPI   C6A  476  16.751   6.172   7.129  0.0389  0.0696 -0.0435
   30loPI   C1B  477  15.734   7.073   7.984 -0.0662 -0.3473  0.2987
   30loPI   C2B  478  15.595   7.126   7.636  0.1869  0.0665  0.1348
   30loPI   C3B  479  15.753   6.848   7.404 -0.0134 -0.2283 -0.0213
   30loPI   C4B  480  15.808   6.408   7.281  0.0835  0.1297  0.2110
   31loPI    C1  481  17.975  18.974   9.020 -0.1879  0.1638  0.2743
   31loPI    C2  482  18.079  18.889   9.397 -0.1439  0.1824  0.2664
   31loPI    C3  483  17.741  18.739   9.244  0.1792 -0.3982  0.0902
   31loPI   PO4  484  18.127  19.219   9.005 -0.0714  0.1412 -0.3017
   31loPI   GL1  485  18.411  19.376   8.827 -0.3544 -0.0231  0.3010
   31loPI   GL2  486  18.555  19.600   8.962 -0.0654  0.0826  0.1140
   31loPI   C1A  487  18.565  19.536   8.480  0.0677  0.2031  0.0717
   31loPI   C2A  488  18.603  19.937   8.376 -0.1734  0.0926  0.1627
   31loPI   C3A  489  18.547  20.332   8.117  0.2234  0.0026 -0.2336
   31loPI   C4A  490  18.326  20.605   7.757 -0.1223  0.2822  0.1371
   31loPI   C5A  491  18.319  20.988   7.428 -0.0202 -0.0550  0.1076
   31loPI   C6A  492  18.491  21.095   7.093  0.2023 -0.0746  0.6132
   31loPI   C1B  493  18.609  20.010   8.876  0.0261  0.0771  0.2828
   31loPI   C2B  494  18.651  20.410   8.581 -0.3508  0.0030 -0.1888
   31loPI   C3B  495  18.582  20.864   8.297 -0.1871  0.1898  0.1971
   31loPI   C4B  496  18.638  21.000   7.859  0.2551 -0.0722  0.1912
   32loPI    C1  497   6.796   6.380   9.712  0.1177  0.1634  0.0646
   32loPI    C2  498   6.809   6.102   9.999 -0.0012  0.0613 -0.0281
   32loPI    C3  499   6.622   6.450  10.065  0.0116  0.0564  0.0337
   32loPI   PO4  500   6.668   6.210   9.508 -0.2089 -0.2799  0.3469
   32loPI   GL1  501   6.860   6.248   9.179  0.0838  0.0736 -0.2037
   32loPI   GL2  502   6.826   6.472   8.977  0.0690  0.0036 -0.0610
   32loPI   C1A  503   6.934   6.056   8.750 -0.1166 -0.0203 -0.1316
   32loPI   C2A  504   7.141   6.129   8.378  0.0839  0.2244 -0.1949
   32loPI   C3A  505   7.213   6.177   7.921 -0.0398 -0.2054 -0.2240
   32loPI   C4A  506   7.389   6.412   7.639 -0.0579 -0.0504  0.0712
   32loPI   C5A  507   7.711   6.523   7.342  0.0792  0.1271 -0.1106
   32loPI   C6A  508   7.992   6.813   7.064 -0.0332  0.0838  0.0038
   32loPI   C1B  509   7.174   6.536   8.751  0.0152 -0.0745  0.0063
   32loPI   C2B  510   7.373   6.597   8.315 -0.1726  0.1244  0.0380
   32loPI   C3B  511   7.304   6.952   8.085  0.2409 -0.1268 -0.0522
   32loPI   C4B  512   7.146   7.369   7.959  0.1127 -0.0256 -0.0404
   33loPI    C1  513   4.231  14.868   9.969  0.0751  0.3790  0.0230
   33loPI    C2  514   3.858  14.932  10.099  0.0956  0.2920  0.1258
   33loPI    C3  515   4.108  14.703  10.313 -0.0297 -0.2795 -0.3138
   33loPI   PO4  516   4.164  14.693   9.699 -0.0639  0.2224 -0.1083
   33loPI   GL1  517   4.049  14.694   9.367 -0.0833  0.0118  0.0807
   33loPI   GL2  518   4.325  14.681   9.166  0.2517 -0.2324  0.0846
   33loPI   C1A  519   3.869  14.878   8.959 -0.1093  0.3492 -0.2133
   33loPI   C2A  520   3.753  14.914   8.619  0.0540  0.0074 -0.0094
   33loPI   C3A  521   3.824  15.112   8.269 -0.3000 -0.0603 -0.0989
   33loPI   C4A  522   3.901  15.134   7.907  0.0832 -0.4768  0.1749
   33loPI   C5A  523   4.044  14.897   7.475  0.1056  0.1791  0.1908
   33loPI   C6A  524   4.417  14.700   7.153  0.0144  0.2884  0.4443
   33loPI   C1B  525   4.707  14.753   8.867 -0.1603  0.0283  0.1473
   33loPI   C2B  526   4.790  14.804   8.455 -0.0259 -0.2271 -0.1382
   33loPI   C3B  527   4.864  14.664   8.064 -0.1063  0.0175 -0.1049
   33loPI   C4B  528   5.130  14.725   7.689 -0.0380 -0.4666 -0.1160
   34loPI    C1  529   5.232  18.119   9.818  0.1166  0.0009 -0.1572
   34loPI    C2  530   4.841  18.201   9.805  0.0993 -0.0698 -0.0847
   34loPI    C3  531   4.965  17.826   9.870  0.1790 -0.0507 -0.1266
   34loPI   PO4  532   5.397  18.265   9.682  0.0792  0.2834 -0.0249
   34loPI   GL1  533   5.353  18.538   9.296 -0.1125 -0.3370  0.2165
   34loPI   GL2  534   5.645  18.302   9.211 -0.2511 -0.1510 -0.1375
   34loPI   C1A  535   5.148  18.293   8.878 -0.2148 -0.1659 -0.1253
   34loPI   C2A  536   5.255  18.383   8.396  0.0359 -0.1255  0.0445
   34loPI   C3A  537   5.136  18.687   8.000  0.2573  0.0745  0.1110
   34loPI   C4A  538   5.097  19.005   7.532 -0.3444 -0.0375  0.0009
   34loPI   C5A  539   4.915  19.014   7.103 -0.0976 -0.1550  0.2336
   34loPI   C6A  540   4.903  19.278   6.668  0.0802  0.0045 -0.1540
   34loPI   C1B  541   5.667  18.346   8.716  0.3512  0.0748 -0.3175
   34loPI   C2B  542   5.782  18.141   8.375 -0.0885  0.0719 -0.1697
   34loPI   C3B  543   5.931  17.991   7.965  0.0427  0.0684  0.3427
   34loPI   C4B  544   5.900  17.871   7.576 -0.0006 -0.0405  0.3150
   35loPI    C1  545  15.689   3.565   9.320 -0.2315  0.0584  0.2219
   35loPI    C2  546  15.516   3.679   9.663 -0.0891 -0.1882  0.3792
   35loPI    C3  547  15.801   3.398   9.666  0.1624  0.0553  0.0980
   35loPI   PO4  548  15.545   3.580   9.177  0.1326 -0.0966 -0.1006
   35loPI   GL1  549  15.585   3.800   8.813 -0.0094 -0.2217  0.3080
   35loPI   GL2  550  15.354   3.484   8.759  0.0086  0.0989 -0.0513
   35loPI   C1A  551  15.885   3.984   8.449  0.1116  0.1985 -0.2007
   35loPI   C2A  552  15.991   3.961   7.995 -0.0211 -0.2463 -0.0674
   35loPI   C3A  553  16.063   4.044   7.563  0.2307  0.5288 -0.0041
   35loPI   C4A  554  15.782   3.969   7.315  0.0051  0.0349 -0.1864
   35loPI   C5A  555  15.589   3.892   6.979  0.0212  0.0198 -0.1159
   35loPI   C6A  556  15.281   3.950   6.589  0.0176 -0.1804 -0.0158
   35loPI   C1B  557  15.505   3.568   8.405  0.1062 -0.0582 -0.1052
   35loPI   C2B  558  15.364   3.647   7.953  0.3056  0.0905 -0.0139
   35loPI   C3B  559  15.359   3.730   7.442 -0.0195 -0.1867 -0.3475
   35loPI   C4B  560  15.200   3.523   7.048  0.2363 -0.1824  0.1256
   36loPI    C1  561   2.043  15.732   9.734 -0.2840 -0.2487 -0.0066
   36loPI    C2  562   1.660  15.845   9.718 -0.2041  0.0249 -0.0348
   36loPI    C3  563   1.838  15.791  10.072 -0.2319  0.0270 -0.0205
   36loPI   PO4  564   2.184  15.846   9.551 -0.0824 -0.4156 -0.1381
   36loPI   GL1  565   2.504  15.728   9.162  0.3652 -0.0510  0.2529
   36loPI   GL2  566   2.924  15.786   9.165  0.1010  0.1881 -0.1475
   36loPI   C1A  567   2.569  15.794   8.738  0.0364 -0.0497  0.2913
   36loPI   C2A  568   2.364  15.777   8.439 -0.1528 -0.0173  0.1771
   36loPI   C3A  569   2.195  15.836   8.069 -0.0479 -0.3071  0.1882
   36loPI   C4A  570   2.238  15.744   7.629  0.1380 -0.2960 -0.1256
   36loPI   C5A  571   2.422  15.880   7.376 -0.0769  0.1734  0.2027
   36loPI   C6A  572   2.748  15.961   7.184  0.2451  0.1205 -0.0252
   36loPI   C1B  573   3.089  15.638   8.710 -0.1461  0.3863 -0.2511
   36loPI   C2B  574   3.277  15.735   8.276 -0.1108  0.1035  0.2328
   36loPI   C3B  575   3.116  15.643   7.829  0.2894 -0.0082 -0.0973
   36loPI   C4B  576   2.835  15.583   7.573 -0.4268  0.0229  0.0541
   37loPI    C1  577   1.179  17.054   9.730  0.0203  0.2375 -0.0954
   37loPI    C2  578   1.122  17.223  10.088  0.0184 -0.0885  0.0618
   37loPI    C3  579   1.492  17.133   9.965  0.0195  0.0274 -0.0214
   37loPI   PO4  580   1.172  17.164   9.553 -0.3783  0.1476  0.0452
   37loPI   GL1  581   1.320  17.059   9.147  0.1309  0.5252 -0.3443
   37loPI   GL2  582   1.303  17.371   9.095 -0.0274 -0.0049  0.1291
   37loPI   C1A  583   1.491  16.857   8.745  0.2139 -0.4258  0.0258
   37loPI   C2A  584   1.317  16.582   8.457  0.1291  0.0747  0.1969
   37loPI   C3A  585   1.144  16.553   8.058 -0.0101 -0.1920 -0.2279
   37loPI   C4A  586   1.016  16.616   7.664 -0.1145 -0.0471  0.1680
   37loPI   C5A  587   0.641  16.534   7.524  0.0122  0.1631 -0.4620
   37loPI   C6A  588   0.314  16.420   7.675 -0.0607 -0.5247  0.3140
   37loPI   C1B  589   1.531  17.422   8.785  0.0286  0.0121 -0.2752
   37loPI   C2B  590   1.631  17.300   8.368  0.0601 -0.2106  0.0808
   37loPI   C3B  591   1.602  17.174   8.005  0.0902 -0.1872 -0.2049
   37loPI   C4B  592   1.736  17.175   7.525  0.0470  0.1591 -0.0647
   38loPI    C1  593  17.197  13.605   9.182 -0.0497  0.0995 -0.1304
   38loPI    C2  594  17.555  13.732   9.305  0.1034 -0.2606 -0.1921
   38loPI    C3  595  17.302  13.564   9.565  0.1371 -0.3629 -0.2252
   38loPI   PO4  596  17.145  13.762   8.971  0.0231  0.1318 -0.1038
   38loPI   GL1  597  17.025  14.014   8.660  0.5537 -0.0726 -0.1901
   38loPI   GL2  598  17.364  14.087   8.578  0.1359 -0.0588  0.2458
   38loPI   C1A  599  16.914  14.195   8.214 -0.1818 -0.1942 -0.4351
   38loPI   C2A  600  16.905  14.142   7.836 -0.0161 -0.0413  0.1502
   38loPI   C3A  601  16.784  14.348   7.494 -0.4447  0.1026  0.0659
   38loPI   C4A  602  16.396  14.483   7.299 -0.0009  0.1370  0.2478
   38loPI   C5A  603  16.192  14.426   6.953 -0.2215  0.1593 -0.3437
   38loPI   C6A  604  16.372  14.075   6.700 -0.1941  0.0112 -0.0227
   38loPI   C1B  605  17.519  14.171   8.157  0.1367 -0.1261  0.3659
   38loPI   C2B  606  17.900  13.954   7.949  0.2269  0.1432 -0.0869
   38loPI   C3B  607  18.142  13.934   7.536  0.2622 -0.0061  0.2346
   38loPI   C4B  608  18.071  13.899   7.076 -0.0929  0.2367  0.0454
   39loPI    C1  609  15.657  17.133   9.535  0.0345 -0.0180 -0.0454
   39loPI    C2  610  15.740  17.522   9.490  0.1514 -0.0221  0.1262
   39loPI    C3  611  15.824  17.338   9.836  0.0996 -0.2009  0.0448
   39loPI   PO4  612  15.716  16.982   9.298 -0.2271 -0.1292  0.0564
   39loPI   GL1  613  15.749  16.917   8.891  0.2711 -0.1932 -0.2097
   39loPI   GL2  614  15.447  16.999   8.817  0.1098  0.1569  0.1177
   39loPI   C1A  615  15.834  16.875   8.486 -0.0128 -0.2580 -0.0842
   39loPI   C2A  616  15.768  16.771   8.070 -0.2760  0.0356  0.1925
   39loPI   C3A  617  15.887  16.595   7.610 -0.2840  0.0153 -0.3103
   39loPI   C4A  618  15.859  16.467   7.109 -0.1919  0.1336 -0.2405
   39loPI   C5A  619  16.035  16.259   6.836 -0.1136  0.1257  0.0321
   39loPI   C6A  620  16.378  16.238   6.608  0.2594  0.1635  0.0167
   39loPI   C1B  621  15.297  17.075   8.474  0.2387  0.3086 -0.4014
   39loPI   C2B  622  15.310  17.130   8.055  0.2010  0.0733 -0.2057
   39loPI   C3B  623  15.511  16.954   7.743 -0.0301  0.0172  0.2320
   39loPI   C4B  624  15.344  16.634   7.396  0.0960 -0.0826 -0.1360
   40loPI    C1  625  17.928   3.328   9.539  0.4339  0.0821 -0.2642
   40loPI    C2  626  17.852   3.710   9.628  0.0539 -0.0328 -0.0763
   40loPI    C3  627  18.101   3.497   9.858  0.0689  0.0304 -0.0338
   40loPI   PO4  628  17.931   3.264   9.304 -0.0967  0.1068 -0.0053
   40loPI   GL1  629  17.915   3.333   8.788  0.1984  0.5450  0.3053
   40loPI   GL2  630  17.840   3.031   8.727 -0.2511 -0.4294 -0.0773
   40loPI   C1A  631  18.194   3.465   8.444  0.2472 -0.4421 -0.1877
   40loPI   C2A  632  18.453   3.314   8.177 -0.0138 -0.0784 -0.1728
   40loPI   C3A  633  18.631   3.212   7.754 -0.2300  0.0624  0.2199
   40loPI   C4A  634  18.946   3.179   7.453  0.1172  0.1102 -0.3082
   40loPI   C5A  635  19.160   3.497   7.317 -0.2675 -0.2619  0.0684
   40loPI   C6A  636  19.154   3.837   7.033 -0.1160 -0.2246 -0.1662
   40loPI   C1B  637  17.755   2.984   8.330 -0.2163  0.0586  0.0867
   40loPI   C2B  638  17.877   3.171   7.941  0.1972  0.2316  0.2820
   40loPI   C3B  639  18.150   3.292   7.683 -0.0468  0.2746  0.0010
   40loPI   C4B  640  18.361   3.569   7.471 -0.2861  0.0265 -0.1143
   41loPI    C1  641  11.287  18.857   9.520 -0.0476 -0.1120  0.5484
   41loPI    C2  642  11.683  18.856   9.574  0.0288  0.0151  0.0374
   41loPI    C3  643  11.491  19.201   9.513 -0.1269 -0.0674  0.0550
   41loPI   PO4  644  11.220  18.566   9.336  0.1405  0.0128  0.1289
   41loPI   GL1  645  11.149  18.397   8.979 -0.2461 -0.1434  0.0078
   41loPI   GL2  646  11.482  18.331   8.938 -0.1425 -0.0409 -0.1279
   41loPI   C1A  647  11.181  18.548   8.554 -0.0846 -0.0531  0.1445
   41loPI   C2A  648  11.421  18.698   8.152  0.0312 -0.1293  0.2959
   41loPI   C3A  649  11.655  18.870   7.893  0.1082 -0.3732  0.0521
   41loPI   C4A  650  11.674  18.933   7.352 -0.1963 -0.1713 -0.3510
   41loPI   C5A  651  11.496  19.202   7.081 -0.1056  0.2381 -0.1625
   41loPI   C6A  652  11.363  19.367   6.705 -0.0022 -0.4316 -0.0123
   41loPI   C1B  653  11.647  18.632   8.602  0.1993 -0.0189 -0.1980
   41loPI   C2B  654  11.907  18.834   8.322  0.3239  0.0140 -0.1534
   41loPI   C3B  655  12.160  19.037   7.952 -0.0435 -0.1374 -0.1054
   41loPI   C4B  656  12.531  19.195   7.992  0.0961 -0.0787  0.0351
   42loPI    C1  657  16.955   8.771   9.213  0.2312  0.0244 -0.2415
   42loPI    C2  658  17.152   8.693   9.552 -0.0269  0.1651 -0.0560
   42loPI    C3  659  16.867   8.443   9.425 -0.1522  0.2772  0.0017
   42loPI   PO4  660  17.095   8.766   8.978  0.1934 -0.1380  0.1104
   42loPI   GL1  661  16.922   8.674   8.641 -0.0611 -0.0847  0.1452
   42loPI   GL2  662  16.749   8.584   8.507 -0.3365  0.0881 -0.1563
   42loPI   C1A  663  16.928   8.919   8.230 -0.0897 -0.1853 -0.0281
   42loPI   C2A  664  16.736   8.933   7.916  0.2193 -0.1579 -0.2898
   42loPI   C3A  665  16.587   9.318   7.690  0.1128 -0.0958 -0.0435
   42loPI   C4A  666  16.688   9.830   7.510 -0.0531 -0.0901 -0.1974
   42loPI   C5A  667  16.735  10.031   7.062  0.0283  0.4387  0.0419
   42loPI   C6A  668  16.424  10.046   6.690 -0.0499  0.1673  0.0194
   42loPI   C1B  669  16.770   8.403   8.151 -0.0575 -0.2581 -0.1628
   42loPI   C2B  670  16.743   8.447   7.687  0.2438  0.0066  0.0867
   42loPI   C3B  671  16.558   8.722   7.334  0.2268 -0.0827 -0.1240
   42loPI   C4B  672  16.669   8.495   7.090 -0.1953  0.2025  0.3991
   43loPI    C1  673  17.465  16.614   9.286  0.1304 -0.0903 -0.0431
   43loPI    C2  674  17.758  16.845   9.140 -0.0959  0.2010 -0.0460
   43loPI    C3  675  17.716  16.801   9.536  0.1412 -0.0948 -0.0504
   43loPI   PO4  676  17.519  16.360   9.133  0.2765 -0.0304  0.1844
   43loPI   GL1  677  17.506  16.478   8.730  0.1068  0.0398  0.0748
   43loPI   GL2  678  17.786  16.541   8.787  0.0605 -0.0563 -0.0480
   43loPI   C1A  679  17.576  16.275   8.380  0.1970 -0.1688 -0.1031
   43loPI   C2A  680  17.669  16.174   8.005  0.1667  0.4915 -0.0275
   43loPI   C3A  681  17.692  15.922   7.532  0.5527 -0.0396  0.0923
   43loPI   C4A  682  17.585  15.733   7.241  0.1094 -0.0324 -0.0924
   43loPI   C5A  683  17.742  15.320   6.977  0.2787 -0.0345 -0.0388
   43loPI   C6A  684  17.913  14.942   7.041 -0.3815  0.3844  0.0147
   43loPI   C1B  685  18.060  16.323   8.346  0.0870 -0.0233  0.0887
   43loPI   C2B  686  18.339  16.398   8.048  0.1466 -0.0774  0.3196
   43loPI   C3B  687  18.468  16.502   7.660 -0.0359  0.0786 -0.0477
   43loPI   C4B  688  18.455  16.359   7.317  0.0880 -0.1052 -0.0162
   44loPI    C1  689   4.243  11.813  10.079 -0.2990 -0.0445 -0.0233
   44loPI    C2  690   4.535  11.655  10.302 -0.2219 -0.1081 -0.1678
   44loPI    C3  691   4.211  11.811  10.477  0.0036  0.1754  0.0060
   44loPI   PO4  692   4.384  11.912   9.884  0.0656  0.0025  0.0781
   44loPI   GL1  693   4.269  11.981   9.411 -0.2198 -0.3572 -0.1392
   44loPI   GL2  694   4.460  11.670   9.443 -0.1314 -0.2827  0.0322
   44loPI   C1A  695   4.513  12.103   8.931 -0.3312  0.0048  0.0328
   44loPI   C2A  696   4.395  11.827   8.545  0.2982  0.1594 -0.0835
   44loPI   C3A  697   4.380  11.584   8.178 -0.0404  0.1290  0.2508
   44loPI   C4A  698   4.465  11.450   7.693 -0.0021  0.2855  0.0659
   44loPI   C5A  699   4.537  11.745   7.361  0.4972 -0.1811 -0.2973
   44loPI   C6A  700   4.325  12.185   7.346  0.0990 -0.2280 -0.1178
   44loPI   C1B  701   4.559  11.610   9.079  0.0127 -0.0319  0.2552
   44loPI   C2B  702   4.718  11.432   8.690 -0.3366  0.2086  0.0580
   44loPI   C3B  703   4.782  11.312   8.169 -0.1456 -0.1272  0.0240
   44loPI   C4B  704   4.954  11.430   7.780  0.3196 -0.1791 -0.0204
   45loPI    C1  705  14.963  10.693   9.249  0.0889 -0.1222  0.0493
   45loPI    C2  706  15.045  10.887   9.589  0.1354 -0.1073  0.0296
   45loPI    C3  707  15.039  10.487   9.583 -0.0415 -0.1063  0.0894
   45loPI   PO4  708  15.206  10.713   9.093  0.1211 -0.1972  0.2458
   45loPI   GL1  709  15.291  10.451   8.762  0.3245 -0.0532  0.1741
   45loPI   GL2  710  15.179  10.107   8.663 -0.1326 -0.0379 -0.1149
   45loPI   C1A  711  15.495  10.703   8.343  0.1175  0.1055 -0.1324
   45loPI   C2A  712  15.478  10.618   7.960  0.2256 -0.3057 -0.3817
   45loPI   C3A  713  15.672  10.916   7.650  0.0602  0.1390  0.3995
   45loPI   C4A  714  15.879  10.955   7.178  0.0383 -0.5747  0.0439
   45loPI   C5A  715  16.199  10.943   6.865  0.0377 -0.1699  0.0340
   45loPI   C6A  716  16.220  11.032   6.457  0.0783 -0.0112 -0.0566
   45loPI   C1B  717  15.422  10.086   8.406 -0.1246 -0.1085  0.0835
   45loPI   C2B  718  15.473   9.988   7.982  0.1047  0.1113 -0.1702
   45loPI   C3B  719  15.793   9.966   7.609 -0.0672  0.2670  0.1244
   45loPI   C4B  720  15.780  10.027   7.232  0.3506  0.0533  0.2352
   46loPI    C1  721  15.479   9.665   9.145 -0.2362  0.1426  0.0272
   46loPI    C2  722  15.267   9.724   9.479 -0.1144  0.1218  0.1088
   46loPI    C3  723  15.624   9.900   9.435 -0.0909  0.0544  0.0270
   46loPI   PO4  724  15.346   9.678   8.961  0.4308 -0.0650  0.1928
   46loPI   GL1  725  15.221   9.580   8.643 -0.1341  0.1174  0.1039
   46loPI   GL2  726  14.918   9.520   8.701  0.0135  0.2047  0.0599
   46loPI   C1A  727  15.026   9.755   8.181  0.1862  0.0636  0.5865
   46loPI   C2A  728  15.047   9.784   7.690  0.0029 -0.2122 -0.0876
   46loPI   C3A  729  15.287  10.009   7.347 -0.1754 -0.2951 -0.1713
   46loPI   C4A  730  15.362  10.211   7.023 -0.2832  0.0529 -0.0834
   46loPI   C5A  731  15.531  10.248   6.613 -0.0559  0.1227  0.2397
   46loPI   C6A  732  15.905  10.597   6.430  0.4839 -0.0536 -0.1996
   46loPI   C1B  733  14.573   9.593   8.323 -0.0039  0.0897 -0.0123
   46loPI   C2B  734  14.586   9.619   7.936  0.2728 -0.0734 -0.0232
   46loPI   C3B  735  14.602   9.834   7.552  0.1988 -0.3269 -0.0206
   46loPI   C4B  736  14.791   9.983   7.215  0.0875 -0.2518  0.2954
   47loPI    C1  737   7.306   6.506   9.770  0.0641 -0.0720 -0.2244
   47loPI    C2  738   7.022   6.727   9.944 -0.0091 -0.0979 -0.3101
   47loPI    C3  739   7.154   6.394  10.122 -0.0636 -0.1092 -0.2907
   47loPI   PO4  740   7.420   6.628   9.689 -0.1116  0.1197 -0.1835
   47loPI   GL1  741   7.581   6.753   9.321  0.3510 -0.0637 -0.1605
   47loPI   GL2  742   7.718   7.083   9.219 -0.1693 -0.0383 -0.0212
   47loPI   C1A  743   7.725   6.590   8.910  0.2675 -0.0945 -0.1311
   47loPI   C2A  744   7.852   6.672   8.436  0.2691 -0.1237  0.0207
   47loPI   C3A  745   7.776   6.803   7.929 -0.0276  0.0808  0.2343
   47loPI   C4A  746   8.144   6.831   7.544  0.4316 -0.2114 -0.0449
   47loPI   C5A  747   8.519   7.045   7.257 -0.2487 -0.0462  0.0455
   47loPI   C6A  748   8.829   7.117   7.515  0.0396  0.2061  0.1229
   47loPI   C1B  749   7.951   7.277   8.914 -0.2658 -0.0842  0.1349
   47loPI   C2B  750   7.797   7.532   8.609  0.1748  0.1024 -0.2948
   47loPI   C3B  751   8.006   7.854   8.309  0.0034 -0.2913  0.1900
   47loPI   C4B  752   8.327   7.852   8.033 -0.0195  0.1982  0.1619
   48loPI    C1  753   5.382   0.289  10.009 -0.3831 -0.1612  0.1034
   48loPI    C2  754   5.620  -0.008  10.131 -0.1131 -0.0050 -0.0307
   48loPI    C3  755   5.285   0.077  10.334  0.0565 -0.0858  0.2907
   48loPI   PO4  756   5.346   0.206   9.781  0.0954 -0.0298  0.0267
   48loPI   GL1  757   5.296   0.437   9.434  0.0607  0.4020  0.0834
   48loPI   GL2  758   5.192   0.675   9.328 -0.0093  0.0135 -0.3139
   48loPI   C1A  759   5.440   0.135   9.103  0.2966  0.2265  0.1243
   48loPI   C2A  760   5.324  -0.159   8.808  0.0865 -0.1265 -0.0256
   48loPI   C3A  761   5.267  -0.551   8.699 -0.1523  0.3073  0.0815
   48loPI   C4A  762   4.878  -0.765   8.696  0.1368  0.1582 -0.1739
   48loPI   C5A  763   4.931  -1.259   8.695 -0.1698 -0.0143 -0.0164
   48loPI   C6A  764   4.825  -1.497   8.394  0.1064 -0.1012 -0.2502
   48loPI   C1B  765   5.328   0.579   8.829  0.1202 -0.1928 -0.1672
   48loPI   C2B  766   5.253   0.306   8.570 -0.0830  0.1542  0.0044
   48loPI   C3B  767   5.397  -0.067   8.300  0.0667 -0.1099 -0.1590
   48loPI   C4B  768   5.117  -0.301   8.081  0.1724 -0.0645  0.2301
   49loPI    C1  769   8.814   9.458   9.929  0.0640  0.2015  0.0992
   49loPI    C2  770   8.446   9.604   9.984  0.0615  0.2579 -0.0613
   49loPI    C3  771   8.639   9.428  10.287 -0.1802  0.0398 -0.0305
   49loPI   PO4  772   8.955   9.695   9.652 -0.0707  0.0578 -0.1310
   49loPI   GL1  773   8.857   9.773   9.232  0.2291  0.2680 -0.1683
   49loPI   GL2  774   8.591   9.811   9.113  0.0721 -0.2278  0.2412
   49loPI   C1A  775   8.887   9.429   8.988  0.0480  0.2797 -0.1584
   49loPI   C2A  776   9.110   9.323   8.654 -0.0284 -0.0982 -0.0210
   49loPI   C3A  777   9.244   9.091   8.306 -0.1205  0.0970 -0.0050
   49loPI   C4A  778   9.540   9.042   7.983  0.2492 -0.2600  0.1338
   49loPI   C5A  779   9.743   9.282   7.765 -0.1912  0.3148 -0.2923
   49loPI   C6A  780   9.656   9.776   7.743  0.0032  0.1487 -0.0130
   49loPI   C1B  781   8.334   9.654   8.716  0.0583 -0.3681  0.0092
   49loPI   C2B  782   8.000   9.582   8.330  0.3317  0.0925  0.0611
   49loPI   C3B  783   7.832   9.494   7.953  0.1622  0.0641 -0.0457
   49loPI   C4B  784   7.640   9.458   7.427  0.0446 -0.1338 -0.1136
   50loPI    C1  785   8.538  17.188   9.575 -0.3461 -0.0278 -0.1614
   50loPI    C2  786   8.238  17.417   9.707 -0.2080  0.0477  0.0260
   50loPI    C3  787   8.560  17.357   9.937 -0.0064  0.0995 -0.2376
   50loPI   PO4  788   8.578  17.242   9.392  0.0194  0.2276  0.0215
   50loPI   GL1  789   8.717  17.142   9.012  0.4329 -0.0897 -0.0079
   50loPI   GL2  790   8.690  16.829   8.872  0.0309 -0.1926  0.0303
   50loPI   C1A  791   8.672  17.234   8.571 -0.1422  0.1238  0.1419
   50loPI   C2A  792   8.575  17.041   8.097  0.0221 -0.1397 -0.0719
   50loPI   C3A  793   8.349  16.815   7.707  0.0824  0.0963 -0.1189
   50loPI   C4A  794   8.111  16.681   7.298  0.1258 -0.0052 -0.1659
   50loPI   C5A  795   7.802  16.893   6.966  0.1192 -0.0748 -0.1877
   50loPI   C6A  796   7.680  17.226   7.033 -0.0258 -0.1138  0.1808
   50loPI   C1B  797   8.699  16.486   8.570  0.2071 -0.1517 -0.1433
   50loPI   C2B  798   8.657  16.117   8.156 -0.0114 -0.1256 -0.0354
   50loPI   C3B  799   8.997  15.945   7.840  0.0386 -0.1016 -0.2049
   50loPI   C4B  800   8.961  15.594   7.627 -0.1066  0.0478 -0.1415
   51loPI    C1  801  19.661  18.561   9.774  0.0064  0.0324  0.2769
   51loPI    C2  802  19.773  18.189   9.870  0.0021 -0.0833 -0.1486
   51loPI    C3  803  19.387  18.290   9.881 -0.0268 -0.1738 -0.2963
   51loPI   PO4  804  19.940  18.580   9.527 -0.0603 -0.0714  0.1373
   51loPI   GL1  805  20.082  18.516   9.107  0.2894  0.0774  0.0587
   51loPI   GL2  806  19.843  18.497   9.018 -0.1799  0.0834  0.0185
   51loPI   C1A  807  20.321  18.689   8.816  0.0315  0.2901 -0.1908
   51loPI   C2A  808  20.392  18.755   8.365 -0.0994 -0.0824  0.0176
   51loPI   C3A  809  20.438  18.855   7.977  0.2984  0.0212 -0.0200
   51loPI   C4A  810  20.240  18.922   7.635 -0.0249 -0.3085 -0.1309
   51loPI   C5A  811  19.804  18.830   7.383 -0.1607 -0.1618 -0.1113
   51loPI   C6A  812  19.782  18.416   7.108  0.1677  0.2375 -0.0707
   51loPI   C1B  813  19.864  18.492   8.572  0.0759  0.0466  0.0818
   51loPI   C2B  814  19.766  18.155   8.195  0.1512  0.0294  0.0383
   51loPI   C3B  815  19.917  17.989   7.834 -0.4131 -0.3031  0.2698
   51loPI   C4B  816  19.969  18.051   7.423 -0.2068 -0.0485  0.0547
   52loPI    C1  817   5.808  17.440   9.451 -0.2083  0.1419  0.0452
   52loPI    C2  818   6.148  17.260   9.560 -0.0107  0.3331 -0.2399
   52loPI    C3  819   5.907  17.418   9.838 -0.0861 -0.1819 -0.0019
   52loPI   PO4  820   5.886  17.578   9.291 -0.0514  0.0979 -0.0156
   52loPI   GL1  821   5.776  17.820   8.991  0.0204  0.1601  0.1496
   52loPI   GL2  822   5.408  17.883   9.025  0.1431  0.1342  0.2515
   52loPI   C1A  823   5.800  17.639   8.572 -0.2198  0.2705  0.0985
   52loPI   C2A  824   5.783  17.344   8.192 -0.1893  0.0037  0.4223
   52loPI   C3A  825   5.430  17.198   8.032 -0.2794 -0.1486 -0.2327
   52loPI   C4A  826   5.145  17.166   7.686  0.1092  0.0726  0.2623
   52loPI   C5A  827   5.013  16.952   7.320  0.1905 -0.0636 -0.4243
   52loPI   C6A  828   4.661  16.747   7.298 -0.0857 -0.1774 -0.1247
   52loPI   C1B  829   5.376  17.930   8.616  0.1294  0.1548  0.0819
   52loPI   C2B  830   5.481  17.793   8.174 -0.0953  0.0754  0.0223
   52loPI   C3B  831   5.626  17.561   7.782  0.1462 -0.4439 -0.3390
   52loPI   C4B  832   5.769  17.529   7.260 -0.1741  0.0661 -0.0130
   53loPI    C1  833  16.276   0.314   9.679  0.0541  0.0412 -0.0732
   53loPI    C2  834  16.672   0.334   9.628  0.0810  0.0496  0.1293
   53loPI    C3  835  16.522   0.173   9.962 -0.0941 -0.4018 -0.1576
   53loPI   PO4  836  16.203   0.179   9.512  0.1058  0.4048  0.2952
   53loPI   GL1  837  16.098   0.206   9.104 -0.0467  0.1018 -0.0502
   53loPI   GL2  838  16.001  -0.006   8.841 -0.0616  0.0631  0.3273
   53loPI   C1A  839  16.474   0.190   8.717 -0.3482 -0.0444 -0.1951
   53loPI   C2A  840  16.815   0.203   8.275  0.2070 -0.0793 -0.2019
   53loPI   C3A  841  17.234   0.195   8.005  0.2469 -0.2984 -0.0509
   53loPI   C4A  842  17.308   0.401   7.534 -0.0142  0.2497  0.0871
   53loPI   C5A  843  17.447   0.258   7.125 -0.1056  0.0169 -0.0513
   53loPI   C6A  844  17.151   0.065   6.761 -0.0626 -0.0827  0.0782
   53loPI   C1B  845  15.991  -0.023   8.448 -0.0844 -0.0980 -0.2178
   53loPI   C2B  846  16.041   0.243   8.078 -0.1527 -0.0574 -0.0057
   53loPI   C3B  847  16.381   0.207   7.658  0.0238  0.2194 -0.3645
   53loPI   C4B  848  16.530   0.184   7.297  0.0902  0.0661  0.1861
   54loPI    C1  849   1.858  11.357   9.438 -0.1335 -0.0503  0.0946
   54loPI    C2  850   2.043  11.339   9.792 -0.1329  0.0231  0.0982
   54loPI    C3  851   2.134  11.075   9.505 -0.0014  0.0765  0.0900
   54loPI   PO4  852   1.810  11.555   9.336  0.0131 -0.2293 -0.3399
   54loPI   GL1  853   1.599  11.634   8.987 -0.0572 -0.0519 -0.1360
   54loPI   GL2  854   1.657  11.969   9.086  0.4154  0.2814  0.2014
   54loPI   C1A  855   1.618  11.322   8.697 -0.0086  0.2547 -0.2190
   54loPI   C2A  856   1.476  11.083   8.377  0.0713 -0.0650  0.1028
   54loPI   C3A  857   1.637  10.969   8.006  0.0660 -0.0409 -0.0288
   54loPI   C4A  858   1.828  10.919   7.568  0.3504  0.1018  0.0004
   54loPI   C5A  859   1.849  11.027   7.177 -0.0135 -0.0724 -0.2166
   54loPI   C6A  860   2.205  11.106   6.872 -0.0813  0.0086 -0.0531
   54loPI   C1B  861   1.575  12.113   8.685  0.0668  0.1733  0.3163
   54loPI   C2B  862   1.647  12.046   8.260 -0.2872 -0.3407 -0.0164
   54loPI   C3B  863   1.773  12.067   7.839  0.1105 -0.1278 -0.0847
   54loPI   C4B  864   1.891  12.474   7.522 -0.2452  0.0583 -0.0371
   55loPI    C1  865  15.996  19.245   9.219 -0.1028  0.0500 -0.0911
   55loPI    C2  866  16.203  19.278   9.559  0.0681  0.2521 -0.2125
   55loPI    C3  867  15.842  19.447   9.528 -0.0723 -0.0082 -0.0376
   55loPI   PO4  868  16.208  19.249   9.032  0.1016 -0.0208 -0.2881
   55loPI   GL1  869  16.146  19.111   8.645  0.0262  0.3660  0.2302
   55loPI   GL2  870  15.930  19.406   8.669  0.0765 -0.3143 -0.3348
   55loPI   C1A  871  16.216  19.117   8.216 -0.3220  0.0821  0.0044
   55loPI   C2A  872  16.213  18.935   7.888  0.2756 -0.2449  0.2167
   55loPI   C3A  873  16.122  18.734   7.407 -0.1142 -0.1366 -0.1860
   55loPI   C4A  874  16.047  18.295   7.315 -0.0635  0.1447  0.0098
   55loPI   C5A  875  16.037  18.058   6.938  0.0444 -0.4364  0.1336
   55loPI   C6A  876  16.271  17.628   6.828  0.2902  0.0004  0.2019
   55loPI   C1B  877  15.851  19.519   8.233 -0.0134 -0.0442 -0.3495
   55loPI   C2B  878  15.799  19.477   7.799 -0.0233 -0.2450  0.3456
   55loPI   C3B  879  15.860  19.299   7.426  0.0876  0.0469 -0.1397
   55loPI   C4B  880  16.297  19.116   7.183 -0.1105 -0.0663  0.1020
   56loPI    C1  881   9.202  11.058   9.850 -0.0496 -0.0829  0.0257
   56loPI    C2  882   9.518  11.285   9.942 -0.0598 -0.0890  0.0767
   56loPI    C3  883   9.196  11.287  10.178 -0.1299 -0.0207 -0.0185
   56loPI   PO4  884   9.188  11.194   9.517 -0.2396  0.3212 -0.2739
   56loPI   GL1  885   9.269  11.040   9.132 -0.1963  0.0291  0.2932
   56loPI   GL2  886   9.298  10.620   9.076  0.0914 -0.4446  0.3435
   56loPI   C1A  887   9.591  11.124   8.800  0.3321  0.2518 -0.3713
   56loPI   C2A  888   9.640  10.940   8.446 -0.1258 -0.2667 -0.0870
   56loPI   C3A  889   9.850  10.931   8.052 -0.0322  0.0429 -0.3121
   56loPI   C4A  890   9.812  10.775   7.688 -0.3851 -0.2102  0.0146
   56loPI   C5A  891   9.671  10.961   7.402 -0.0907  0.2154 -0.1017
   56loPI   C6A  892   9.554  11.029   6.978  0.0762 -0.0029 -0.2731
   56loPI   C1B  893   9.232  10.561   8.687 -0.0133  0.1756 -0.0976
   56loPI   C2B  894   9.339  10.584   8.226  0.1262  0.0634 -0.0125
   56loPI   C3B  895   9.337  10.717   7.748 -0.0880 -0.1371 -0.0361
   56loPI   C4B  896   9.260  11.165   7.570  0.2786 -0.1730 -0.2284
   57loPI    C1  897   5.549  15.839   9.939  0.1346  0.0293 -0.0770
   57loPI    C2  898   5.689  15.529  10.149 -0.0135  0.0866  0.1094
   57loPI    C3  899   5.899  15.868  10.130  0.0173  0.0691  0.1355
   57loPI   PO4  900   5.470  15.769   9.715  0.0874  0.2290  0.1030
   57loPI   GL1  901   5.445  15.918   9.347  0.0910 -0.2265 -0.1290
   57loPI   GL2  902   5.201  15.757   9.206  0.4127 -0.0318 -0.2624
   57loPI   C1A  903   5.557  16.081   8.919  0.0877 -0.1699 -0.1202
   57loPI   C2A  904   5.531  16.291   8.523 -0.0582  0.1215 -0.1425
   57loPI   C3A  905   5.417  16.559   8.162  0.2917 -0.0436  0.0517
   57loPI   C4A  906   5.530  16.796   7.790  0.0795  0.1658  0.2432
   57loPI   C5A  907   5.529  17.017   7.373 -0.4193 -0.0648 -0.2109
   57loPI   C6A  908   5.645  17.129   6.945 -0.4276 -0.3918  0.1062
   57loPI   C1B  909   4.948  15.699   8.900 -0.2975  0.1875  0.2615
   57loPI   C2B  910   4.786  15.659   8.383  0.1320  0.0378 -0.1970
   57loPI   C3B  911   4.696  15.643   7.982  0.0109 -0.1989 -0.1170
   57loPI   C4B  912   4.624  15.793   7.592 -0.1604  0.0999 -0.0847
   58loPI    C1  913   7.289   7.130   9.671 -0.0133  0.1201  0.0488
   58loPI    C2  914   7.633   7.294   9.790 -0.0322  0.2698 -0.0985
   58loPI    C3  915   7.403   7.099  10.053  0.3182 -0.1127 -0.0653
   58loPI   PO4  916   7.265   7.191   9.404 -0.0891 -0.4197  0.2138
   58loPI   GL1  917   7.249   7.061   8.914  0.0134 -0.4721 -0.0233
   58loPI   GL2  918   7.271   7.406   8.937  0.0779  0.2156  0.1478
   58loPI   C1A  919   7.598   7.060   8.669 -0.3426  0.2153  0.1368
   58loPI   C2A  920   7.706   7.177   8.298  0.0378 -0.1673  0.2579
   58loPI   C3A  921   7.615   7.262   7.779 -0.0600  0.2585 -0.1738
   58loPI   C4A  922   7.334   7.525   7.510 -0.4063  0.4002 -0.2569
   58loPI   C5A  923   7.040   7.797   7.298  0.0018 -0.0399  0.1039
   58loPI   C6A  924   6.944   8.178   7.223  0.1682  0.0711  0.0755
   58loPI   C1B  925   7.206   7.382   8.506 -0.0617 -0.3016 -0.1473
   58loPI   C2B  926   7.514   7.610   8.145 -0.2702  0.2520  0.0893
   58loPI   C3B  927   7.841   7.767   7.862 -0.1159  0.1134  0.0448
   58loPI   C4B  928   7.984   8.061   7.609  0.4039 -0.2362 -0.0645
   59loPI    C1  929  10.687   5.079   9.713  0.1899  0.0145 -0.0122
   59loPI    C2  930  10.752   4.777   9.966  0.0817  0.0357  0.0417
   59loPI    C3  931  10.378   4.875   9.863  0.1299 -0.0651 -0.2392
   59loPI   PO4  932  10.878   4.977   9.489 -0.1571  0.4573 -0.4675
   59loPI   GL1  933  10.993   5.324   9.117 -0.0361  0.1300 -0.0312
   59loPI   GL2  934  11.277   5.281   9.033 -0.1807  0.1658  0.0940
   59loPI   C1A  935  10.877   5.213   8.706  0.0209 -0.0902 -0.1866
   59loPI   C2A  936  10.823   4.869   8.447 -0.1314 -0.0577  0.4298
   59loPI   C3A  937  10.943   4.672   8.170  0.1326  0.1933  0.0719
   59loPI   C4A  938  10.771   4.302   7.948  0.0062  0.3327  0.1469
   59loPI   C5A  939  10.615   4.217   7.512 -0.2102  0.1086 -0.1539
   59loPI   C6A  940  10.338   3.911   7.270  0.1197 -0.1046 -0.2129
   59loPI   C1B  941  11.453   5.162   8.647  0.1759 -0.0887  0.1414
   59loPI   C2B  942  11.263   5.161   8.326 -0.0609  0.2120 -0.0620
   59loPI   C3B  943  11.244   5.246   7.856 -0.1945  0.0709  0.0770
   59loPI   C4B  944  11.318   5.318   7.503 -0.1284  0.1039  0.0364
   60loPI    C1  945  12.961   2.670   9.039 -0.1934 -0.1197  0.1413
   60loPI    C2  946  13.241   2.797   9.294 -0.1370  0.1389 -0.0457
   60loPI    C3  947  12.926   2.592   9.429  0.0786 -0.0490  0.1818
   60loPI   PO4  948  12.944   2.897   8.832 -0.2055  0.1203 -0.0943
   60loPI   GL1  949  12.927   3.321   8.718  0.2297  0.0173 -0.0874
   60loPI   GL2  950  12.707   3.611   8.649 -0.1328  0.0635 -0.1021
   60loPI   C1A  951  13.255   3.438   8.358 -0.3266  0.0870  0.0382
   60loPI   C2A  952  13.302   3.682   7.925 -0.1893 -0.0380  0.0344
   60loPI   C3A  953  13.758   3.580   7.881  0.2247 -0.0263 -0.1091
   60loPI   C4A  954  14.197   3.882   7.650 -0.0012 -0.1062  0.0215
   60loPI   C5A  955  14.377   3.990   7.304 -0.1857 -0.3770  0.0571
   60loPI   C6A  956  14.631   3.740   7.007  0.1960  0.1355 -0.0591
   60loPI   C1B  957  12.752   3.631   8.198  0.1728 -0.0383 -0.0588
   60loPI   C2B  958  12.829   3.830   7.764 -0.0961  0.3112  0.0633
   60loPI   C3B  959  12.919   4.034   7.475 -0.0336  0.2479  0.1209
   60loPI   C4B  960  12.738   4.270   7.223 -0.2140 -0.1726  0.0067
   61loPI    C1  961  18.839   8.216   9.575  0.2498 -0.0302  0.0639
   61loPI    C2  962  18.504   8.056   9.724  0.1339  0.0110 -0.1488
   61loPI    C3  963  18.846   8.033   9.931 -0.0030 -0.0168  0.0773
   61loPI   PO4  964  18.769   8.120   9.332  0.1366 -0.1228 -0.0336
   61loPI   GL1  965  18.907   7.998   8.956 -0.2333 -0.2061  0.1257
   61loPI   GL2  966  19.277   7.937   8.765  0.0358 -0.1199 -0.1214
   61loPI   C1A  967  18.769   7.729   8.621 -0.2391  0.0239 -0.3970
   61loPI   C2A  968  18.884   7.780   8.218 -0.1087  0.3887  0.2623
   61loPI   C3A  969  18.820   7.862   7.820 -0.1462 -0.2121 -0.0840
   61loPI   C4A  970  19.057   7.757   7.476  0.4000 -0.0430 -0.2654
   61loPI   C5A  971  19.179   7.568   7.137  0.0615  0.0327 -0.1812
   61loPI   C6A  972  19.438   7.578   6.844 -0.1172  0.3218 -0.1322
   61loPI   C1B  973  19.009   8.197   8.506  0.0715  0.0161 -0.2308
   61loPI   C2B  974  19.017   8.237   8.027  0.0058  0.2544  0.1260
   61loPI   C3B  975  19.122   8.269   7.663 -0.2068 -0.3020  0.3109
   61loPI   C4B  976  19.059   8.280   7.251 -0.1779 -0.0266 -0.0724
   62loPI    C1  977  16.973  10.109   9.327 -0.0652 -0.0756  0.0128
   62loPI    C2  978  17.083   9.726   9.364 -0.0369 -0.0580  0.1126
   62loPI    C3  979  16.804   9.879   9.608  0.1111  0.0439  0.2200
   62loPI   PO4  980  16.933  10.088   9.013  0.0470  0.0746 -0.1187
   62loPI   GL1  981  17.140  10.174   8.733 -0.3523  0.3933  0.4062
   62loPI   GL2  982  17.013  10.403   8.644 -0.0031 -0.3169 -0.0354
   62loPI   C1A  983  17.068   9.848   8.321 -0.2823 -0.1750 -0.3566
   62loPI   C2A  984  17.123   9.882   7.993 -0.0235 -0.0840  0.2821
   62loPI   C3A  985  17.263   9.896   7.591 -0.2916 -0.1936  0.1814
   62loPI   C4A  986  17.250  10.197   7.223  0.2258  0.1783 -0.3847
   62loPI   C5A  987  17.460  10.180   6.898 -0.0235  0.0485  0.0758
   62loPI   C6A  988  17.402   9.911   6.493 -0.0981 -0.1805 -0.0924
   62loPI   C1B  989  16.963  10.661   8.262 -0.1246  0.1533  0.0648
   62loPI   C2B  990  17.053  10.882   7.854  0.0190 -0.0544 -0.4775
   62loPI   C3B  991  17.229  11.135   7.474 -0.2804  0.0354 -0.1692
   62loPI   C4B  992  17.509  11.176   7.083  0.1436 -0.1223 -0.1626
   63loPI    C1  993   6.871   9.255   9.960  0.1434 -0.3112 -0.0861
   63loPI    C2  994   6.906   9.417  10.324  0.0588 -0.2325 -0.1126
   63loPI    C3  995   7.188   9.168  10.188  0.2015 -0.0898 -0.0806
   63loPI   PO4  996   6.778   9.451   9.782 -0.0386  0.1395 -0.1970
   63loPI   GL1  997   6.990   9.828   9.453 -0.4822 -0.0719  0.2658
   63loPI   GL2  998   7.100   9.429   9.404  0.4593  0.0468  0.1108
   63loPI   C1A  999   7.232   9.884   9.035  0.0294 -0.1823 -0.1471
   63loPI   C2A 1000   7.180   9.709   8.523 -0.0565  0.0924  0.2905
   63loPI   C3A 1001   7.138   9.607   8.129 -0.4121  0.1438 -0.0094
   63loPI   C4A 1002   7.272   9.745   7.718  0.1957 -0.0092 -0.1477
   63loPI   C5A 1003   7.304   9.752   7.189  0.2255 -0.4730  0.0737
   63loPI   C6A 1004   7.574   9.530   6.950 -0.1053  0.4302  0.0759
   63loPI   C1B 1005   6.934   9.370   8.997  0.0108 -0.1758  0.3475
   63loPI   C2B 1006   6.664   9.595   8.548 -0.1737 -0.4447  0.3327
   63loPI   C3B 1007   6.625   9.673   8.159 -0.0849  0.3539 -0.1288
   63loPI   C4B 1008   6.432   9.639   7.740  0.0633 -0.2034  0.0752
   64loPI    C1 1009   7.496  15.264   9.594 -0.0819  0.1151 -0.0376
   64loPI    C2 1010   7.430  15.652   9.668 -0.1149  0.0605  0.2258
   64loPI    C3 1011   7.210  15.372   9.852  0.0194 -0.0879  0.1632
   64loPI   PO4 1012   7.572  15.255   9.396  0.0046 -0.0916  0.0974
   64loPI   GL1 1013   7.460  15.245   9.037  0.1301 -0.1575  0.0436
   64loPI   GL2 1014   7.467  15.599   8.855  0.0738  0.0462  0.0101
   64loPI   C1A 1015   7.427  15.064   8.639 -0.1166 -0.1503  0.0361
   64loPI   C2A 1016   7.248  15.048   8.260  0.1515 -0.0260 -0.2113
   64loPI   C3A 1017   6.945  14.891   7.988  0.4317 -0.1609 -0.0175
   64loPI   C4A 1018   6.830  14.998   7.627  0.3161 -0.0776 -0.2233
   64loPI   C5A 1019   6.591  15.121   7.298  0.2256 -0.0878 -0.0071
   64loPI   C6A 1020   6.543  15.304   6.936  0.1751  0.1432 -0.0110
   64loPI   C1B 1021   7.573  15.494   8.471  0.0984 -0.1618 -0.0903
   64loPI   C2B 1022   7.562  15.345   8.008  0.3219 -0.2394  0.2211
   64loPI   C3B 1023   7.402  15.080   7.709 -0.0095 -0.0429 -0.2689
   64loPI   C4B 1024   7.200  14.720   7.419 -0.0941  0.1992  0.2495
   65loPI    C1 1025  13.923  13.200   9.545  0.0194  0.0341 -0.0236
   65loPI    C2 1026  13.726  12.858   9.610  0.0941 -0.0195 -0.0786
   65loPI    C3 1027  13.966  13.007   9.893  0.0489 -0.0039 -0.0483
   65loPI   PO4 1028  13.985  13.126   9.318 -0.1362  0.1595 -0.0848
   65loPI   GL1 1029  14.292  13.160   8.934 -0.0311 -0.0159  0.1985
   65loPI   GL2 1030  14.088  13.346   8.849 -0.6446 -0.2929 -0.2536
   65loPI   C1A 1031  14.288  13.072   8.519 -0.0692  0.0530  0.1246
   65loPI   C2A 1032  14.196  13.002   8.075 -0.1059  0.1265 -0.1159
   65loPI   C3A 1033  14.096  13.050   7.572  0.0685 -0.0537  0.2508
   65loPI   C4A 1034  14.169  12.945   7.165  0.0608  0.0912  0.2223
   65loPI   C5A 1035  13.982  13.255   6.927  0.2238  0.0754 -0.2040
   65loPI   C6A 1036  13.797  13.359   6.534  0.0319  0.0084 -0.1661
   65loPI   C1B 1037  13.867  13.511   8.562  0.1243 -0.1940 -0.2319
   65loPI   C2B 1038  14.091  13.459   8.224 -0.1615 -0.0099  0.2306
   65loPI   C3B 1039  13.900  13.414   7.871 -0.0379 -0.1366 -0.1637
   65loPI   C4B 1040  13.975  13.494   7.398 -0.2307 -0.0633 -0.4125
   66loPI    C1 1041  16.467   1.644   9.367  0.1695 -0.0695  0.1044
   66loPI    C2 1042  16.199   1.393   9.525  0.1643 -0.1235  0.0104
   66loPI    C3 1043  16.307   1.722   9.725  0.0233 -0.0982  0.0458
   66loPI   PO4 1044  16.368   1.689   9.159  0.4082 -0.2722  0.2527
   66loPI   GL1 1045  16.355   1.747   8.705  0.1420 -0.0323 -0.1751
   66loPI   GL2 1046  16.535   2.027   8.630  0.0663 -0.2244 -0.2728
   66loPI   C1A 1047  16.276   1.483   8.268 -0.1063 -0.1823  0.1760
   66loPI   C2A 1048  16.302   1.227   7.948 -0.2030 -0.1266  0.0229
   66loPI   C3A 1049  16.834   1.084   7.660  0.0971  0.0015 -0.3810
   66loPI   C4A 1050  17.194   0.991   7.480 -0.0211 -0.2969  0.1166
   66loPI   C5A 1051  17.500   0.873   7.234 -0.1216  0.2114  0.0536
   66loPI   C6A 1052  17.762   0.528   6.847 -0.0110  0.1398 -0.0263
   66loPI   C1B 1053  16.582   2.106   8.128  0.0140 -0.1808  0.1378
   66loPI   C2B 1054  16.772   2.123   7.816 -0.4675  0.1974 -0.0020
   66loPI   C3B 1055  17.114   2.183   7.540  0.1113 -0.0610 -0.1193
   66loPI   C4B 1056  17.168   2.364   7.218 -0.0535  0.1246  0.0752
   67loPI    C1 1057  19.040  13.665   9.096  0.0089 -0.3935 -0.0976
   67loPI    C2 1058  19.236  13.338   9.216  0.0723 -0.2270  0.2655
   67loPI    C3 1059  19.100  13.600   9.486 -0.3468 -0.1627  0.0004
   67loPI   PO4 1060  19.072  13.757   8.940 -0.0078  0.2093  0.0115
   67loPI   GL1 1061  18.833  13.645   8.618  0.1129  0.2285  0.1348
   67loPI   GL2 1062  18.626  13.385   8.459  0.0602 -0.2253 -0.1453
   67loPI   C1A 1063  18.561  13.926   8.357 -0.2825 -0.1536  0.0012
   67loPI   C2A 1064  18.449  14.006   8.037  0.0561  0.0200 -0.0798
   67loPI   C3A 1065  18.659  14.045   7.670  0.1279 -0.4300  0.0262
   67loPI   C4A 1066  18.520  14.346   7.314  0.2300  0.0871  0.4178
   67loPI   C5A 1067  18.495  14.640   7.037 -0.0848  0.2592 -0.0575
   67loPI   C6A 1068  18.326  14.672   6.743  0.0304  0.1242  0.1727
   67loPI   C1B 1069  18.944  13.274   8.192  0.0196 -0.2865 -0.2725
   67loPI   C2B 1070  19.186  13.481   7.860  0.0977  0.2095  0.0531
   67loPI   C3B 1071  19.019  13.508   7.478  0.0902  0.1433  0.1377
   67loPI   C4B 1072  18.991  13.314   7.124  0.1928  0.6035 -0.0408
   68loPI    C1 1073  17.509  12.525   9.288 -0.2501  0.1995  0.0738
   68loPI    C2 1074  17.190  12.318   9.165 -0.2163  0.1540  0.0625
   68loPI    C3 1075  17.201  12.467   9.536 -0.1789  0.0109  0.1197
   68loPI   PO4 1076  17.761  12.465   9.139 -0.1609  0.1099  0.0693
   68loPI   GL1 1077  17.822  12.770   8.705  0.1541  0.0058  0.0312
   68loPI   GL2 1078  17.634  12.595   8.701  0.3841  0.0576  0.0194
   68loPI   C1A 1079  17.829  12.881   8.276 -0.3000  0.0485 -0.0006
   68loPI   C2A 1080  17.824  12.894   7.845  0.3258 -0.1946  0.0321
   68loPI   C3A 1081  17.702  12.806   7.524 -0.3204  0.2445  0.0589
   68loPI   C4A 1082  17.584  12.403   7.424  0.0325 -0.2362 -0.1438
   68loPI   C5A 1083  17.355  12.100   7.117  0.0478 -0.3429 -0.1817
   68loPI   C6A 1084  16.966  11.837   7.017 -0.2805 -0.0455  0.1222
   68loPI   C1B 1085  17.484  12.563   8.320  0.2119 -0.3080  0.2383
   68loPI   C2B 1086  17.462  12.501   7.967  0.1125 -0.5141 -0.0811
   68loPI   C3B 1087  17.236  12.704   7.669  0.0118 -0.0766 -0.1901
   68loPI   C4B 1088  17.292  12.933   7.267 -0.2282 -0.0254  0.1641
   69loPI    C1 1089  12.492  11.579  10.115  0.1429  0.1503 -0.2002
   69loPI    C2 1090  12.670  11.232  10.204  0.2881  0.2596 -0.0591
   69loPI    C3 1091  12.279  11.279  10.274  0.2555  0.1052 -0.1336
   69loPI   PO4 1092  12.586  11.630   9.852  0.2156 -0.0603  0.1371
   69loPI   GL1 1093  12.346  11.547   9.456 -0.1000  0.3365  0.3861
   69loPI   GL2 1094  12.100  11.390   9.333 -0.2925  0.1293  0.4478
   69loPI   C1A 1095  12.109  11.912   9.184 -0.2803  0.1099 -0.0076
   69loPI   C2A 1096  11.993  12.211   8.911  0.3962  0.1006  0.2047
   69loPI   C3A 1097  12.042  12.282   8.461 -0.1181 -0.0155 -0.3709
   69loPI   C4A 1098  12.155  12.213   8.033  0.0092 -0.1829  0.2011
   69loPI   C5A 1099  11.874  12.257   7.657  0.0160  0.2022 -0.1382
   69loPI   C6A 1100  11.621  12.326   7.309 -0.1427 -0.2386 -0.4073
   69loPI   C1B 1101  12.121  11.482   8.858  0.4072  0.3235 -0.1014
   69loPI   C2B 1102  11.992  11.712   8.579  0.2125 -0.1692  0.2587
   69loPI   C3B 1103  11.886  11.825   8.133  0.0817 -0.3111  0.2035
   69loPI   C4B 1104  11.445  11.906   8.011  0.0078 -0.0541  0.0528
   70loPI    C1 1105  17.117  12.864   9.210 -0.1795  0.2517 -0.1644
   70loPI    C2 1106  17.359  12.977   9.507 -0.2339  0.0384 -0.0366
   70loPI    C3 1107  17.040  13.199   9.415 -0.1739  0.1461  0.0127
   70loPI   PO4 1108  17.308  12.848   8.941  0.3055 -0.1291  0.1002
   70loPI   GL1 1109  17.057  12.978   8.559  0.0416 -0.2091 -0.0619
   70loPI   GL2 1110  17.423  13.032   8.511  0.0837  0.0064 -0.0893
   70loPI   C1A 1111  17.046  12.713   8.163  0.0543 -0.3815  0.3737
   70loPI   C2A 1112  16.936  12.395   7.967  0.0222 -0.0601  0.1312
   70loPI   C3A 1113  16.669  12.347   7.570 -0.1187 -0.0042 -0.2643
   70loPI   C4A 1114  16.636  12.109   7.309 -0.2785 -0.1077 -0.1103
   70loPI   C5A 1115  16.263  12.061   6.999  0.2033 -0.1400  0.0668
   70loPI   C6A 1116  16.186  11.879   6.652 -0.1257  0.1286  0.1738
   70loPI   C1B 1117  17.296  13.128   8.133 -0.1484  0.1244  0.2357
   70loPI   C2B 1118  17.500  13.267   7.794 -0.1031  0.1785 -0.1407
   70loPI   C3B 1119  17.498  13.428   7.280 -0.1110 -0.0352 -0.1485
   70loPI   C4B 1120  17.858  13.207   7.247 -0.3458 -0.0253  0.2470
   71loPI    C1 1121   0.467   1.405   9.751 -0.0690  0.0346 -0.0624
   71loPI    C2 1122   0.523   1.120  10.027 -0.1448  0.0991  0.0201
   71loPI    C3 1123   0.824   1.365   9.928 -0.0682 -0.0339 -0.0792
   71loPI   PO4 1124   0.409   1.345   9.548  0.0509 -0.2692 -0.1831
   71loPI   GL1 1125   0.464   1.310   9.133  0.2072  0.0390  0.3099
   71loPI   GL2 1126   0.260   1.548   8.943  0.3105 -0.0630 -0.1988
   71loPI   C1A 1127   0.614   1.247   8.713 -0.1737 -0.0723 -0.1144
   71loPI   C2A 1128   0.584   1.233   8.328  0.1417  0.2251  0.3144
   71loPI   C3A 1129   0.433   1.404   7.913 -0.0059  0.0923  0.0340
   71loPI   C4A 1130   0.269   1.262   7.505  0.0730 -0.1074  0.1599
   71loPI   C5A 1131   0.006   1.198   7.257 -0.2317  0.1767  0.1529
   71loPI   C6A 1132  -0.405   1.110   7.119 -0.2197  0.1857  0.0550
   71loPI   C1B 1133   0.117   1.522   8.488  0.0380 -0.0183  0.2075
   71loPI   C2B 1134  -0.153   1.863   8.282 -0.0142  0.1094 -0.0539
   71loPI   C3B 1135  -0.467   2.132   8.214 -0.0347  0.2878  0.1757
   71loPI   C4B 1136  -0.728   2.267   7.850 -0.2993  0.2353 -0.0853
   72loPI    C1 1137   1.970   0.365  10.086 -0.1742  0.2842  0.0702
   72loPI    C2 1138   1.721   0.231   9.803  0.1398  0.0352 -0.0960
   72loPI    C3 1139   1.634   0.175  10.190  0.0110 -0.1833 -0.1548
   72loPI   PO4 1140   2.190   0.337   9.957  0.2259  0.0517  0.1556
   72loPI   GL1 1141   2.322   0.281   9.492 -0.1084  0.1983 -0.3907
   72loPI   GL2 1142   2.135  -0.001   9.568  0.0780  0.4066  0.0674
   72loPI   C1A 1143   2.330   0.225   9.001 -0.2900 -0.0148  0.1077
   72loPI   C2A 1144   2.441   0.071   8.567  0.2607  0.1175 -0.1147
   72loPI   C3A 1145   2.626   0.311   8.218 -0.1834  0.2387  0.2620
   72loPI   C4A 1146   2.732   0.326   7.749  0.2096 -0.1313  0.0192
   72loPI   C5A 1147   2.648   0.738   7.551  0.0938 -0.1073  0.0978
   72loPI   C6A 1148   2.580   0.846   7.152  0.1260  0.1447 -0.0875
   72loPI   C1B 1149   1.796   0.135   9.309 -0.1575  0.0607  0.1072
   72loPI   C2B 1150   1.449   0.182   9.008 -0.3339 -0.3460  0.1787
   72loPI   C3B 1151   1.401   0.300   8.551 -0.2164 -0.1242 -0.1996
   72loPI   C4B 1152   1.509   0.323   8.131  0.2231 -0.2101  0.2339
   73loPI    C1 1153   0.469   2.669   9.800 -0.1067  0.2609 -0.0898
   73loPI    C2 1154   0.795   2.650  10.030 -0.0560  0.0624 -0.1758
   73loPI    C3 1155   0.539   2.955  10.070  0.0992  0.1784 -0.0546
   73loPI   PO4 1156   0.524   2.564   9.586  0.1937 -0.2408  0.0897
   73loPI   GL1 1157   0.534   2.583   9.169  0.0137 -0.2159 -0.0369
   73loPI   GL2 1158   0.326   2.548   8.920 -0.4811  0.1626 -0.0196
   73loPI   C1A 1159   0.961   2.549   8.950 -0.1477  0.1142  0.1412
   73loPI   C2A 1160   1.029   2.801   8.584  0.4696 -0.2170  0.1034
   73loPI   C3A 1161   0.896   2.675   8.151  0.0661 -0.0874 -0.3658
   73loPI   C4A 1162   0.749   2.686   7.751 -0.1166 -0.0624 -0.0991
   73loPI   C5A 1163   1.009   2.771   7.339 -0.2984  0.0134 -0.1631
   73loPI   C6A 1164   1.198   2.738   6.928 -0.4280 -0.1349  0.0476
   73loPI   C1B 1165   0.547   2.692   8.556  0.0468  0.0719 -0.0882
   73loPI   C2B 1166   0.550   3.033   8.265 -0.0513  0.1474  0.0787
   73loPI   C3B 1167   0.423   3.232   7.854  0.5125 -0.0023 -0.1110
   73loPI   C4B 1168   0.420   2.984   7.513 -0.2122 -0.0729 -0.2715
   74loPI    C1 1169   6.443  15.943  10.110 -0.2374  0.1355  0.0983
   74loPI    C2 1170   6.838  15.901  10.157 -0.2259 -0.0857 -0.1716
   74loPI    C3 1171   6.588  15.755  10.433 -0.1219  0.0175 -0.0210
   74loPI   PO4 1172   6.383  15.907   9.789  0.2942  0.1411 -0.1085
   74loPI   GL1 1173   6.399  15.636   9.391 -0.1699  0.1299 -0.0485
   74loPI   GL2 1174   6.610  15.632   9.176 -0.1379  0.0734  0.6741
   74loPI   C1A 1175   6.123  15.464   9.045  0.0143  0.3003  0.1824
   74loPI   C2A 1176   5.844  15.615   8.775 -0.1115  0.3423 -0.0691
   74loPI   C3A 1177   5.675  15.817   8.400 -0.3545 -0.0404  0.1639
   74loPI   C4A 1178   5.485  16.043   8.043  0.1183 -0.1939  0.1613
   74loPI   C5A 1179   5.522  16.225   7.623 -0.1301 -0.1347 -0.1422
   74loPI   C6A 1180   5.276  16.485   7.433  0.1150 -0.0729  0.1690
   74loPI   C1B 1181   6.382  15.838   8.906 -0.2374  0.0183  0.1424
   74loPI   C2B 1182   6.234  15.886   8.465 -0.1377 -0.0405 -0.3608
   74loPI   C3B 1183   6.090  15.846   8.119  0.1883 -0.1746  0.1437
   74loPI   C4B 1184   5.904  15.906   7.722  0.0094 -0.0798  0.0706
   75loPI    C1 1185  12.443   5.415   9.374 -0.1688 -0.2250  0.1002
   75loPI    C2 1186  12.261   5.592   9.064 -0.1404 -0.2465  0.0711
   75loPI    C3 1187  12.105   5.621   9.432  0.1457  0.2929  0.1605
   75loPI   PO4 1188  12.678   5.550   9.385 -0.1231  0.2020 -0.0475
   75loPI   GL1 1189  12.908   5.682   9.007 -0.1415  0.2330 -0.1026
   75loPI   GL2 1190  13.253   5.685   8.665 -0.0853  0.0695 -0.2231
   75loPI   C1A 1191  12.657   5.571   8.619 -0.0310  0.1632 -0.0976
   75loPI   C2A 1192  12.650   5.358   8.185 -0.0485 -0.0636 -0.2818
   75loPI   C3A 1193  12.643   5.221   7.777  0.0433 -0.2135  0.0439
   75loPI   C4A 1194  12.887   5.446   7.489 -0.2090 -0.3265  0.1426
   75loPI   C5A 1195  12.732   5.559   7.078  0.1266 -0.0932 -0.2820
   75loPI   C6A 1196  12.890   5.540   6.661  0.1506  0.1591  0.1793
   75loPI   C1B 1197  13.061   5.878   8.355  0.0639 -0.1217  0.0032
   75loPI   C2B 1198  13.130   6.312   8.161 -0.2272 -0.0986 -0.0731
   75loPI   C3B 1199  13.137   6.553   7.744 -0.0370  0.2246 -0.1176
   75loPI   C4B 1200  13.316   6.616   7.330 -0.1597 -0.0913 -0.0008
   76loPI    C1 1201  19.596   0.767   9.720 -0.1211 -0.0028 -0.6259
   76loPI    C2 1202  19.241   0.585   9.757 -0.2444  0.3538  0.1509
   76loPI    C3 1203  19.577   0.389   9.849 -0.2902  0.2151  0.0262
   76loPI   PO4 1204  19.612   0.888   9.511 -0.1252 -0.0891  0.0574
   76loPI   GL1 1205  19.647   0.789   9.040  0.0540  0.0653  0.0628
   76loPI   GL2 1206  19.542   0.508   9.238 -0.3891 -0.1439  0.2012
   76loPI   C1A 1207  19.562   0.895   8.595  0.3616  0.1413 -0.1935
   76loPI   C2A 1208  19.492   0.884   8.109  0.1769  0.0409  0.2144
   76loPI   C3A 1209  19.569   0.706   7.762  0.1776  0.2365  0.2390
   76loPI   C4A 1210  19.706   0.648   7.353 -0.0613  0.0076  0.1220
   76loPI   C5A 1211  19.551   0.670   6.851  0.0804 -0.0024 -0.2135
   76loPI   C6A 1212  19.183   0.668   6.708 -0.1188 -0.0064  0.1833
   76loPI   C1B 1213  19.510   0.341   8.734 -0.0258  0.1207 -0.1414
   76loPI   C2B 1214  19.509   0.400   8.281  0.3517 -0.1995 -0.3371
   76loPI   C3B 1215  19.451   0.241   7.894 -0.0397  0.2211 -0.1427
   76loPI   C4B 1216  19.591   0.199   7.466 -0.2046 -0.0516 -0.0256
   77loPI    C1 1217   9.084  19.307   9.676 -0.1951  0.2226 -0.0522
   77loPI    C2 1218   9.327  19.576   9.846  0.2727 -0.1230 -0.1564
   77loPI    C3 1219   9.099  19.340  10.075 -0.0059  0.2331 -0.0591
   77loPI   PO4 1220   9.203  19.274   9.390 -0.0765  0.3795 -0.1165
   77loPI   GL1 1221   9.378  19.403   9.032  0.0800  0.1068  0.0009
   77loPI   GL2 1222   8.980  19.450   8.959 -0.0739 -0.0605 -0.0159
   77loPI   C1A 1223   9.441  19.226   8.664  0.2007  0.1332 -0.0470
   77loPI   C2A 1224   9.338  19.233   8.195  0.4425  0.3267 -0.0848
   77loPI   C3A 1225   9.074  19.312   7.800  0.2921  0.0429  0.2250
   77loPI   C4A 1226   9.056  19.224   7.433  0.2283  0.0602 -0.1252
   77loPI   C5A 1227   8.731  18.845   7.402 -0.3909  0.0944  0.2180
   77loPI   C6A 1228   8.351  18.783   7.187 -0.1030  0.1046  0.1395
   77loPI   C1B 1229   9.000  19.054   8.661  0.1322 -0.2943  0.2177
   77loPI   C2B 1230   9.399  18.747   8.577 -0.0906 -0.3757  0.0855
   77loPI   C3B 1231   9.586  18.785   8.103  0.0687  0.2779  0.2093
   77loPI   C4B 1232   9.637  18.753   7.659 -0.0604  0.1340  0.1034
   78loPI    C1 1233   0.531  18.907   9.914 -0.1377  0.0745  0.0377
   78loPI    C2 1234   0.749  18.576   9.970  0.0348  0.1616 -0.1048
   78loPI    C3 1235   0.842  18.912  10.166 -0.1683  0.1155  0.0748
   78loPI   PO4 1236   0.520  18.815   9.637 -0.0793 -0.1029  0.3381
   78loPI   GL1 1237   0.287  18.953   9.276  0.3278 -0.1611 -0.0160
   78loPI   GL2 1238   0.105  19.292   9.263  0.2004  0.1438  0.0980
   78loPI   C1A 1239   0.471  19.166   8.899 -0.0128  0.0917  0.1774
   78loPI   C2A 1240   0.545  19.261   8.493  0.3720 -0.2362  0.1091
   78loPI   C3A 1241   0.504  19.305   8.108 -0.2803  0.0131 -0.0260
   78loPI   C4A 1242   0.576  19.335   7.681 -0.1255  0.2059  0.1353
   78loPI   C5A 1243   0.535  19.544   7.306  0.1420  0.0852 -0.3233
   78loPI   C6A 1244   0.412  19.497   6.841  0.1409  0.0153 -0.1621
   78loPI   C1B 1245  -0.022  19.470   8.914  0.1457 -0.0807  0.0693
   78loPI   C2B 1246   0.036  19.538   8.557  0.0278 -0.0010  0.0718
   78loPI   C3B 1247   0.024  19.346   8.152  0.1585  0.2766  0.2811
   78loPI   C4B 1248   0.073  19.348   7.716  0.1207  0.1696 -0.2096
   79loPI    C1 1249   9.916  11.617   9.855 -0.3602  0.0489  0.0325
   79loPI    C2 1250  10.099  11.851  10.122 -0.0990 -0.2237  0.0974
   79loPI    C3 1251   9.840  11.572  10.245 -0.3378 -0.0359  0.0273
   79loPI   PO4 1252   9.761  11.881   9.665 -0.0806 -0.0940  0.1343
   79loPI   GL1 1253   9.577  11.889   9.284  0.0379 -0.2364 -0.0043
   79loPI   GL2 1254   9.928  11.942   9.163  0.4004 -0.1909 -0.0783
   79loPI   C1A 1255   9.559  11.594   8.915 -0.0583  0.0771  0.1953
   79loPI   C2A 1256   9.579  11.498   8.457  0.3978 -0.1338  0.1811
   79loPI   C3A 1257   9.631  11.678   8.131  0.0307 -0.2435 -0.2386
   79loPI   C4A 1258   9.321  11.601   7.775 -0.1541 -0.2046 -0.1454
   79loPI   C5A 1259   9.383  11.579   7.374  0.0143 -0.1617 -0.0277
   79loPI   C6A 1260   9.696  11.649   7.098  0.0689 -0.2685 -0.0423
   79loPI   C1B 1261   9.745  12.236   8.925  0.0631  0.1714 -0.1060
   79loPI   C2B 1262   9.767  12.423   8.468  0.1103  0.0257  0.0844
   79loPI   C3B 1263   9.648  12.417   8.013 -0.0123  0.0271 -0.1124
   79loPI   C4B 1264   9.718  12.273   7.671 -0.1031 -0.0579 -0.0867
   80loPI    C1 1265   7.234  13.764  10.093  0.0751 -0.1746 -0.1512
   80loPI    C2 1266   6.881  13.881   9.946  0.0285 -0.3469 -0.1787
   80loPI    C3 1267   7.044  14.078  10.253  0.0354 -0.1033 -0.3350
   80loPI   PO4 1268   7.380  13.699   9.919  0.0529 -0.0554 -0.1462
   80loPI   GL1 1269   7.703  13.781   9.477 -0.0737  0.1349 -0.0443
   80loPI   GL2 1270   8.016  13.671   9.495 -0.3592 -0.0825  0.1414
   80loPI   C1A 1271   7.708  13.684   9.011  0.2377  0.1334  0.3788
   80loPI   C2A 1272   7.738  13.360   8.690  0.2205 -0.0799  0.0194
   80loPI   C3A 1273   7.637  13.388   8.281  0.0837  0.1483  0.0185
   80loPI   C4A 1274   7.444  13.228   7.927 -0.1687 -0.1959 -0.1070
   80loPI   C5A 1275   7.054  13.211   7.710 -0.0757 -0.0619  0.1807
   80loPI   C6A 1276   6.944  13.189   7.331  0.1971  0.1398  0.1552
   80loPI   C1B 1277   8.270  13.680   9.069  0.0444  0.2161  0.1081
   80loPI   C2B 1278   8.615  13.665   8.823  0.0333  0.1746 -0.1000
   80loPI   C3B 1279   8.872  13.434   8.903  0.3233  0.1461  0.1386
   80loPI   C4B 1280   9.296  13.400   8.826  0.0258  0.0282  0.1740
   81loPI    C1 1281  10.329   3.804  10.028  0.0250 -0.1017 -0.0995
   81loPI    C2 1282  10.704   3.667  10.052  0.0678  0.0408  0.0613
   81loPI    C3 1283  10.560   3.909  10.337 -0.1235  0.0440 -0.0364
   81loPI   PO4 1284  10.320   3.842   9.742  0.1849  0.3047  0.1270
   81loPI   GL1 1285  10.429   3.775   9.292 -0.0248 -0.0432 -0.1629
   81loPI   GL2 1286  10.671   3.755   9.012  0.0608 -0.2551  0.0887
   81loPI   C1A 1287  10.173   3.573   8.994 -0.3203 -0.1780  0.0630
   81loPI   C2A 1288  10.154   3.342   8.534  0.2622 -0.0309  0.1546
   81loPI   C3A 1289  10.141   3.170   8.137  0.1350  0.0253 -0.1756
   81loPI   C4A 1290  10.238   3.013   7.741 -0.2477 -0.1729  0.0558
   81loPI   C5A 1291   9.930   2.761   7.605  0.0740  0.0087 -0.0469
   81loPI   C6A 1292   9.582   2.589   7.286 -0.1446 -0.1591 -0.1442
   81loPI   C1B 1293  10.637   3.537   8.679  0.3753 -0.1082  0.2293
   81loPI   C2B 1294  10.577   3.545   8.289 -0.2165  0.0637  0.0732
   81loPI   C3B 1295  10.457   3.468   7.920 -0.0129 -0.1783  0.0413
   81loPI   C4B 1296  10.310   3.431   7.438  0.4109 -0.2571  0.0132
   82loPI    C1 1297   3.410   1.254  10.354  0.2172  0.1312 -0.2184
   82loPI    C2 1298   3.442   1.347  10.742  0.0627 -0.3370 -0.0857
   82loPI    C3 1299   3.292   1.613  10.484  0.1703 -0.0195  0.1719
   82loPI   PO4 1300   3.673   1.232  10.202 -0.0973  0.0195 -0.0711
   82loPI   GL1 1301   3.772   1.105   9.757 -0.1963 -0.1713  0.0342
   82loPI   GL2 1302   3.700   1.565   9.659  0.0961  0.0463 -0.0357
   82loPI   C1A 1303   3.583   1.165   9.355  0.0370 -0.1659 -0.1916
   82loPI   C2A 1304   3.337   1.201   8.972 -0.1048 -0.2129  0.0040
   82loPI   C3A 1305   3.338   1.132   8.530  0.0078  0.1312  0.0966
   82loPI   C4A 1306   3.338   1.023   8.144 -0.0426 -0.2607  0.0633
   82loPI   C5A 1307   3.546   1.183   7.754 -0.1204 -0.1009 -0.1765
   82loPI   C6A 1308   3.510   1.203   7.374  0.0746  0.0865  0.2635
   82loPI   C1B 1309   3.553   1.629   9.264  0.2789 -0.0060 -0.0986
   82loPI   C2B 1310   3.577   1.740   8.926  0.1634 -0.2859  0.0729
   82loPI   C3B 1311   3.521   1.573   8.535 -0.1857 -0.4179 -0.1479
   82loPI   C4B 1312   3.421   1.499   8.176  0.3410 -0.1244 -0.3264
   83loPI    C1 1313   3.049   9.364   9.679 -0.2800  0.0307  0.0021
   83loPI    C2 1314   2.970   9.713   9.502 -0.2009  0.0558  0.0158
   83loPI    C3 1315   3.087   9.705   9.884  0.3320  0.0588 -0.1399
   83loPI   PO4 1316   3.206   9.221   9.563  0.3566  0.0342  0.1587
   83loPI   GL1 1317   3.333   9.466   9.286  0.0178 -0.1834  0.1686
   83loPI   GL2 1318   3.581   9.220   9.086  0.2394 -0.3095 -0.0007
   83loPI   C1A 1319   3.341   9.602   8.895  0.0321 -0.1722  0.2882
   83loPI   C2A 1320   3.516   9.563   8.372 -0.2285 -0.0037  0.0471
   83loPI   C3A 1321   3.729   9.198   8.205  0.1800  0.0339  0.3771
   83loPI   C4A 1322   3.956   9.125   7.863  0.0547 -0.4716  0.1010
   83loPI   C5A 1323   3.920   9.079   7.369  0.1987 -0.1978 -0.1503
   83loPI   C6A 1324   3.747   9.241   6.927  0.0250  0.1810 -0.2262
   83loPI   C1B 1325   3.949   9.363   8.740 -0.0732 -0.4370 -0.0361
   83loPI   C2B 1326   4.291   9.640   8.707  0.3154  0.0627  0.0771
   83loPI   C3B 1327   4.372   9.906   8.386  0.0353  0.2056  0.0697
   83loPI   C4B 1328   4.457   9.715   8.077 -0.2381 -0.0800  0.2005
   84loPI    C1 1329   8.523   7.152   9.923 -0.0399 -0.0079 -0.1160
   84loPI    C2 1330   8.908   7.078   9.842 -0.0436 -0.0709 -0.0765
   84loPI    C3 1331   8.809   7.299  10.161 -0.0467 -0.2013  0.0139
   84loPI   PO4 1332   8.427   7.300   9.736  0.1930 -0.0440 -0.3777
   84loPI   GL1 1333   8.539   7.526   9.370 -0.2257  0.1407  0.2825
   84loPI   GL2 1334   8.856   7.575   9.317  0.0485  0.0350 -0.0271
   84loPI   C1A 1335   8.406   7.598   8.975 -0.0109  0.2502 -0.0274
   84loPI   C2A 1336   8.377   7.548   8.496 -0.0494 -0.0753 -0.0620
   84loPI   C3A 1337   8.124   7.383   8.138 -0.0750 -0.3929  0.0119
   84loPI   C4A 1338   8.193   7.245   7.817  0.0034 -0.1005 -0.1647
   84loPI   C5A 1339   8.016   7.306   7.444 -0.0296  0.1678 -0.1602
   84loPI   C6A 1340   7.885   7.648   7.244 -0.0351 -0.0465 -0.0027
   84loPI   C1B 1341   8.999   7.170   9.141  0.2097 -0.0580  0.4204
   84loPI   C2B 1342   9.281   6.928   8.950 -0.1187 -0.0903 -0.0280
   84loPI   C3B 1343   9.303   6.798   8.558 -0.1905 -0.0300  0.0685
   84loPI   C4B 1344   8.984   6.805   8.274 -0.6895  0.0908 -0.1666
   85loPI    C1 1345  15.535  18.350   9.168 -0.3049  0.1724  0.0910
   85loPI    C2 1346  15.729  18.361   9.518 -0.0553 -0.0156 -0.0377
   85loPI    C3 1347  15.645  18.009   9.347  0.0764  0.0794 -0.3032
   85loPI   PO4 1348  15.655  18.562   9.018  0.0625 -0.3683  0.0177
   85loPI   GL1 1349  15.847  18.703   8.588 -0.0732  0.0403 -0.0155
   85loPI   GL2 1350  15.712  18.934   8.405 -0.2669  0.3356  0.0907
   85loPI   C1A 1351  15.955  18.525   8.192  0.1221  0.0372 -0.3568
   85loPI   C2A 1352  16.268  18.359   7.841 -0.0676  0.0566  0.3681
   85loPI   C3A 1353  16.498  18.395   7.422  0.0205 -0.0754 -0.0269
   85loPI   C4A 1354  16.682  18.828   7.167  0.0794 -0.1608 -0.1178
   85loPI   C5A 1355  16.962  19.089   6.938  0.0591 -0.1264 -0.1969
   85loPI   C6A 1356  17.137  19.479   6.766  0.3020 -0.0776 -0.0460
   85loPI   C1B 1357  15.716  19.005   8.078 -0.0986 -0.2953 -0.0339
   85loPI   C2B 1358  15.660  18.929   7.681 -0.1662 -0.2602 -0.0830
   85loPI   C3B 1359  15.414  19.106   7.312  0.0810  0.0441  0.2623
   85loPI   C4B 1360  15.316  19.228   6.886  0.1811 -0.1060  0.0845
   86loPI    C1 1361   7.183  18.537   9.687 -0.1149 -0.0138  0.1081
   86loPI    C2 1362   7.085  18.688  10.044 -0.0126  0.0355  0.1157
   86loPI    C3 1363   7.363  18.401  10.017 -0.2473 -0.1943  0.1067
   86loPI   PO4 1364   7.160  18.661   9.521 -0.0319  0.0528  0.0797
   86loPI   GL1 1365   6.910  18.921   9.249 -0.1329  0.0737  0.0742
   86loPI   GL2 1366   6.562  18.979   9.164  0.0700 -0.1558  0.0413
   86loPI   C1A 1367   6.935  18.961   8.763 -0.0972 -0.0907  0.1196
   86loPI   C2A 1368   7.129  18.999   8.284  0.1915  0.1241 -0.2430
   86loPI   C3A 1369   7.201  18.961   7.939  0.0662  0.2472  0.1239
   86loPI   C4A 1370   7.170  19.148   7.481  0.1411  0.0256 -0.0278
   86loPI   C5A 1371   7.028  19.522   7.398  0.0651 -0.1978  0.2997
   86loPI   C6A 1372   6.965  19.792   7.679  0.0384 -0.0386  0.2016
   86loPI   C1B 1373   6.341  18.886   8.774 -0.2123 -0.2038 -0.0060
   86loPI   C2B 1374   6.374  18.906   8.288  0.1056  0.0868  0.1615
   86loPI   C3B 1375   6.391  18.827   7.792  0.1199  0.3192  0.3044
   86loPI   C4B 1376   6.472  18.583   7.427  0.0252  0.0492  0.0519
   87loPI    C1 1377  14.970   6.269   9.868 -0.0591 -0.1470 -0.3321
   87loPI    C2 1378  14.876   5.909   9.721 -0.1270 -0.2418 -0.0615
   87loPI    C3 1379  14.857   5.976  10.115  0.0704  0.0031 -0.0910
   87loPI   PO4 1380  15.253   6.270   9.663 -0.1457  0.0699 -0.1470
   87loPI   GL1 1381  15.224   6.290   9.196  0.3101 -0.3224  0.2038
   87loPI   GL2 1382  15.305   6.531   9.028  0.0699 -0.4261 -0.1935
   87loPI   C1A 1383  14.879   6.312   8.790  0.0328 -0.3111  0.6113
   87loPI   C2A 1384  14.959   6.057   8.390 -0.0387  0.0560  0.0471
   87loPI   C3A 1385  14.983   5.892   8.060  0.1396  0.0702  0.2819
   87loPI   C4A 1386  14.854   5.977   7.762  0.2221  0.0361  0.1171
   87loPI   C5A 1387  14.715   6.080   7.311 -0.1378  0.3524  0.2838
   87loPI   C6A 1388  14.861   6.087   6.830 -0.0939  0.1682 -0.0759
   87loPI   C1B 1389  15.349   6.293   8.635  0.1808 -0.1535  0.0528
   87loPI   C2B 1390  15.443   6.057   8.273  0.3909 -0.1350  0.3501
   87loPI   C3B 1391  15.773   6.034   8.024  0.0925 -0.1109  0.1399
   87loPI   C4B 1392  15.925   6.204   7.776 -0.1914  0.1367  0.1877
   88loPI    C1 1393   0.642   8.130   9.636 -0.1290 -0.0405  0.1138
   88loPI    C2 1394   0.706   7.807   9.863 -0.2913 -0.0193  0.1910
   88loPI    C3 1395   0.546   8.136  10.024 -0.0675  0.1229  0.1275
   88loPI   PO4 1396   0.826   8.256   9.427 -0.1355 -0.1420 -0.0313
   88loPI   GL1 1397   0.805   8.467   9.092 -0.0457 -0.0558 -0.0118
   88loPI   GL2 1398   0.930   8.772   9.053  0.1082  0.1307 -0.2209
   88loPI   C1A 1399   0.811   8.148   8.697  0.0075  0.3428  0.1661
   88loPI   C2A 1400   0.627   8.203   8.331  0.0884 -0.0936  0.1505
   88loPI   C3A 1401   0.482   8.250   7.898  0.1722 -0.1585 -0.0368
   88loPI   C4A 1402   0.341   8.107   7.382 -0.0636  0.0762 -0.0204
   88loPI   C5A 1403   0.457   7.816   7.071  0.1714  0.0614  0.0934
   88loPI   C6A 1404   0.643   7.545   6.769 -0.0359  0.0486 -0.3198
   88loPI   C1B 1405   0.962   8.610   8.663 -0.2163 -0.1014  0.2838
   88loPI   C2B 1406   1.129   8.668   8.251  0.0320  0.0045 -0.1603
   88loPI   C3B 1407   1.173   8.472   7.870 -0.0877  0.2578  0.0235
   88loPI   C4B 1408   1.199   8.624   7.417 -0.2514  0.1939 -0.1564
   89loPI    C1 1409  19.077   7.062   9.702 -0.0669 -0.1422 -0.1693
   89loPI    C2 1410  18.907   6.700   9.725 -0.0014 -0.1764 -0.2199
   89loPI    C3 1411  19.248   6.775   9.922 -0.1109 -0.0869 -0.0621
   89loPI   PO4 1412  18.835   7.221   9.585 -0.0742 -0.2540 -0.0099
   89loPI   GL1 1413  18.787   7.209   9.174 -0.0444  0.1329 -0.3868
   89loPI   GL2 1414  19.094   7.203   9.168  0.2194  0.0290 -0.0965
   89loPI   C1A 1415  18.534   7.236   8.752 -0.5258 -0.2905 -0.1155
   89loPI   C2A 1416  18.484   7.394   8.293 -0.0279  0.0957 -0.0104
   89loPI   C3A 1417  18.659   7.346   7.848 -0.0184  0.2577 -0.0257
   89loPI   C4A 1418  18.818   7.296   7.482  0.1200  0.0021  0.1135
   89loPI   C5A 1419  19.093   7.061   7.324  0.0452 -0.1234  0.1573
   89loPI   C6A 1420  18.989   6.737   6.966 -0.0252  0.0707 -0.1644
   89loPI   C1B 1421  19.072   7.151   8.755 -0.1441 -0.0929  0.2075
   89loPI   C2B 1422  18.893   7.019   8.322  0.2204  0.0786 -0.2414
   89loPI   C3B 1423  19.010   6.953   7.869 -0.3533 -0.1566  0.1050
   89loPI   C4B 1424  19.487   6.960   7.839  0.1797  0.1227 -0.1623
   90loPI    C1 1425  12.185  13.292   9.859 -0.1592 -0.0965  0.1071
   90loPI    C2 1426  12.290  13.084  10.184 -0.3800 -0.1920  0.1187
   90loPI    C3 1427  11.999  13.358  10.207 -0.2216 -0.0169  0.0590
   90loPI   PO4 1428  12.336  13.165   9.623  0.1642  0.3595  0.3840
   90loPI   GL1 1429  12.688  12.985   9.498  0.0809  0.2002  0.1232
   90loPI   GL2 1430  12.715  12.629   9.311  0.1735  0.1328 -0.0426
   90loPI   C1A 1431  12.626  13.082   8.974  0.5752  0.1174 -0.0358
   90loPI   C2A 1432  12.827  12.976   8.507  0.1060  0.1108  0.1080
   90loPI   C3A 1433  13.167  12.955   8.204  0.2311  0.1436  0.0555
   90loPI   C4A 1434  13.223  12.888   7.741  0.0836  0.0790  0.0057
   90loPI   C5A 1435  13.047  12.622   7.484 -0.4169 -0.1051 -0.3564
   90loPI   C6A 1436  12.643  12.681   7.267 -0.1411 -0.0973 -0.2516
   90loPI   C1B 1437  12.918  12.554   8.844 -0.1886 -0.3203 -0.0685
   90loPI   C2B 1438  13.032  12.322   8.473  0.1754 -0.1522 -0.2743
   90loPI   C3B 1439  13.087  12.451   7.992  0.1244 -0.2150 -0.0932
   90loPI   C4B 1440  13.458  12.316   7.722 -0.0048  0.1036 -0.3973
   91loPI    C1 1441  17.242  15.401   9.430  0.0670  0.0034  0.3821
   91loPI    C2 1442  17.205  15.005   9.469  0.0426 -0.0383 -0.0218
   91loPI    C3 1443  17.453  15.207   9.709 -0.1490 -0.2553  0.3697
   91loPI   PO4 1444  17.237  15.270   9.075  0.0083  0.3523 -0.1346
   91loPI   GL1 1445  17.253  15.152   8.627  0.0082 -0.1277 -0.2135
   91loPI   GL2 1446  17.433  14.916   8.579 -0.2161 -0.2193 -0.3067
   91loPI   C1A 1447  17.204  15.316   8.203  0.0570  0.3942 -0.1760
   91loPI   C2A 1448  17.165  15.044   7.813 -0.0071  0.2529  0.1351
   91loPI   C3A 1449  17.023  14.806   7.431  0.2929 -0.3441 -0.0961
   91loPI   C4A 1450  16.825  14.617   7.043 -0.3166 -0.0576 -0.3602
   91loPI   C5A 1451  16.690  14.866   6.598 -0.0999  0.1000  0.1214
   91loPI   C6A 1452  16.414  15.087   6.344  0.0388 -0.0717  0.0396
   91loPI   C1B 1453  17.670  15.182   8.306  0.0454 -0.0518 -0.3340
   91loPI   C2B 1454  17.796  15.337   7.961 -0.1686 -0.1752 -0.2164
   91loPI   C3B 1455  17.622  15.286   7.592 -0.1724  0.2300  0.0832
   91loPI   C4B 1456  17.286  15.182   7.307 -0.0324  0.0807  0.2987
   92loPI    C1 1457   6.696  18.050   9.653  0.0383  0.2785 -0.0934
   92loPI    C2 1458   6.772  18.315   9.943 -0.1818  0.1506  0.0836
   92loPI    C3 1459   6.588  17.970  10.030  0.2962 -0.1624 -0.1050
   92loPI   PO4 1460   6.933  18.081   9.559 -0.2469  0.0027  0.3233
   92loPI   GL1 1461   7.046  18.285   9.189  0.0603  0.2873  0.1125
   92loPI   GL2 1462   7.141  18.025   9.021 -0.0052  0.0319  0.2488
   92loPI   C1A 1463   7.201  18.449   8.855 -0.3811  0.2337  0.0885
   92loPI   C2A 1464   7.210  18.488   8.439 -0.0724 -0.0152 -0.1727
   92loPI   C3A 1465   7.346  18.376   8.033 -0.1207  0.2280 -0.0260
   92loPI   C4A 1466   7.248  18.470   7.578  0.0260 -0.1009  0.6306
   92loPI   C5A 1467   7.432  18.721   7.428  0.1425  0.3775  0.1373
   92loPI   C6A 1468   7.787  18.800   7.102 -0.0536 -0.1812 -0.0679
   92loPI   C1B 1469   7.029  17.911   8.648  0.2412  0.1321  0.0271
   92loPI   C2B 1470   7.028  18.039   8.248 -0.0883 -0.2391 -0.3583
   92loPI   C3B 1471   7.000  18.063   7.826 -0.1616 -0.0461  0.0652
   92loPI   C4B 1472   6.789  18.133   7.394  0.1574 -0.0839 -0.3452
   93loPI    C1 1473  11.859   4.631   9.553  0.1083 -0.1916 -0.0615
   93loPI    C2 1474  11.562   4.712   9.807  0.0298 -0.3711 -0.0946
   93loPI    C3 1475  11.925   4.620   9.947  0.0740 -0.1419 -0.0544
   93loPI   PO4 1476  11.834   4.792   9.396  0.3721  0.2156  0.3543
   93loPI   GL1 1477  11.887   4.752   8.918  0.1193 -0.1042 -0.1658
   93loPI   GL2 1478  11.734   4.459   8.701  0.1839 -0.1870  0.3361
   93loPI   C1A 1479  11.849   4.892   8.482 -0.0610 -0.0721 -0.0317
   93loPI   C2A 1480  11.792   5.284   8.208  0.0158 -0.0194 -0.0270
   93loPI   C3A 1481  11.737   5.518   7.767 -0.5264 -0.0454  0.1631
   93loPI   C4A 1482  11.846   5.574   7.360  0.1010  0.3332 -0.0582
   93loPI   C5A 1483  11.549   5.486   6.996  0.1988  0.0571 -0.3383
   93loPI   C6A 1484  11.260   5.644   6.656  0.1929 -0.2344 -0.4921
   93loPI   C1B 1485  11.455   4.639   8.362  0.2641  0.1860 -0.0192
   93loPI   C2B 1486  11.499   4.838   7.981  0.0367 -0.3103 -0.0972
   93loPI   C3B 1487  11.181   4.843   7.580 -0.1055 -0.2653 -0.1221
   93loPI   C4B 1488  11.089   5.030   7.122  0.2618 -0.1182 -0.0708
   94loPI    C1 1489   8.022  19.782   9.532 -0.1879  0.1632  0.0559
   94loPI    C2 1490   8.417  19.737   9.485 -0.1819 -0.0142  0.2629
   94loPI    C3 1491   8.272  19.891   9.825 -0.2889  0.1114  0.1617
   94loPI   PO4 1492   7.888  19.866   9.284 -0.1598 -0.0065 -0.0247
   94loPI   GL1 1493   7.932  19.660   8.847 -0.2036 -0.1362 -0.0413
   94loPI   GL2 1494   8.074  19.435   8.706 -0.0794  0.1432 -0.1454
   94loPI   C1A 1495   7.515  19.709   8.546 -0.0091 -0.1857  0.1916
   94loPI   C2A 1496   7.393  19.897   8.133  0.1326 -0.3081 -0.2640
   94loPI   C3A 1497   7.287  20.123   7.850  0.2649  0.0140 -0.1714
   94loPI   C4A 1498   6.873  20.390   7.743  0.4136 -0.1067 -0.0246
   94loPI   C5A 1499   6.771  20.535   7.411  0.1847 -0.0055  0.1248
   94loPI   C6A 1500   7.192  20.417   7.207  0.0712  0.0687 -0.3376
   94loPI   C1B 1501   8.040  19.643   8.264 -0.1196 -0.2190 -0.0866
   94loPI   C2B 1502   7.816  19.606   7.986  0.0466 -0.1106 -0.1713
   94loPI   C3B 1503   7.726  19.873   7.727  0.0269  0.0687 -0.1065
   94loPI   C4B 1504   7.393  19.947   7.382  0.1877  0.2785 -0.1232
   95loPI    C1 1505  13.032   2.186   9.180  0.0212 -0.0807 -0.2014
   95loPI    C2 1506  13.401   2.337   9.207  0.0423 -0.1217 -0.2585
   95loPI    C3 1507  13.313   1.991   9.388 -0.1045  0.1404  0.1857
   95loPI   PO4 1508  13.059   2.154   8.918  0.0333 -0.2182  0.1617
   95loPI   GL1 1509  12.841   2.385   8.553  0.5343  0.3260 -0.0355
   95loPI   GL2 1510  12.556   2.364   8.715 -0.0135 -0.1281  0.2686
   95loPI   C1A 1511  12.945   2.486   8.135  0.0834  0.0557 -0.3254
   95loPI   C2A 1512  12.908   2.508   7.797  0.0755 -0.0221 -0.1975
   95loPI   C3A 1513  12.583   2.617   7.541  0.0714 -0.1564 -0.1785
   95loPI   C4A 1514  12.437   2.749   7.175  0.0859 -0.1429  0.0421
   95loPI   C5A 1515  12.474   3.066   6.899 -0.0519 -0.1884 -0.0511
   95loPI   C6A 1516  12.224   3.366   6.993 -0.0817 -0.4096  0.1555
   95loPI   C1B 1517  12.418   2.404   8.317 -0.1422 -0.4247 -0.1038
   95loPI   C2B 1518  12.300   2.702   8.166  0.2756 -0.0650  0.0359
   95loPI   C3B 1519  11.936   2.903   7.957 -0.3344 -0.1619  0.4010
   95loPI   C4B 1520  11.628   3.133   7.906  0.1407  0.1407 -0.0464
   96loPI    C1 1521   0.558  13.299   9.331  0.1818 -0.0958 -0.0858
   96loPI    C2 1522   0.838  13.059   9.486  0.1119 -0.0702  0.0818
   96loPI    C3 1523   0.497  13.122   9.685  0.0521  0.0215 -0.0488
   96loPI   PO4 1524   0.637  13.299   9.046  0.1545  0.0220 -0.3345
   96loPI   GL1 1525   0.754  12.933   8.797  0.1129 -0.0069  0.1116
   96loPI   GL2 1526   0.714  13.113   8.536 -0.0056 -0.1099  0.0609
   96loPI   C1A 1527   0.685  12.548   8.565  0.3035 -0.3664  0.0628
   96loPI   C2A 1528   0.812  12.507   8.112 -0.0704  0.1270  0.3819
   96loPI   C3A 1529   0.717  12.568   7.612  0.0524 -0.2156 -0.1189
   96loPI   C4A 1530   0.926  12.563   7.149  0.4276  0.1140 -0.1627
   96loPI   C5A 1531   0.887  12.509   6.719  0.1047  0.1779  0.1073
   96loPI   C6A 1532   1.278  12.647   6.451  0.2509 -0.1423  0.0772
   96loPI   C1B 1533   0.652  12.958   8.209  0.4345  0.4048 -0.1445
   96loPI   C2B 1534   0.867  13.178   7.818 -0.0158  0.0480  0.1996
   96loPI   C3B 1535   1.147  13.439   7.607 -0.0910 -0.0979  0.1420
   96loPI   C4B 1536   1.512  13.467   7.332 -0.1564 -0.0385  0.1408
   97loPI    C1 1537  15.869  11.791   9.395  0.0489 -0.1071 -0.3372
   97loPI    C2 1538  16.084  11.641   9.697 -0.2333  0.0507 -0.0512
   97loPI    C3 1539  15.839  11.403   9.489 -0.0201 -0.0634 -0.1759
   97loPI   PO4 1540  16.010  11.799   9.183 -0.1287  0.0820 -0.0450
   97loPI   GL1 1541  16.097  11.758   8.789 -0.0287  0.2085  0.0982
   97loPI   GL2 1542  16.064  11.379   8.844  0.0405 -0.0025 -0.0106
   97loPI   C1A 1543  16.102  11.946   8.442  0.1615 -0.1115 -0.1997
   97loPI   C2A 1544  16.491  12.090   8.147 -0.1127 -0.1555  0.0832
   97loPI   C3A 1545  16.786  11.850   7.861 -0.0015 -0.2236  0.0696
   97loPI   C4A 1546  16.938  11.562   7.423 -0.4717 -0.1286  0.0952
   97loPI   C5A 1547  17.021  11.281   7.007 -0.1316 -0.2805  0.1730
   97loPI   C6A 1548  16.678  10.992   6.809  0.0668 -0.2624  0.2247
   97loPI   C1B 1549  16.096  11.443   8.331  0.3243  0.0735  0.0883
   97loPI   C2B 1550  15.841  11.491   7.965 -0.0257  0.2326 -0.1093
   97loPI   C3B 1551  15.758  11.471   7.508  0.1679  0.1236 -0.1404
   97loPI   C4B 1552  15.347  11.175   7.310  0.2281  0.0255  0.0532
   98loPI    C1 1553   5.733   9.005  10.289  0.1091  0.0184 -0.1191
   98loPI    C2 1554   5.952   8.911  10.610 -0.1007 -0.0031  0.0194
   98loPI    C3 1555   5.556   8.857  10.615 -0.0996 -0.0510 -0.2620
   98loPI   PO4 1556   5.861   9.159  10.144 -0.0945 -0.0240 -0.2811
   98loPI   GL1 1557   5.822   9.152   9.731 -0.0146  0.0635 -0.0842
   98loPI   GL2 1558   5.517   9.320   9.535  0.0648  0.1699  0.0772
   98loPI   C1A 1559   6.048   9.413   9.536  0.2603 -0.2739  0.0805
   98loPI   C2A 1560   6.127   9.445   9.136 -0.2960  0.1194  0.0011
   98loPI   C3A 1561   6.194   9.481   8.661 -0.1974 -0.0912  0.0406
   98loPI   C4A 1562   6.104   9.488   8.140 -0.2698  0.0002  0.3429
   98loPI   C5A 1563   6.027   9.341   7.784  0.3687 -0.0033  0.1362
   98loPI   C6A 1564   5.853   9.056   7.526 -0.1506 -0.4556 -0.5945
   98loPI   C1B 1565   5.719   9.172   9.202  0.1260  0.1348  0.0721
   98loPI   C2B 1566   5.696   9.414   8.648  0.2401  0.1188 -0.2743
   98loPI   C3B 1567   5.825   9.829   8.584  0.1413  0.0472 -0.1586
   98loPI   C4B 1568   5.961  10.252   8.547  0.0471 -0.0291 -0.0737
   99loPI    C1 1569  14.530   1.215   9.246  0.1199 -0.0709  0.0329
   99loPI    C2 1570  14.403   1.093   9.605  0.2222 -0.3673 -0.0287
   99loPI    C3 1571  14.778   1.017   9.489  0.3372  0.1411 -0.0133
   99loPI   PO4 1572  14.317   1.194   9.039  0.1450  0.0060 -0.2370
   99loPI   GL1 1573  14.221   1.373   8.632  0.1505 -0.0146  0.1621
   99loPI   GL2 1574  13.870   1.416   8.406  0.1464  0.1855  0.2680
   99loPI   C1A 1575  14.365   1.716   8.384 -0.0640  0.0080 -0.1945
   99loPI   C2A 1576  14.335   1.948   7.934 -0.0918 -0.1604  0.1741
   99loPI   C3A 1577  14.088   2.334   7.973 -0.1461  0.0887  0.1776
   99loPI   C4A 1578  14.052   2.730   7.789 -0.3164  0.1784 -0.2364
   99loPI   C5A 1579  13.810   2.872   7.467 -0.1039  0.2810 -0.1592
   99loPI   C6A 1580  13.921   2.972   7.039 -0.1638 -0.2417  0.3542
   99loPI   C1B 1581  14.077   1.440   8.004 -0.1965 -0.0170  0.1135
   99loPI   C2B 1582  14.088   1.597   7.456 -0.1039 -0.0563  0.1036
   99loPI   C3B 1583  14.248   1.413   7.052  0.0168  0.2016 -0.0584
   99loPI   C4B 1584  14.304   1.178   6.779  0.2198  0.0990 -0.1636
  100loPI    C1 1585   2.820  12.425   9.549 -0.2173 -0.2067  0.0139
  100loPI    C2 1586   3.046  12.096   9.576  0.1017 -0.0036 -0.1162
  100loPI    C3 1587   3.015  12.343   9.889  0.0299 -0.0491 -0.0871
  100loPI   PO4 1588   2.856  12.522   9.321 -0.1817  0.1453  0.2751
  100loPI   GL1 1589   3.085  12.421   9.047  0.1072  0.1278 -0.0234
  100loPI   GL2 1590   3.249  12.207   9.157  0.1639  0.4849 -0.0120
  100loPI   C1A 1591   3.109  12.408   8.640 -0.2493  0.1364  0.0088
  100loPI   C2A 1592   3.242  12.472   8.232 -0.1287  0.1207  0.0176
  100loPI   C3A 1593   3.187  12.337   7.899 -0.3665  0.4826  0.3181
  100loPI   C4A 1594   3.245  12.347   7.542  0.3612  0.0570 -0.0200
  100loPI   C5A 1595   3.524  12.164   7.248  0.3541  0.2948  0.2776
  100loPI   C6A 1596   3.810  11.946   7.294 -0.0733 -0.1700 -0.1319
  100loPI   C1B 1597   3.309  12.009   8.777  0.1467 -0.1310  0.3163
  100loPI   C2B 1598   3.256  12.009   8.359  0.1943 -0.1604 -0.3498
  100loPI   C3B 1599   3.553  11.971   7.949 -0.0020 -0.2304  0.2575
  100loPI   C4B 1600   3.758  12.269   7.693  0.0182  0.1795  0.0761
  101loPI    C1 1601  15.249   8.227   9.231  0.0042  0.0361  0.0286
  101loPI    C2 1602  15.370   8.226   8.850  0.2044  0.0876  0.0907
  101loPI    C3 1603  15.636   8.175   9.144  0.0396 -0.0312  0.2210
  101loPI   PO4 1604  15.055   8.403   9.215  0.0691  0.0696 -0.0988
  101loPI   GL1 1605  15.087   8.661   8.877 -0.1461  0.1360  0.0012
  101loPI   GL2 1606  15.106   8.807   8.644  0.3002 -0.1057  0.0453
  101loPI   C1A 1607  15.055   8.360   8.499  0.3788 -0.2608 -0.0549
  101loPI   C2A 1608  14.869   8.197   8.187  0.2856  0.0795  0.0491
  101loPI   C3A 1609  14.797   8.367   7.843  0.2531 -0.0895  0.1119
  101loPI   C4A 1610  14.400   8.436   7.619 -0.2333 -0.0860  0.1640
  101loPI   C5A 1611  14.069   8.559   7.398 -0.2705  0.1143 -0.0202
  101loPI   C6A 1612  14.047   8.834   7.078  0.3677 -0.1508 -0.0212
  101loPI   C1B 1613  15.106   9.200   8.329 -0.2070 -0.0492  0.2330
  101loPI   C2B 1614  15.137   9.297   7.858  0.0437 -0.2690  0.0935
  101loPI   C3B 1615  14.843   9.407   7.419 -0.0044 -0.3971 -0.1502
  101loPI   C4B 1616  14.798   9.409   7.033 -0.3207 -0.0603 -0.1668
  102loPI    C1 1617  13.551  19.718   9.215 -0.0405  0.0424 -0.0037
  102loPI    C2 1618  13.531  19.325   9.141 -0.0405  0.0924 -0.2768
  102loPI    C3 1619  13.386  19.471   9.484 -0.1106 -0.1356 -0.2074
  102loPI   PO4 1620  13.823  19.771   9.024  0.0084 -0.0513 -0.0623
  102loPI   GL1 1621  13.727  19.529   8.668 -0.0072 -0.0762  0.2260
  102loPI   GL2 1622  13.823  19.263   8.738 -0.0469 -0.2667  0.0745
  102loPI   C1A 1623  13.778  19.398   8.254 -0.0721 -0.4153  0.2817
  102loPI   C2A 1624  13.816  19.129   7.920  0.1781  0.0543  0.0099
  102loPI   C3A 1625  13.863  19.343   7.592  0.1142  0.1024  0.0422
  102loPI   C4A 1626  13.978  19.491   7.249 -0.0009  0.0979 -0.0575
  102loPI   C5A 1627  14.242  19.450   6.912  0.0100  0.2005  0.1832
  102loPI   C6A 1628  14.459  19.697   6.581  0.0014  0.0311 -0.4243
  102loPI   C1B 1629  13.801  18.962   8.426 -0.1460  0.1779  0.1385
  102loPI   C2B 1630  13.815  18.631   8.122 -0.3822 -0.1491  0.1788
  102loPI   C3B 1631  13.923  18.639   7.666  0.1366 -0.1873  0.0398
  102loPI   C4B 1632  14.088  18.539   7.201  0.2837 -0.0810  0.2271
  103loPI    C1 1633   7.945  16.290   9.516  0.0972 -0.0795  0.0930
  103loPI    C2 1634   7.651  16.406   9.761 -0.0654  0.0962 -0.1791
  103loPI    C3 1635   7.751  16.019   9.738 -0.1533  0.0581  0.0458
  103loPI   PO4 1636   7.978  16.479   9.268 -0.1576  0.3552  0.0276
  103loPI   GL1 1637   7.801  16.458   8.841 -0.0626  0.1203 -0.0304
  103loPI   GL2 1638   7.514  16.566   8.964  0.0435  0.3068  0.0488
  103loPI   C1A 1639   7.663  16.500   8.466 -0.1465  0.1455 -0.3109
  103loPI   C2A 1640   7.653  16.380   8.093  0.0020  0.1638 -0.2541
  103loPI   C3A 1641   7.543  16.271   7.703  0.0110  0.1834 -0.1476
  103loPI   C4A 1642   7.492  16.499   7.349 -0.0810 -0.1089  0.0034
  103loPI   C5A 1643   7.473  16.357   6.905 -0.0566 -0.3419  0.0026
  103loPI   C6A 1644   7.251  16.333   6.457 -0.1625  0.0673  0.1217
  103loPI   C1B 1645   7.175  16.481   8.721 -0.0361 -0.0574  0.0723
  103loPI   C2B 1646   6.863  16.589   8.383 -0.3134 -0.0189 -0.3221
  103loPI   C3B 1647   6.833  17.021   8.286 -0.0415 -0.1039 -0.1409
  103loPI   C4B 1648   7.052  17.106   8.017 -0.0611  0.2519  0.1642
  104loPI    C1 1649   7.445   2.878   9.669 -0.5628 -0.0192 -0.1498
  104loPI    C2 1650   7.416   3.104   9.998  0.0824 -0.0173 -0.0822
  104loPI    C3 1651   7.364   2.708  10.022  0.0123 -0.0034 -0.0003
  104loPI   PO4 1652   7.405   3.119   9.435  0.0216  0.0812 -0.1195
  104loPI   GL1 1653   7.735   3.300   9.124  0.0030  0.0467 -0.1253
  104loPI   GL2 1654   8.060   3.137   8.961 -0.1234 -0.0461  0.3205
  104loPI   C1A 1655   7.534   3.339   8.770 -0.0634  0.2124 -0.1399
  104loPI   C2A 1656   7.447   3.225   8.368 -0.1391  0.0882  0.0409
  104loPI   C3A 1657   7.222   3.157   7.962 -0.0851  0.1732  0.0705
  104loPI   C4A 1658   7.419   2.974   7.520 -0.2421  0.0407 -0.1900
  104loPI   C5A 1659   7.664   2.945   7.199 -0.2663 -0.0551  0.2291
  104loPI   C6A 1660   7.886   2.879   6.784  0.1765 -0.1905  0.3100
  104loPI   C1B 1661   8.137   3.231   8.470  0.1990  0.1002 -0.0730
  104loPI   C2B 1662   8.310   3.132   8.042  0.1764  0.1549 -0.1149
  104loPI   C3B 1663   8.437   2.887   7.751 -0.1485 -0.0034  0.1302
  104loPI   C4B 1664   8.642   2.487   7.432  0.0299  0.0368 -0.2728
  105loPI    C1 1665   0.433  17.606   9.483 -0.0559 -0.0220  0.1831
  105loPI    C2 1666   0.076  17.638   9.661  0.0126  0.0245  0.3136
  105loPI    C3 1667   0.364  17.418   9.830 -0.0021 -0.1367  0.1320
  105loPI   PO4 1668   0.462  17.870   9.400  0.3768 -0.1528 -0.0991
  105loPI   GL1 1669   0.615  17.963   9.061  0.2617  0.0320 -0.3221
  105loPI   GL2 1670   0.306  18.042   8.878  0.0226  0.1726 -0.0567
  105loPI   C1A 1671   0.665  17.801   8.613 -0.1525  0.2622 -0.0868
  105loPI   C2A 1672   0.729  17.973   8.213  0.1949  0.0732  0.1685
  105loPI   C3A 1673   0.998  17.917   7.785  0.1239  0.0253 -0.0651
  105loPI   C4A 1674   1.002  17.724   7.464 -0.0234  0.1166  0.1826
  105loPI   C5A 1675   0.891  17.349   7.143 -0.0911 -0.0881  0.0134
  105loPI   C6A 1676   1.012  16.948   6.840  0.0954 -0.0248  0.2961
  105loPI   C1B 1677   0.333  18.198   8.463 -0.3666 -0.3588 -0.1369
  105loPI   C2B 1678   0.355  18.275   7.971 -0.0247  0.0876 -0.0897
  105loPI   C3B 1679   0.565  18.519   7.653 -0.0924 -0.1432  0.1932
  105loPI   C4B 1680   0.812  18.821   7.447  0.0456  0.1484 -0.3101
  106loPI    C1 1681   5.180   7.490   9.739 -0.0884  0.0422 -0.0172
  106loPI    C2 1682   5.322   7.779   9.976 -0.0434  0.2398 -0.2807
  106loPI    C3 1683   5.537   7.447   9.913 -0.1241  0.1162  0.0748
  106loPI   PO4 1684   5.093   7.679   9.464  0.1289  0.0037 -0.2299
  106loPI   GL1 1685   4.867   7.751   9.074 -0.1888 -0.1015 -0.0188
  106loPI   GL2 1686   4.716   8.127   9.134  0.1834  0.0208  0.1346
  106loPI   C1A 1687   4.975   7.875   8.730  0.2169 -0.5203  0.0560
  106loPI   C2A 1688   5.050   8.124   8.395 -0.2156  0.1536  0.1646
  106loPI   C3A 1689   4.803   8.049   8.128 -0.2323 -0.0519  0.3215
  106loPI   C4A 1690   4.638   8.205   7.753  0.1170 -0.2318  0.3300
  106loPI   C5A 1691   4.326   8.307   7.466  0.0070  0.1721  0.1333
  106loPI   C6A 1692   3.964   8.412   7.225  0.0501 -0.3509  0.1834
  106loPI   C1B 1693   4.675   8.279   8.618  0.1304  0.2341 -0.3605
  106loPI   C2B 1694   4.524   8.397   8.338 -0.3118 -0.2134 -0.1320
  106loPI   C3B 1695   4.232   8.362   7.981 -0.2697 -0.0891  0.3867
  106loPI   C4B 1696   3.964   8.654   7.777  0.3540  0.0996 -0.1272
  107loPI    C1 1697  18.415   5.850   9.454 -0.0030  0.1461 -0.1580
  107loPI    C2 1698  18.207   5.568   9.647 -0.0548  0.0420 -0.3631
  107loPI    C3 1699  18.419   5.837   9.854 -0.1959 -0.0011 -0.1594
  107loPI   PO4 1700  18.338   5.821   9.182  0.0558 -0.0056  0.0907
  107loPI   GL1 1701  18.584   5.916   8.918 -0.1442 -0.0065  0.0700
  107loPI   GL2 1702  18.734   6.145   8.831 -0.1383 -0.0805  0.0850
  107loPI   C1A 1703  18.489   5.915   8.450  0.0488 -0.0716 -0.2514
  107loPI   C2A 1704  18.682   6.169   8.192  0.2144 -0.1991 -0.0254
  107loPI   C3A 1705  18.833   6.402   7.745  0.1004 -0.0980 -0.2491
  107loPI   C4A 1706  18.746   6.504   7.402  0.0421 -0.1139 -0.0134
  107loPI   C5A 1707  18.608   6.455   6.996  0.0320 -0.1625 -0.4292
  107loPI   C6A 1708  18.631   6.700   6.616  0.2172 -0.0938 -0.1022
  107loPI   C1B 1709  18.975   6.015   8.536  0.0672 -0.3119 -0.2074
  107loPI   C2B 1710  19.200   6.046   8.170 -0.2300 -0.1522 -0.1795
  107loPI   C3B 1711  19.277   6.085   7.748 -0.1947  0.1091 -0.0375
  107loPI   C4B 1712  19.288   6.446   7.436 -0.0973 -0.0694 -0.1296
  108loPI    C1 1713   4.269  12.645   9.975 -0.2694 -0.0121 -0.0436
  108loPI    C2 1714   4.316  12.432  10.310 -0.0076 -0.0852 -0.1242
  108loPI    C3 1715   4.212  12.818  10.332  0.2757 -0.0160  0.0538
  108loPI   PO4 1716   4.422  12.522   9.829 -0.0985 -0.1145  0.1790
  108loPI   GL1 1717   4.528  12.581   9.464  0.0342  0.1500 -0.0581
  108loPI   GL2 1718   4.842  12.438   9.208  0.1038 -0.3784  0.0863
  108loPI   C1A 1719   4.774  12.988   9.338 -0.2928  0.0743 -0.1208
  108loPI   C2A 1720   4.863  13.238   9.004 -0.0797  0.0442  0.1714
  108loPI   C3A 1721   4.798  13.531   8.656 -0.1219  0.1642  0.0653
  108loPI   C4A 1722   4.733  13.707   8.195  0.0043 -0.0596  0.2068
  108loPI   C5A 1723   4.709  13.523   7.731 -0.0894 -0.0397 -0.0237
  108loPI   C6A 1724   4.731  13.524   7.354 -0.0867  0.1482  0.2048
  108loPI   C1B 1725   4.963  12.438   8.788  0.2025  0.2112  0.1177
  108loPI   C2B 1726   4.740  12.260   8.418  0.0060 -0.0078  0.0910
  108loPI   C3B 1727   4.458  12.134   8.118 -0.1675  0.3124  0.0438
  108loPI   C4B 1728   4.459  12.396   7.847 -0.0607  0.2057 -0.1274
  109loPI    C1 1729   4.723   8.597  10.016  0.1111  0.0845 -0.0696
  109loPI    C2 1730   4.883   8.628  10.381  0.0617 -0.0368 -0.0371
  109loPI    C3 1731   4.493   8.549  10.340  0.1129 -0.2576 -0.1146
  109loPI   PO4 1732   4.962   8.731   9.865  0.3610 -0.0198 -0.0962
  109loPI   GL1 1733   5.145   8.753   9.550 -0.4332 -0.1172 -0.0018
  109loPI   GL2 1734   5.515   8.672   9.580 -0.1001 -0.2044 -0.0868
  109loPI   C1A 1735   5.253   8.907   9.189 -0.0783 -0.0501  0.2147
  109loPI   C2A 1736   5.456   8.947   8.867 -0.1500  0.0408 -0.0860
  109loPI   C3A 1737   5.423   8.970   8.450 -0.2724 -0.0975 -0.0077
  109loPI   C4A 1738   5.203   8.994   8.041 -0.2088 -0.0139 -0.1018
  109loPI   C5A 1739   5.298   8.850   7.669 -0.0261  0.2850 -0.0760
  109loPI   C6A 1740   5.319   8.652   7.308  0.1793 -0.1211  0.1668
  109loPI   C1B 1741   5.803   8.625   9.159 -0.1227 -0.2384  0.0190
  109loPI   C2B 1742   5.784   8.557   8.755  0.2004  0.1230 -0.2449
  109loPI   C3B 1743   5.796   8.635   8.374  0.2959 -0.0161  0.0788
  109loPI   C4B 1744   5.856   8.835   7.953  0.1051  0.0738  0.1682
  110loPI    C1 1745  17.237   9.280   9.568 -0.0213  0.0796 -0.1754
  110loPI    C2 1746  17.499   9.000   9.683 -0.0472  0.1127 -0.0350
  110loPI    C3 1747  17.530   9.373   9.824  0.1960  0.2707 -0.4864
  110loPI   PO4 1748  17.257   9.261   9.249 -0.0766  0.3822  0.0660
  110loPI   GL1 1749  17.006   9.280   8.906  0.1927  0.2333  0.3533
  110loPI   GL2 1750  16.686   9.089   8.957 -0.3438  0.1106  0.1307
  110loPI   C1A 1751  17.037   9.407   8.471 -0.0344  0.1817 -0.0771
  110loPI   C2A 1752  17.033   9.345   8.034  0.3620  0.2137 -0.0497
  110loPI   C3A 1753  17.087   9.217   7.652 -0.0187  0.2156  0.1555
  110loPI   C4A 1754  16.932   9.209   7.307 -0.0761 -0.3230 -0.0797
  110loPI   C5A 1755  16.737   9.510   7.014  0.2854  0.1350 -0.0540
  110loPI   C6A 1756  16.399   9.492   6.727 -0.2158 -0.0024  0.5453
  110loPI   C1B 1757  16.649   9.144   8.555 -0.1265  0.0935 -0.2276
  110loPI   C2B 1758  16.498   9.341   8.243 -0.0188 -0.0031 -0.1486
  110loPI   C3B 1759  16.618   9.747   8.087 -0.1640  0.2636 -0.2038
  110loPI   C4B 1760  16.683  10.198   8.189  0.0026 -0.3857  0.2574
  111loPI    C1 1761  11.721  11.898   9.944 -0.2517  0.0677  0.0491
  111loPI    C2 1762  11.530  11.810  10.285 -0.2440  0.4015  0.1440
  111loPI    C3 1763  11.619  12.190  10.198 -0.0657  0.2994 -0.1374
  111loPI   PO4 1764  11.537  11.798   9.794  0.1735 -0.0831 -0.1670
  111loPI   GL1 1765  11.271  11.896   9.509 -0.3121 -0.4038  0.0884
  111loPI   GL2 1766  11.571  12.001   9.335  0.2544  0.2469 -0.1632
  111loPI   C1A 1767  11.232  11.927   9.018 -0.1072  0.0648  0.0305
  111loPI   C2A 1768  10.990  12.201   8.784  0.0494  0.1757  0.0097
  111loPI   C3A 1769  10.655  12.120   8.542  0.0041 -0.1563  0.1905
  111loPI   C4A 1770  10.404  11.800   8.354  0.2888  0.0878  0.2874
  111loPI   C5A 1771  10.064  11.455   8.230  0.1995 -0.0818 -0.0137
  111loPI   C6A 1772  10.101  11.129   8.586  0.3076  0.4263 -0.0305
  111loPI   C1B 1773  11.706  11.850   8.929  0.0144  0.0462 -0.0742
  111loPI   C2B 1774  11.580  12.067   8.541 -0.2203 -0.0497  0.3011
  111loPI   C3B 1775  11.275  12.204   8.355 -0.2975  0.1366 -0.4019
  111loPI   C4B 1776  10.934  12.466   8.190 -0.0002  0.1949  0.0561
  112loPI    C1 1777  15.160  11.190   9.189 -0.0298  0.2174 -0.1517
  112loPI    C2 1778  15.329  11.392   9.490 -0.1001  0.3233 -0.1829
  112loPI    C3 1779  14.935  11.323   9.491 -0.0285 -0.1148 -0.0003
  112loPI   PO4 1780  15.230  11.345   8.949  0.0255 -0.1498  0.3494
  112loPI   GL1 1781  15.514  11.184   8.565 -0.1783 -0.0864 -0.0197
  112loPI   GL2 1782  15.330  10.978   8.674 -0.0408 -0.1455 -0.1751
  112loPI   C1A 1783  15.452  11.180   8.114 -0.0811  0.0366  0.0556
  112loPI   C2A 1784  14.999  11.285   7.884  0.2638 -0.1157 -0.1419
  112loPI   C3A 1785  14.951  11.357   7.492 -0.2974  0.2170 -0.0680
  112loPI   C4A 1786  14.984  11.434   7.089 -0.1147 -0.0938 -0.0176
  112loPI   C5A 1787  14.825  11.757   6.847  0.1038 -0.2101 -0.2496
  112loPI   C6A 1788  14.924  11.829   6.382  0.4940  0.0570 -0.2637
  112loPI   C1B 1789  15.053  10.912   8.312  0.3084  0.1498 -0.1673
  112loPI   C2B 1790  14.898  10.761   7.886  0.3493 -0.1714  0.0505
  112loPI   C3B 1791  14.787  10.858   7.375  0.0671 -0.0402 -0.1156
  112loPI   C4B 1792  14.731  11.014   6.915 -0.0422 -0.0838  0.1737
  113loPI    C1 1793   3.553  11.441   9.890  0.4008 -0.1245  0.2955
  113loPI    C2 1794   3.322  11.149  10.036  0.2260 -0.1000  0.0733
  113loPI    C3 1795   3.484  11.419  10.283 -0.1511  0.0037  0.2137
  113loPI   PO4 1796   3.463  11.488   9.662 -0.1331 -0.2987  0.0765
  113loPI   GL1 1797   3.427  11.716   9.384 -0.1644  0.0008 -0.2839
  113loPI   GL2 1798   3.704  11.854   9.318 -0.0492 -0.1765  0.2097
  113loPI   C1A 1799   3.260  11.677   9.088  0.1588 -0.0186  0.1342
  113loPI   C2A 1800   3.229  11.478   8.653  0.1678 -0.2104  0.1804
  113loPI   C3A 1801   3.289  11.536   8.198  0.1619  0.0331  0.0871
  113loPI   C4A 1802   3.289  11.407   7.716 -0.0708 -0.0989 -0.3803
  113loPI   C5A 1803   3.155  11.386   7.303 -0.0838  0.2469  0.2606
  113loPI   C6A 1804   3.004  11.310   6.909 -0.0111  0.0413 -0.0171
  113loPI   C1B 1805   3.965  12.065   8.947 -0.1085  0.0493 -0.0205
  113loPI   C2B 1806   4.283  12.303   8.574  0.1527 -0.1507 -0.2815
  113loPI   C3B 1807   4.481  12.639   8.278  0.1409  0.0820  0.3269
  113loPI   C4B 1808   4.971  12.641   8.062 -0.2878  0.0402 -0.0605
  114loPI    C1 1809  13.793   8.020   9.398  0.1692  0.0844 -0.0335
  114loPI    C2 1810  13.941   8.280   9.664 -0.0346 -0.0605  0.2271
  114loPI    C3 1811  13.797   7.928   9.788  0.0580 -0.2177 -0.1010
  114loPI   PO4 1812  13.722   8.141   9.165  0.0912  0.1522 -0.2152
  114loPI   GL1 1813  13.613   8.019   8.797  0.1072 -0.0312 -0.2722
  114loPI   GL2 1814  13.873   8.033   8.692  0.0985  0.1432  0.1058
  114loPI   C1A 1815  13.608   7.642   8.412 -0.2634 -0.0982 -0.5011
  114loPI   C2A 1816  13.677   7.507   8.003 -0.1856  0.1767 -0.1799
  114loPI   C3A 1817  13.719   7.251   7.664 -0.2507  0.3323  0.0553
  114loPI   C4A 1818  13.679   6.973   7.255  0.0241 -0.0617  0.2621
  114loPI   C5A 1819  13.820   6.660   7.124 -0.2579 -0.0556 -0.1254
  114loPI   C6A 1820  13.953   6.386   6.877  0.0814  0.0617  0.0487
  114loPI   C1B 1821  13.875   8.355   8.320 -0.0167  0.0380  0.1038
  114loPI   C2B 1822  14.247   8.545   8.098 -0.0230 -0.1971 -0.1066
  114loPI   C3B 1823  14.234   8.872   7.794 -0.1158 -0.5397 -0.0339
  114loPI   C4B 1824  14.342   9.166   7.337  0.1130  0.1000  0.0745
  115loPI    C1 1825  10.851   2.984   9.557 -0.3032  0.1585  0.0305
  115loPI    C2 1826  10.907   3.193   9.893  0.0097  0.0088  0.0747
  115loPI    C3 1827  10.978   2.800   9.888 -0.3866 -0.0653 -0.0601
  115loPI   PO4 1828  10.769   3.090   9.418  0.0280 -0.4073  0.1814
  115loPI   GL1 1829  10.639   3.049   9.035 -0.1015  0.3158  0.0208
  115loPI   GL2 1830  10.690   2.768   9.014 -0.1258  0.0307  0.2260
  115loPI   C1A 1831  10.620   3.071   8.587  0.1090  0.0791  0.2920
  115loPI   C2A 1832  10.636   3.006   8.089  0.2832  0.2823  0.1527
  115loPI   C3A 1833  10.717   3.116   7.673  0.1574  0.2844  0.0693
  115loPI   C4A 1834  10.921   3.227   7.365 -0.2360  0.1954  0.0184
  115loPI   C5A 1835  11.320   3.622   7.319 -0.0616 -0.0006  0.1392
  115loPI   C6A 1836  11.493   3.827   7.000 -0.0205  0.1001 -0.2554
  115loPI   C1B 1837  10.817   2.592   8.582  0.1731  0.1231 -0.4112
  115loPI   C2B 1838  10.926   2.434   8.209  0.1027 -0.0332 -0.0945
  115loPI   C3B 1839  11.161   2.294   7.809  0.2646  0.0595 -0.2275
  115loPI   C4B 1840  11.326   2.028   7.481  0.1845  0.2589 -0.0763
  116loPI    C1 1841   5.285   8.321   9.973 -0.0657  0.1026  0.1246
  116loPI    C2 1842   5.651   8.472  10.033  0.0976 -0.3297  0.2499
  116loPI    C3 1843   5.347   8.585  10.268  0.1479  0.0265  0.1491
  116loPI   PO4 1844   5.388   8.204   9.673  0.3004  0.3040  0.1218
  116loPI   GL1 1845   5.243   8.189   9.294 -0.2793  0.2094  0.0412
  116loPI   GL2 1846   5.314   7.962   9.135 -0.0938 -0.0770 -0.1835
  116loPI   C1A 1847   5.091   8.459   9.029 -0.2165 -0.0069  0.1535
  116loPI   C2A 1848   5.244   8.562   8.634  0.0428 -0.0171  0.1514
  116loPI   C3A 1849   5.379   8.545   8.113 -0.0102 -0.1844 -0.1874
  116loPI   C4A 1850   5.623   8.434   7.758  0.3821  0.1198 -0.3065
  116loPI   C5A 1851   5.707   8.152   7.406 -0.0733  0.0429 -0.2399
  116loPI   C6A 1852   5.725   7.741   7.194 -0.0895 -0.2694 -0.0847
  116loPI   C1B 1853   5.428   8.144   8.783 -0.0317 -0.2569 -0.2978
  116loPI   C2B 1854   5.590   8.181   8.414  0.2352 -0.2883 -0.2243
  116loPI   C3B 1855   5.537   7.854   8.095 -0.2765 -0.1389 -0.1062
  116loPI   C4B 1856   5.530   7.772   7.651  0.0002  0.2018 -0.0428
  117loPI    C1 1857  16.476   3.989   9.253 -0.0116  0.0974  0.0871
  117loPI    C2 1858  16.406   4.268   9.530 -0.0455  0.0079  0.1692
  117loPI    C3 1859  16.553   3.912   9.638  0.0212  0.0026  0.0619
  117loPI   PO4 1860  16.608   4.099   9.090  0.1575 -0.0230 -0.1279
  117loPI   GL1 1861  16.393   4.124   8.674 -0.0644  0.0147  0.1830
  117loPI   GL2 1862  16.698   3.931   8.630  0.0989 -0.0842 -0.1403
  117loPI   C1A 1863  16.335   4.201   8.213  0.0479  0.1236 -0.2472
  117loPI   C2A 1864  16.219   4.428   7.881  0.1234  0.0275  0.1671
  117loPI   C3A 1865  16.333   4.583   7.493 -0.0862  0.2082  0.0095
  117loPI   C4A 1866  16.516   4.783   7.079  0.1062  0.3039 -0.0480
  117loPI   C5A 1867  16.871   4.768   6.778  0.0277  0.3344 -0.0348
  117loPI   C6A 1868  17.291   4.578   6.641 -0.1190 -0.0213 -0.1864
  117loPI   C1B 1869  16.835   4.062   8.178 -0.2382  0.3699 -0.0277
  117loPI   C2B 1870  17.093   4.179   7.935  0.0768 -0.4342  0.1391
  117loPI   C3B 1871  17.220   4.124   7.440 -0.4245  0.2597  0.3022
  117loPI   C4B 1872  17.110   4.083   6.971 -0.1470 -0.1453  0.0817
  118loPI    C1 1873  16.767   1.224   9.513 -0.0045  0.0625  0.0555
  118loPI    C2 1874  16.815   0.830   9.561 -0.1289  0.0429  0.0228
  118loPI    C3 1875  16.870   1.077   9.871 -0.1995 -0.0142  0.0811
  118loPI   PO4 1876  16.807   1.315   9.157 -0.0283  0.0290  0.1569
  118loPI   GL1 1877  16.624   1.097   8.699 -0.0445 -0.1630  0.2933
  118loPI   GL2 1878  16.595   1.322   8.736  0.0438 -0.1174 -0.2520
  118loPI   C1A 1879  16.927   1.174   8.310  0.1869  0.3285  0.0617
  118loPI   C2A 1880  16.786   1.476   7.978  0.0969  0.2777 -0.0840
  118loPI   C3A 1881  16.540   1.649   7.579 -0.0912 -0.1251 -0.0810
  118loPI   C4A 1882  16.464   1.591   7.179  0.0323 -0.4254  0.1325
  118loPI   C5A 1883  16.679   1.388   6.962  0.1458  0.2057  0.1852
  118loPI   C6A 1884  17.096   1.130   6.856 -0.0709  0.2518  0.0253
  118loPI   C1B 1885  16.758   1.605   8.438  0.3825 -0.2128  0.1423
  118loPI   C2B 1886  17.252   1.520   8.318  0.0483 -0.0712 -0.1600
  118loPI   C3B 1887  17.451   1.107   8.230  0.0197  0.1066 -0.0841
  118loPI   C4B 1888  17.778   0.956   8.387  0.3410 -0.0143  0.0963
  119loPI    C1 1889   9.575  13.182   9.946  0.1033 -0.1105 -0.1077
  119loPI    C2 1890   9.902  13.307  10.139  0.0703  0.1771 -0.2331
  119loPI    C3 1891   9.573  13.535  10.135 -0.1803 -0.1687  0.0045
  119loPI   PO4 1892   9.619  13.195   9.637 -0.2113 -0.1303 -0.3323
  119loPI   GL1 1893   9.718  13.140   9.165  0.0498  0.3044 -0.1653
  119loPI   GL2 1894   9.809  13.476   9.277  0.2680  0.3463  0.3676
  119loPI   C1A 1895   9.668  13.008   8.771 -0.0401 -0.2855  0.2599
  119loPI   C2A 1896   9.584  12.883   8.322 -0.4330  0.1796 -0.3349
  119loPI   C3A 1897   9.487  12.869   7.924 -0.1359  0.1147  0.2955
  119loPI   C4A 1898   9.284  13.302   7.744  0.2007 -0.1701  0.0258
  119loPI   C5A 1899   9.218  13.678   7.511  0.0452 -0.1732 -0.1690
  119loPI   C6A 1900   9.392  13.777   7.116 -0.0237 -0.0024 -0.0995
  119loPI   C1B 1901   9.800  13.954   9.033  0.2739  0.1021 -0.0142
  119loPI   C2B 1902   9.767  14.066   8.650  0.1459  0.2965  0.1360
  119loPI   C3B 1903   9.707  14.063   8.203  0.2163  0.0832  0.0494
  119loPI   C4B 1904   9.763  14.203   7.776 -0.1866 -0.2676 -0.2482
  120loPI    C1 1905   7.907  16.879   9.685 -0.0509 -0.2854  0.0924
  120loPI    C2 1906   8.228  16.976   9.903 -0.0035  0.0269 -0.1095
  120loPI    C3 1907   8.133  16.592   9.847  0.3177 -0.0687 -0.0235
  120loPI   PO4 1908   7.928  17.036   9.469  0.1203  0.0183  0.0458
  120loPI   GL1 1909   8.216  17.168   9.025 -0.1016  0.0223 -0.0710
  120loPI   GL2 1910   8.050  16.908   8.949 -0.3753  0.1551 -0.1105
  120loPI   C1A 1911   8.219  17.345   8.592  0.1370  0.2287 -0.0636
  120loPI   C2A 1912   8.146  17.274   8.171  0.0119 -0.0236 -0.0391
  120loPI   C3A 1913   7.934  17.223   7.730  0.0053 -0.1729 -0.1568
  120loPI   C4A 1914   8.085  17.172   7.354 -0.2540  0.0261 -0.0706
  120loPI   C5A 1915   8.345  17.006   7.027  0.1485 -0.0444  0.2105
  120loPI   C6A 1916   8.632  17.306   6.857 -0.0697  0.1118 -0.0372
  120loPI   C1B 1917   8.181  16.850   8.548  0.1914 -0.0692  0.0411
  120loPI   C2B 1918   7.992  16.781   8.117 -0.0439 -0.0172 -0.1167
  120loPI   C3B 1919   7.763  16.721   7.711  0.0297 -0.1820 -0.2254
  120loPI   C4B 1920   7.631  16.984   7.442  0.2001 -0.2539 -0.1569
  121loPI    C1 1921   1.779   1.266  10.117 -0.0105  0.1231  0.0676
  121loPI    C2 1922   2.147   1.340  10.254 -0.0555  0.1422  0.1789
  121loPI    C3 1923   1.838   1.327  10.508 -0.1151  0.0138  0.1010
  121loPI   PO4 1924   1.766   1.401   9.900 -0.0748  0.0213 -0.0226
  121loPI   GL1 1925   1.830   1.297   9.396  0.2367 -0.3905  0.1099
  121loPI   GL2 1926   1.690   1.036   9.568 -0.0046  0.0255  0.0673
  121loPI   C1A 1927   2.131   1.157   9.022 -0.2796 -0.0246 -0.0236
  121loPI   C2A 1928   2.154   1.081   8.575  0.0633 -0.0183 -0.0040
  121loPI   C3A 1929   1.796   1.152   8.272 -0.1052 -0.1752  0.0843
  121loPI   C4A 1930   1.421   1.313   8.081  0.1472 -0.0253 -0.0909
  121loPI   C5A 1931   1.202   1.386   7.667 -0.1054  0.1342 -0.1444
  121loPI   C6A 1932   0.799   1.568   7.443 -0.1839 -0.0683 -0.0097
  121loPI   C1B 1933   1.456   0.980   9.176 -0.0144  0.1496 -0.1658
  121loPI   C2B 1934   1.441   1.054   8.669 -0.4498 -0.1898  0.2326
  121loPI   C3B 1935   1.432   0.805   8.357  0.0087 -0.0161  0.0141
  121loPI   C4B 1936   1.497   0.778   7.946  0.0721 -0.2439 -0.1346
  122loPI    C1 1937  11.639  15.679   9.406 -0.2930 -0.3777 -0.0045
  122loPI    C2 1938  11.567  16.018   9.606  0.0030 -0.2209 -0.1564
  122loPI    C3 1939  11.328  15.701   9.656 -0.0637 -0.1097  0.2652
  122loPI   PO4 1940  11.760  15.778   9.197 -0.0807  0.0535 -0.0744
  122loPI   GL1 1941  11.640  15.890   8.754 -0.0828 -0.1113 -0.0688
  122loPI   GL2 1942  11.569  16.155   8.583 -0.1881 -0.0806  0.0887
  122loPI   C1A 1943  11.841  15.548   8.485 -0.0861  0.1761  0.0439
  122loPI   C2A 1944  11.730  15.304   8.185 -0.1746 -0.0861  0.1326
  122loPI   C3A 1945  11.801  15.309   7.719  0.3164  0.1311 -0.0482
  122loPI   C4A 1946  11.592  15.296   7.272  0.1675 -0.1185  0.0055
  122loPI   C5A 1947  11.310  15.388   7.086 -0.2190  0.0018 -0.0875
  122loPI   C6A 1948  11.107  15.463   6.647  0.2426 -0.0381  0.1005
  122loPI   C1B 1949  11.425  15.934   8.254  0.0092  0.4282 -0.0339
  122loPI   C2B 1950  11.325  15.953   7.891  0.0495  0.1122 -0.1422
  122loPI   C3B 1951  11.482  16.206   7.402 -0.0713 -0.0325 -0.2060
  122loPI   C4B 1952  11.871  16.385   7.260  0.0740 -0.1435 -0.2731
  123loPI    C1 1953   1.586  10.831   9.659 -0.0349  0.1603 -0.1125
  123loPI    C2 1954   1.671  11.073   9.965  0.1061  0.0678 -0.0776
  123loPI    C3 1955   1.699  10.677  10.010 -0.0763  0.0460 -0.1489
  123loPI   PO4 1956   1.699  10.868   9.499 -0.2672  0.0625 -0.1119
  123loPI   GL1 1957   1.855  10.834   9.152  0.0487  0.0260 -0.0236
  123loPI   GL2 1958   2.002  11.100   9.009 -0.1416 -0.0074  0.0573
  123loPI   C1A 1959   1.579  10.690   8.826  0.0496  0.0353 -0.2090
  123loPI   C2A 1960   1.574  10.547   8.358  0.1612 -0.2608  0.0283
  123loPI   C3A 1961   1.727  10.502   7.898 -0.2515  0.0950  0.0287
  123loPI   C4A 1962   1.693  10.408   7.545  0.0074 -0.0477 -0.2177
  123loPI   C5A 1963   1.636  10.004   7.329  0.1420 -0.1187  0.0624
  123loPI   C6A 1964   1.594   9.907   6.928  0.1749  0.0989 -0.0334
  123loPI   C1B 1965   1.995  10.993   8.686  0.0865  0.1883  0.0933
  123loPI   C2B 1966   2.019  11.156   8.182  0.1168 -0.0210  0.3429
  123loPI   C3B 1967   2.168  11.234   7.757  0.1395 -0.0451  0.0401
  123loPI   C4B 1968   2.270  11.400   7.329 -0.2013 -0.1089 -0.0904
  124loPI    C1 1969   4.576  10.885  10.025  0.0617  0.1447 -0.1169
  124loPI    C2 1970   4.644  10.870  10.419 -0.0537 -0.0152 -0.1018
  124loPI    C3 1971   4.344  11.092  10.276 -0.0825 -0.0466 -0.0900
  124loPI   PO4 1972   4.552  10.584   9.947  0.1201 -0.0848 -0.0266
  124loPI   GL1 1973   4.555  10.459   9.517 -0.0383  0.0230 -0.2276
  124loPI   GL2 1974   4.477  10.800   9.493  0.0354  0.1183  0.0496
  124loPI   C1A 1975   4.843  10.523   9.072  0.1484 -0.0330 -0.1685
  124loPI   C2A 1976   4.727  10.335   8.724  0.0418 -0.0259 -0.2226
  124loPI   C3A 1977   4.950  10.473   8.345  0.0673 -0.1381 -0.1155
  124loPI   C4A 1978   5.030  10.554   7.875  0.0451  0.0316 -0.0839
  124loPI   C5A 1979   5.281  10.558   7.509 -0.2808  0.0024 -0.0496
  124loPI   C6A 1980   5.678  10.505   7.193  0.1209  0.0094 -0.0677
  124loPI   C1B 1981   4.342  11.154   9.199  0.1566 -0.0182 -0.3576
  124loPI   C2B 1982   4.261  11.280   8.799  0.1089  0.1724 -0.2894
  124loPI   C3B 1983   3.958  11.352   8.419 -0.1402  0.2051  0.2819
  124loPI   C4B 1984   3.727  11.436   7.993  0.0760  0.3150 -0.0068
  125loPI    C1 1985  15.310  13.320   9.096 -0.3778 -0.0561  0.2300
  125loPI    C2 1986  15.418  13.697   9.174 -0.1812 -0.1071  0.2104
  125loPI    C3 1987  15.611  13.394   9.350 -0.2098 -0.2036  0.0775
  125loPI   PO4 1988  15.285  13.301   8.832 -0.0033  0.0778 -0.1542
  125loPI   GL1 1989  15.462  13.365   8.490 -0.0838 -0.0420  0.0774
  125loPI   GL2 1990  15.335  13.106   8.285  0.3160  0.2526  0.1431
  125loPI   C1A 1991  15.472  13.675   8.151 -0.0666  0.1178  0.2489
  125loPI   C2A 1992  15.536  13.969   7.725  0.1166  0.0902 -0.2297
  125loPI   C3A 1993  15.318  14.057   7.358 -0.0611 -0.1224 -0.1178
  125loPI   C4A 1994  15.228  13.649   6.984  0.1263  0.1248  0.5457
  125loPI   C5A 1995  14.956  13.469   6.599  0.0640  0.1065  0.2328
  125loPI   C6A 1996  14.747  13.639   6.253  0.1741  0.3643  0.3319
  125loPI   C1B 1997  15.349  13.227   7.818  0.0877  0.1581  0.0592
  125loPI   C2B 1998  15.412  13.541   7.450 -0.2095  0.0228 -0.0695
  125loPI   C3B 1999  15.665  13.727   7.212 -0.2000  0.1887 -0.0498
  125loPI   C4B 2000  15.673  14.098   7.008 -0.0487  0.4314  0.2087
  126loPI    C1 2001   8.998   5.607   9.432  0.1983 -0.0206  0.0142
  126loPI    C2 2002   9.305   5.823   9.569 -0.0769  0.3032  0.1345
  126loPI    C3 2003   8.975   5.780   9.792 -0.0838 -0.1261  0.0502
  126loPI   PO4 2004   9.109   5.345   9.406 -0.2133  0.2069 -0.0027
  126loPI   GL1 2005   9.233   5.276   9.076  0.1221 -0.0960  0.0070
  126loPI   GL2 2006   9.366   5.538   9.026 -0.1488  0.1352  0.3717
  126loPI   C1A 2007   8.927   5.370   8.778  0.1229  0.3684  0.0621
  126loPI   C2A 2008   8.666   5.094   8.313 -0.1119  0.1066 -0.0771
  126loPI   C3A 2009   8.399   4.948   8.009  0.1703  0.1395 -0.0252
  126loPI   C4A 2010   8.040   4.997   7.752 -0.2498 -0.0119  0.0872
  126loPI   C5A 2011   7.823   5.058   7.368  0.2864 -0.2302  0.1712
  126loPI   C6A 2012   7.818   4.768   7.085 -0.1099 -0.1695  0.3879
  126loPI   C1B 2013   9.417   5.378   8.638 -0.0329  0.1886  0.1657
  126loPI   C2B 2014   9.480   5.449   8.221  0.0699 -0.0657  0.0470
  126loPI   C3B 2015   9.605   5.228   7.805  0.2773 -0.1968 -0.0269
  126loPI   C4B 2016   9.681   5.165   7.456 -0.3490  0.1504  0.0999
  127loPI    C1 2017   9.457   9.819  10.002  0.0277  0.0776 -0.1688
  127loPI    C2 2018   9.666   9.518  10.162  0.0503  0.2250  0.0857
  127loPI    C3 2019   9.592   9.846  10.378 -0.0753  0.3539 -0.1491
  127loPI   PO4 2020   9.613   9.865   9.768  0.3164  0.2040  0.2258
  127loPI   GL1 2021   9.392   9.846   9.366  0.2126  0.0539  0.4056
  127loPI   GL2 2022   9.422   9.509   9.362  0.1201  0.0569  0.4111
  127loPI   C1A 2023   9.222   9.734   8.932  0.3473 -0.3438 -0.0958
  127loPI   C2A 2024   8.809   9.764   8.625 -0.0729 -0.1004 -0.3022
  127loPI   C3A 2025   8.531   9.641   8.240  0.0226  0.0879 -0.0817
  127loPI   C4A 2026   8.352   9.639   7.835  0.0974 -0.2298 -0.0439
  127loPI   C5A 2027   8.166   9.823   7.446 -0.0174 -0.0557 -0.1581
  127loPI   C6A 2028   8.213  10.119   7.117  0.1348 -0.1679 -0.1252
  127loPI   C1B 2029   9.423   9.248   9.075  0.1387 -0.3690  0.0696
  127loPI   C2B 2030   9.626   9.085   8.653 -0.1875 -0.0715  0.2245
  127loPI   C3B 2031   9.820   9.252   8.352 -0.1621 -0.1438  0.1281
  127loPI   C4B 2032  10.015   9.525   8.037  0.0296  0.1318  0.1086
  128loPI    C1 2033  12.039   9.365   9.403  0.1019  0.0402 -0.0474
  128loPI    C2 2034  12.160   9.307   9.780 -0.0398  0.0527  0.0008
  128loPI    C3 2035  11.827   9.129   9.647 -0.1534  0.2833 -0.0287
  128loPI   PO4 2036  12.279   9.356   9.272  0.0569  0.1979  0.0737
  128loPI   GL1 2037  12.245   9.319   8.835  0.1888  0.1107 -0.2439
  128loPI   GL2 2038  11.987   9.557   8.858 -0.2558 -0.0577  0.1565
  128loPI   C1A 2039  12.410   9.261   8.500  0.0345  0.0663  0.0796
  128loPI   C2A 2040  12.466   9.412   8.212 -0.0797 -0.2860  0.3300
  128loPI   C3A 2041  12.409   9.500   7.802 -0.1783 -0.0538 -0.0074
  128loPI   C4A 2042  12.422   9.876   7.493  0.2470  0.3249 -0.0454
  128loPI   C5A 2043  12.171  10.202   7.125  0.0293 -0.1285  0.0395
  128loPI   C6A 2044  11.941  10.029   6.755  0.0893  0.3351 -0.2174
  128loPI   C1B 2045  11.915   9.620   8.474 -0.1190 -0.2210 -0.0049
  128loPI   C2B 2046  11.908   9.519   8.101  0.1307 -0.2653  0.2037
  128loPI   C3B 2047  11.950   9.814   7.795 -0.0081 -0.1957  0.0103
  128loPI   C4B 2048  11.828   9.801   7.387  0.2675  0.2951  0.0162
  129loPI    C1 2049   2.078  19.337  10.291 -0.1274 -0.0092 -0.0811
  129loPI    C2 2050   2.172  18.949  10.277 -0.2201 -0.0437  0.1822
  129loPI    C3 2051   1.941  19.087  10.572  0.0727  0.2685  0.2710
  129loPI   PO4 2052   2.312  19.396  10.126  0.0100 -0.1354  0.2344
  129loPI   GL1 2053   2.291  19.477   9.609 -0.0210  0.0038  0.1442
  129loPI   GL2 2054   2.480  19.279   9.501  0.2133  0.1542  0.3669
  129loPI   C1A 2055   2.201  19.668   9.201  0.0691 -0.0856 -0.0177
  129loPI   C2A 2056   1.989  19.767   8.868  0.1961  0.1454 -0.2277
  129loPI   C3A 2057   1.962  19.918   8.477 -0.0241 -0.7124 -0.1153
  129loPI   C4A 2058   2.185  20.090   8.112 -0.3520 -0.2953  0.1554
  129loPI   C5A 2059   2.276  20.225   7.685 -0.1603  0.2301  0.0684
  129loPI   C6A 2060   2.327  20.302   7.274  0.2549 -0.3313  0.0856
  129loPI   C1B 2061   2.421  19.289   8.949  0.1965 -0.2806 -0.0809
  129loPI   C2B 2062   2.350  19.543   8.581 -0.1799  0.1899 -0.1275
  129loPI   C3B 2063   2.421  19.673   8.205  0.0616 -0.1111  0.3962
  129loPI   C4B 2064   2.560  19.803   7.835  0.0241 -0.1744 -0.0749
  130loPI    C1 2065  17.714   6.196   9.462  0.1121  0.0462 -0.1391
  130loPI    C2 2066  18.064   6.146   9.648  0.0901  0.0441 -0.0983
  130loPI    C3 2067  17.763   6.331   9.835  0.0089 -0.1211 -0.0641
  130loPI   PO4 2068  17.808   6.248   9.162 -0.0443 -0.4194  0.0203
  130loPI   GL1 2069  17.604   6.307   8.796  0.1938 -0.1065  0.2291
  130loPI   GL2 2070  17.318   6.281   8.545  0.2837  0.0357 -0.0895
  130loPI   C1A 2071  17.840   5.831   8.552  0.2599  0.0986  0.2832
  130loPI   C2A 2072  17.720   5.446   8.387 -0.2205 -0.1586 -0.1554
  130loPI   C3A 2073  17.591   5.171   8.076  0.0032 -0.2533  0.1869
  130loPI   C4A 2074  17.489   5.107   7.670  0.2399 -0.0715 -0.1103
  130loPI   C5A 2075  17.724   5.200   7.220 -0.1619  0.3845 -0.1847
  130loPI   C6A 2076  17.897   5.688   6.969 -0.2813 -0.0443  0.1654
  130loPI   C1B 2077  17.084   6.520   8.170  0.0161 -0.0786  0.1724
  130loPI   C2B 2078  17.201   6.649   7.726 -0.0380 -0.3055  0.0222
  130loPI   C3B 2079  17.530   6.820   7.418 -0.0188 -0.4981  0.2816
  130loPI   C4B 2080  17.560   6.698   6.999 -0.0919  0.0359  0.1317
  131loPI    C1 2081   1.241   1.574   9.663  0.2471  0.2219 -0.1712
  131loPI    C2 2082   1.407   1.735   9.990  0.0274  0.1452 -0.0196
  131loPI    C3 2083   1.299   1.350   9.990 -0.1981  0.2068 -0.0968
  131loPI   PO4 2084   1.390   1.594   9.470  0.0672  0.0416 -0.2023
  131loPI   GL1 2085   1.413   1.578   9.166  0.0512  0.1497 -0.1625
  131loPI   GL2 2086   1.700   1.531   8.960 -0.3595  0.2076  0.4361
  131loPI   C1A 2087   1.236   1.460   8.884  0.0062 -0.2786 -0.1143
  131loPI   C2A 2088   1.010   1.732   8.633  0.0119  0.0974  0.0062
  131loPI   C3A 2089   0.607   1.723   8.513 -0.1800 -0.0028  0.1973
  131loPI   C4A 2090   0.475   1.870   8.032  0.3975  0.0006 -0.1929
  131loPI   C5A 2091   0.225   2.122   7.829 -0.3238 -0.0518 -0.0105
  131loPI   C6A 2092  -0.138   2.209   7.849  0.0874  0.1253 -0.0198
  131loPI   C1B 2093   1.662   1.530   8.514  0.1049 -0.4411  0.1076
  131loPI   C2B 2094   1.403   1.787   8.170 -0.0249 -0.3145 -0.1210
  131loPI   C3B 2095   1.208   1.940   7.717 -0.0323 -0.1692 -0.3650
  131loPI   C4B 2096   0.798   2.153   7.607  0.0110  0.0273 -0.0564
  132loPI    C1 2097   1.210  10.098   9.571  0.3220  0.0001  0.0469
  132loPI    C2 2098   1.200  10.493   9.632 -0.0760 -0.0100  0.0714
  132loPI    C3 2099   1.451  10.265   9.843  0.1461  0.2256  0.0674
  132loPI   PO4 2100   1.174  10.055   9.345 -0.1324  0.1913  0.3230
  132loPI   GL1 2101   1.102   9.780   8.993 -0.2325  0.0004  0.2589
  132loPI   GL2 2102   0.794   9.979   8.718 -0.0212 -0.0700 -0.0233
  132loPI   C1A 2103   1.095   9.584   8.578  0.0602 -0.2763 -0.0731
  132loPI   C2A 2104   1.117   9.737   8.143  0.2816  0.2134  0.0466
  132loPI   C3A 2105   1.141   9.752   7.685 -0.0232 -0.1956 -0.2662
  132loPI   C4A 2106   1.122   9.817   7.314 -0.4011 -0.0174 -0.1825
  132loPI   C5A 2107   1.097  10.044   6.988  0.0716  0.0741 -0.0583
  132loPI   C6A 2108   0.947  10.078   6.618 -0.0267  0.2709 -0.0960
  132loPI   C1B 2109   0.726   9.980   8.284  0.0536 -0.0441 -0.2593
  132loPI   C2B 2110   0.751   9.958   7.891 -0.1575  0.1743  0.0372
  132loPI   C3B 2111   0.700  10.048   7.502  0.0245  0.3325 -0.0852
  132loPI   C4B 2112   0.637  10.128   7.079 -0.2097 -0.0361  0.1055
  133loPI    C1 2113  18.001  19.827   9.705  0.0769 -0.0210  0.1609
  133loPI    C2 2114  18.343  19.907   9.896  0.0197  0.1046  0.2118
  133loPI    C3 2115  18.168  19.551   9.942  0.0494  0.1044  0.3281
  133loPI   PO4 2116  17.948  19.854   9.441  0.0129 -0.0218  0.3156
  133loPI   GL1 2117  18.088  19.775   9.039 -0.1463 -0.2358  0.2140
  133loPI   GL2 2118  17.893  19.675   8.881  0.0294 -0.0961  0.0030
  133loPI   C1A 2119  18.148  20.039   8.606  0.1746  0.0014 -0.1230
  133loPI   C2A 2120  18.115  19.941   8.136 -0.0075 -0.1688  0.3359
  133loPI   C3A 2121  18.319  20.030   7.835  0.0484  0.0489 -0.1831
  133loPI   C4A 2122  18.516  20.202   7.386  0.1094 -0.2904  0.0132
  133loPI   C5A 2123  18.536  20.013   7.003  0.3475 -0.1730 -0.1833
  133loPI   C6A 2124  18.612  20.008   6.580 -0.0890  0.1855 -0.5061
  133loPI   C1B 2125  17.803  19.697   8.419  0.2407  0.1724  0.4003
  133loPI   C2B 2126  17.647  19.829   8.048 -0.3264  0.1260 -0.0429
  133loPI   C3B 2127  17.448  19.767   7.730 -0.1298 -0.2044  0.1582
  133loPI   C4B 2128  17.432  19.779   7.349  0.2682  0.0056 -0.2311
  134loPI    C1 2129  11.315   3.123   9.607 -0.0443 -0.0140  0.0659
  134loPI    C2 2130  11.625   3.293   9.795 -0.0207 -0.0012  0.0156
  134loPI    C3 2131  11.452   2.966   9.949 -0.1226  0.1193  0.1594
  134loPI   PO4 2132  11.213   3.317   9.500  0.4389 -0.1626 -0.0173
  134loPI   GL1 2133  11.218   3.555   9.085 -0.0215  0.0178 -0.2018
  134loPI   GL2 2134  10.965   3.371   9.056 -0.0486  0.0590  0.1896
  134loPI   C1A 2135  11.125   3.841   8.761  0.2259 -0.2787 -0.0942
  134loPI   C2A 2136  11.055   3.855   8.309  0.1184  0.4652  0.3345
  134loPI   C3A 2137  10.876   3.797   7.919 -0.0874  0.2603 -0.4177
  134loPI   C4A 2138  10.822   3.681   7.416  0.0470  0.1279 -0.2198
  134loPI   C5A 2139  10.609   3.574   7.049 -0.0152  0.2238 -0.2019
  134loPI   C6A 2140  10.455   3.140   6.977 -0.0740  0.2213 -0.0031
  134loPI   C1B 2141  11.053   3.377   8.567  0.1414  0.1704  0.0698
  134loPI   C2B 2142  10.996   3.297   8.210  0.0599  0.6247  0.2142
  134loPI   C3B 2143  11.136   3.362   7.769  0.0378  0.1239 -0.0052
  134loPI   C4B 2144  11.395   3.108   7.446 -0.1691 -0.1056  0.0091
  135loPI    C1 2145   9.056   1.446   9.869  0.3294  0.3224 -0.0212
  135loPI    C2 2146   8.890   1.329  10.214  0.3242  0.1122 -0.0937
  135loPI    C3 2147   9.046   1.695  10.182  0.1231  0.2136  0.0611
  135loPI   PO4 2148   9.242   1.267   9.738  0.0775 -0.0842  0.1837
  135loPI   GL1 2149   9.336   1.233   9.280 -0.1415  0.1904 -0.0603
  135loPI   GL2 2150   9.617   1.060   9.240  0.0767 -0.1146 -0.0831
  135loPI   C1A 2151   9.267   1.169   8.935 -0.1411  0.0781 -0.1908
  135loPI   C2A 2152   9.082   1.315   8.600 -0.1235 -0.0960  0.0047
  135loPI   C3A 2153   8.886   1.599   8.286  0.1980 -0.1878  0.1365
  135loPI   C4A 2154   9.110   1.867   8.080  0.0207  0.0743  0.0944
  135loPI   C5A 2155   9.242   1.931   7.730  0.0783  0.1476  0.0094
  135loPI   C6A 2156   9.192   2.125   7.282  0.1022 -0.0127 -0.0535
  135loPI   C1B 2157   9.870   0.985   8.925  0.0330  0.1363 -0.1816
  135loPI   C2B 2158   9.572   0.913   8.518  0.1937 -0.1768  0.1908
  135loPI   C3B 2159   9.308   1.037   8.191  0.1705 -0.1610  0.2424
  135loPI   C4B 2160   8.848   1.159   7.994 -0.1423  0.3217 -0.0398
  136loPI    C1 2161   6.213  12.634   9.859 -0.1949 -0.4284 -0.3090
  136loPI    C2 2162   6.084  12.395  10.153 -0.1862  0.2483  0.2713
  136loPI    C3 2163   6.467  12.510  10.142 -0.1786  0.2015 -0.0295
  136loPI   PO4 2164   6.154  12.587   9.645  0.0835 -0.1477 -0.1541
  136loPI   GL1 2165   6.296  12.660   9.306  0.0988  0.0448 -0.0423
  136loPI   GL2 2166   6.220  13.003   9.442 -0.1264  0.0150  0.3130
  136loPI   C1A 2167   6.415  12.333   8.990 -0.0864 -0.0225 -0.2532
  136loPI   C2A 2168   6.749  12.007   8.890 -0.0304 -0.2574  0.0596
  136loPI   C3A 2169   6.720  11.763   8.537 -0.0414  0.3795  0.0386
  136loPI   C4A 2170   6.486  11.743   8.130 -0.0593 -0.0141 -0.3643
  136loPI   C5A 2171   6.461  11.833   7.646  0.1717 -0.2229  0.1662
  136loPI   C6A 2172   6.902  11.903   7.461 -0.0570 -0.0246 -0.1015
  136loPI   C1B 2173   6.313  13.139   8.978  0.1892 -0.0167  0.0190
  136loPI   C2B 2174   6.091  13.152   8.660 -0.0444  0.0319  0.2045
  136loPI   C3B 2175   5.793  13.409   8.404  0.2230 -0.0049 -0.1783
  136loPI   C4B 2176   5.659  13.472   7.926  0.3678  0.0670 -0.3578
  137loPI    C1 2177   8.356  11.774  10.003  0.2893 -0.0297 -0.0519
  137loPI    C2 2178   8.385  11.455  10.243 -0.0459  0.1721  0.2661
  137loPI    C3 2179   8.464  11.820  10.386  0.3855  0.2328 -0.1089
  137loPI   PO4 2180   8.102  11.766   9.775  0.1807  0.3664  0.0637
  137loPI   GL1 2181   8.156  11.777   9.421  0.1495 -0.2114  0.1034
  137loPI   GL2 2182   8.513  11.735   9.370  0.1506 -0.1702  0.0490
  137loPI   C1A 2183   8.253  12.061   8.955 -0.1324 -0.0801  0.0116
  137loPI   C2A 2184   8.326  12.156   8.513 -0.1198  0.1241  0.0046
  137loPI   C3A 2185   8.117  12.113   8.191  0.0158 -0.0287 -0.1321
  137loPI   C4A 2186   8.097  11.883   7.811  0.1880  0.0083  0.0275
  137loPI   C5A 2187   7.862  11.643   7.489 -0.1562 -0.0426 -0.2580
  137loPI   C6A 2188   7.674  11.368   7.191  0.1226  0.1442  0.1696
  137loPI   C1B 2189   8.526  11.658   8.973  0.3093  0.0139 -0.1498
  137loPI   C2B 2190   8.640  11.533   8.611 -0.4006  0.1268  0.3200
  137loPI   C3B 2191   8.670  11.265   8.327 -0.1440  0.0967  0.1642
  137loPI   C4B 2192   8.438  10.943   8.177  0.0486  0.0221  0.0699
  138loPI    C1 2193   9.936   8.124   9.991  0.2095 -0.0295  0.0204
  138loPI    C2 2194  10.072   8.431  10.207 -0.0637  0.1487 -0.0558
  138loPI    C3 2195  10.123   8.057  10.338 -0.0590  0.2446  0.2230
  138loPI   PO4 2196   9.950   8.133   9.768 -0.2190 -0.0824  0.2316
  138loPI   GL1 2197  10.148   8.182   9.440  0.0207 -0.0806 -0.0995
  138loPI   GL2 2198  10.279   7.952   9.096  0.2304 -0.0074  0.0071
  138loPI   C1A 2199  10.132   8.434   9.089 -0.1741 -0.1679  0.2302
  138loPI   C2A 2200  10.009   8.678   8.642 -0.0322 -0.3892 -0.3674
  138loPI   C3A 2201  10.193   8.960   8.425 -0.0137 -0.0155 -0.0861
  138loPI   C4A 2202  10.153   9.048   8.017 -0.0794  0.2263 -0.0307
  138loPI   C5A 2203  10.256   9.249   7.669 -0.2135 -0.0646 -0.1212
  138loPI   C6A 2204  10.509   9.611   7.455  0.1939 -0.0756 -0.1411
  138loPI   C1B 2205  10.185   7.859   8.693 -0.0551  0.1634  0.2046
  138loPI   C2B 2206  10.171   7.864   8.178  0.2294 -0.0221 -0.1582
  138loPI   C3B 2207  10.051   7.830   7.811 -0.0448  0.1387 -0.2462
  138loPI   C4B 2208   9.985   7.592   7.414  0.1184 -0.2548 -0.0580
  139loPI    C1 2209  15.232   2.513   9.043  0.0770 -0.0832  0.0598
  139loPI    C2 2210  15.591   2.665   8.955  0.3089 -0.5432  0.1780
  139loPI    C3 2211  15.459   2.669   9.333  0.0677 -0.1376  0.0964
  139loPI   PO4 2212  15.132   2.423   8.811  0.0906 -0.1531  0.0347
  139loPI   GL1 2213  15.217   2.568   8.465 -0.4819  0.0716  0.0494
  139loPI   GL2 2214  15.055   2.829   8.375  0.0676  0.4126  0.2285
  139loPI   C1A 2215  15.539   2.578   8.056 -0.3228 -0.1363  0.0339
  139loPI   C2A 2216  15.845   2.722   7.789  0.2762 -0.4050  0.1147
  139loPI   C3A 2217  15.885   3.020   7.424  0.3062  0.0942 -0.0253
  139loPI   C4A 2218  16.016   3.112   7.054  0.2155  0.2176 -0.0348
  139loPI   C5A 2219  16.236   3.218   6.717  0.1198 -0.1457  0.1264
  139loPI   C6A 2220  16.264   3.345   6.320 -0.0743  0.1175  0.0795
  139loPI   C1B 2221  15.020   2.744   8.025 -0.4308 -0.0797 -0.2950
  139loPI   C2B 2222  14.931   2.752   7.649 -0.1918 -0.2748  0.0493
  139loPI   C3B 2223  14.877   2.797   7.234  0.0602 -0.1694  0.1719
  139loPI   C4B 2224  14.716   2.685   6.703 -0.4347 -0.2522 -0.4822
  140loPI    C1 2225  19.701  14.976   9.280 -0.0437  0.1759 -0.0784
  140loPI    C2 2226  19.879  15.242   9.520  0.2386  0.0821 -0.1798
  140loPI    C3 2227  19.974  14.854   9.545 -0.0794  0.0051 -0.1188
  140loPI   PO4 2228  19.701  15.237   8.999  0.0491  0.2292  0.0127
  140loPI   GL1 2229  19.573  15.228   8.593 -0.0253  0.0066 -0.0581
  140loPI   GL2 2230  19.850  15.530   8.513 -0.0516 -0.1981  0.0263
  140loPI   C1A 2231  19.561  14.948   8.139  0.1946  0.2323 -0.0828
  140loPI   C2A 2232  19.586  15.048   7.706  0.0949  0.5795  0.0324
  140loPI   C3A 2233  19.542  15.006   7.306 -0.1011  0.1658 -0.1664
  140loPI   C4A 2234  19.659  15.102   7.005 -0.1339 -0.0922  0.1040
  140loPI   C5A 2235  20.014  15.296   6.885 -0.3217  0.1020  0.0691
  140loPI   C6A 2236  20.298  15.251   6.656  0.0473 -0.2806 -0.0021
  140loPI   C1B 2237  19.890  15.417   8.007 -0.0233 -0.1014 -0.3764
  140loPI   C2B 2238  19.670  15.536   7.724  0.0984 -0.1268 -0.0490
  140loPI   C3B 2239  19.327  15.875   7.823 -0.0876  0.1505  0.1766
  140loPI   C4B 2240  18.936  15.751   7.728 -0.1449 -0.2937 -0.2167
  141loPI    C1 2241   6.817  12.425   9.798 -0.1280 -0.2880  0.1780
  141loPI    C2 2242   6.951  12.644  10.104  0.1078  0.1581 -0.2318
  141loPI    C3 2243   7.175  12.346   9.959 -0.0269 -0.0878  0.0554
  141loPI   PO4 2244   6.679  12.591   9.661  0.0047  0.1532 -0.1387
  141loPI   GL1 2245   6.723  12.967   9.391  0.2004  0.1904 -0.0952
  141loPI   GL2 2246   6.876  12.705   9.225 -0.1659  0.2048 -0.1616
  141loPI   C1A 2247   6.832  13.301   9.030 -0.0739  0.0755 -0.0349
  141loPI   C2A 2248   7.027  13.542   8.706  0.2600  0.1353  0.0951
  141loPI   C3A 2249   7.436  13.683   8.589  0.0224 -0.2873 -0.2424
  141loPI   C4A 2250   7.596  13.877   8.230 -0.1078  0.1619  0.2628
  141loPI   C5A 2251   7.563  13.712   7.831 -0.1499 -0.2004 -0.3936
  141loPI   C6A 2252   7.337  13.521   7.425 -0.4601  0.1939  0.2759
  141loPI   C1B 2253   6.732  12.780   8.907  0.0789  0.0548  0.0975
  141loPI   C2B 2254   6.669  13.099   8.620 -0.0388 -0.1051 -0.3095
  141loPI   C3B 2255   6.729  13.141   8.148 -0.0022  0.1551  0.0203
  141loPI   C4B 2256   6.550  13.401   7.925 -0.0737 -0.1780  0.1344
  142loPI    C1 2257  16.601  14.229   9.260  0.2336  0.2609 -0.0639
  142loPI    C2 2258  16.872  13.978   9.413 -0.1365 -0.2809 -0.2666
  142loPI    C3 2259  16.642  14.196   9.657  0.3254  0.0257 -0.0913
  142loPI   PO4 2260  16.683  14.225   9.006 -0.0164  0.2563  0.2095
  142loPI   GL1 2261  16.522  14.253   8.538 -0.0059  0.5333  0.0892
  142loPI   GL2 2262  16.199  14.405   8.513 -0.3341  0.0906 -0.0394
  142loPI   C1A 2263  16.395  14.280   8.071 -0.2415 -0.2995 -0.2690
  142loPI   C2A 2264  16.069  14.448   7.771 -0.0360 -0.0988 -0.2656
  142loPI   C3A 2265  15.735  14.394   7.479  0.1814 -0.1507 -0.2527
  142loPI   C4A 2266  15.700  14.579   7.047 -0.0300  0.0177 -0.1360
  142loPI   C5A 2267  15.580  14.950   6.823  0.2084  0.1814  0.1776
  142loPI   C6A 2268  15.249  15.237   6.646  0.0608 -0.4868 -0.1745
  142loPI   C1B 2269  16.334  14.793   8.208 -0.0478 -0.2287 -0.0806
  142loPI   C2B 2270  16.194  15.092   7.994  0.1313 -0.0462 -0.1396
  142loPI   C3B 2271  16.263  15.337   7.720  0.3288  0.2522 -0.0270
  142loPI   C4B 2272  16.339  15.650   7.427  0.1913 -0.1538  0.0115
  143loPI    C1 2273  18.529   4.017   9.252  0.0775 -0.2255  0.0189
  143loPI    C2 2274  18.569   4.091   9.643  0.0936  0.3253 -0.0789
  143loPI    C3 2275  18.206   4.031   9.487  0.1109 -0.1938  0.0632
  143loPI   PO4 2276  18.769   3.935   9.198  0.3042  0.1016  0.3068
  143loPI   GL1 2277  19.148   4.017   8.899 -0.2128  0.1006  0.0047
  143loPI   GL2 2278  19.390   4.269   8.959 -0.2735 -0.1254  0.2004
  143loPI   C1A 2279  19.081   3.834   8.485 -0.2428 -0.0885 -0.1277
  143loPI   C2A 2280  18.832   4.078   8.231 -0.3806  0.2107 -0.1485
  143loPI   C3A 2281  18.756   4.254   7.953 -0.1497 -0.1167  0.1073
  143loPI   C4A 2282  18.759   4.452   7.601  0.0496 -0.0452  0.0561
  143loPI   C5A 2283  18.665   4.656   7.190 -0.0321  0.1297  0.2068
  143loPI   C6A 2284  18.283   4.573   6.974 -0.1302  0.1809  0.0623
  143loPI   C1B 2285  19.541   4.197   8.624  0.0934 -0.1676 -0.3887
  143loPI   C2B 2286  19.357   4.231   8.258 -0.3416 -0.3301 -0.1753
  143loPI   C3B 2287  19.279   3.885   7.932 -0.0168  0.0314 -0.0025
  143loPI   C4B 2288  19.321   3.936   7.512 -0.1006  0.4489  0.1676
  144loPI    C1 2289  12.063   0.422   9.720 -0.1676 -0.0177  0.2257
  144loPI    C2 2290  11.737   0.523   9.929 -0.2768 -0.0299  0.0633
  144loPI    C3 2291  11.982   0.807   9.789 -0.3637 -0.0077 -0.0447
  144loPI   PO4 2292  11.910   0.234   9.513 -0.3078  0.0740 -0.2826
  144loPI   GL1 2293  12.037   0.077   8.942  0.1511  0.1033 -0.2473
  144loPI   GL2 2294  12.180   0.275   8.818  0.0942 -0.3077 -0.0068
  144loPI   C1A 2295  11.910   0.068   8.459 -0.0644 -0.2552  0.0514
  144loPI   C2A 2296  11.743  -0.093   8.059 -0.1804  0.2609 -0.0846
  144loPI   C3A 2297  11.773  -0.082   7.632 -0.3764  0.0230 -0.3283
  144loPI   C4A 2298  11.653  -0.179   7.253  0.2892  0.2177 -0.3141
  144loPI   C5A 2299  11.758  -0.348   6.944 -0.5335 -0.1251  0.2848
  144loPI   C6A 2300  12.017  -0.721   7.145 -0.1919 -0.0265 -0.1377
  144loPI   C1B 2301  12.434   0.574   8.554 -0.1829 -0.1414  0.0255
  144loPI   C2B 2302  12.744   0.512   8.251 -0.0080 -0.1758  0.1116
  144loPI   C3B 2303  13.076   0.729   7.962  0.2749 -0.0811 -0.1898
  144loPI   C4B 2304  13.167   1.088   7.699 -0.3040 -0.3564  0.1037
  145loPI    C1 2305  16.308   7.404   8.982 -0.0215  0.2601 -0.0724
  145loPI    C2 2306  16.178   7.470   9.355  0.1258 -0.0981  0.0462
  145loPI    C3 2307  16.558   7.550   9.259  0.0942 -0.0288 -0.0215
  145loPI   PO4 2308  16.079   7.580   8.802 -0.1569  0.2999 -0.0431
  145loPI   GL1 2309  15.916   7.469   8.314  0.1533  0.2688  0.0360
  145loPI   GL2 2310  15.541   7.417   8.286  0.3032 -0.0928 -0.1467
  145loPI   C1A 2311  15.799   7.502   7.855 -0.3461  0.0312  0.1340
  145loPI   C2A 2312  15.873   7.468   7.422 -0.0412 -0.2131  0.0280
  145loPI   C3A 2313  15.948   7.492   6.914 -0.1862  0.2790 -0.4271
  145loPI   C4A 2314  16.273   7.263   6.702 -0.1421 -0.3945 -0.2637
  145loPI   C5A 2315  16.716   7.187   6.597 -0.0381  0.1982  0.2520
  145loPI   C6A 2316  17.161   6.996   6.661 -0.2486 -0.0931 -0.1150
  145loPI   C1B 2317  15.145   7.610   8.143 -0.3623  0.0462 -0.0155
  145loPI   C2B 2318  14.883   7.822   7.831 -0.2201 -0.2594  0.0962
  145loPI   C3B 2319  14.462   7.991   7.949  0.1211  0.2911  0.0863
  145loPI   C4B 2320  13.994   7.917   8.122 -0.1594  0.0168  0.1739
  146loPI    C1 2321  10.481   6.648   9.756 -0.2608 -0.0923  0.0654
  146loPI    C2 2322  10.231   6.395   9.939 -0.6160  0.0661 -0.1903
  146loPI    C3 2323  10.112   6.767   9.853 -0.2790  0.1542 -0.2898
  146loPI   PO4 2324  10.567   6.491   9.525  0.3110 -0.0494  0.0743
  146loPI   GL1 2325  10.339   6.427   9.111  0.1986 -0.1341  0.0416
  146loPI   GL2 2326  10.390   6.790   9.200 -0.0712  0.0096  0.2621
  146loPI   C1A 2327  10.115   6.594   8.708  0.1552 -0.1971  0.0689
  146loPI   C2A 2328   9.785   6.757   8.507 -0.0080 -0.0585  0.2352
  146loPI   C3A 2329   9.589   6.769   8.146 -0.1887  0.3075  0.2020
  146loPI   C4A 2330   9.298   6.621   7.881 -0.1910 -0.1588 -0.0517
  146loPI   C5A 2331   9.039   6.392   7.622  0.4526  0.1188  0.1127
  146loPI   C6A 2332   8.713   6.619   7.310  0.1914 -0.1364 -0.1405
  146loPI   C1B 2333  10.673   6.671   8.882 -0.3005 -0.0326 -0.2354
  146loPI   C2B 2334  11.034   6.367   8.685 -0.1736 -0.1868 -0.1151
  146loPI   C3B 2335  11.142   6.049   8.389 -0.2311 -0.0681  0.1335
  146loPI   C4B 2336  11.096   6.114   7.991  0.0686  0.0085 -0.0653
  147loPI    C1 2337  10.461  15.747   9.841  0.1235  0.0708 -0.0105
  147loPI    C2 2338  10.359  15.617  10.205 -0.0153  0.1290 -0.0279
  147loPI    C3 2339  10.359  16.009  10.125 -0.0894  0.1104 -0.1212
  147loPI   PO4 2340  10.242  15.597   9.718 -0.2357  0.2290 -0.4234
  147loPI   GL1 2341  10.223  15.177   9.452 -0.3574  0.0077 -0.2805
  147loPI   GL2 2342  10.360  15.387   9.237 -0.5738 -0.1268  0.0207
  147loPI   C1A 2343   9.910  15.247   9.165  0.0742 -0.2036 -0.2894
  147loPI   C2A 2344   9.868  15.309   8.756 -0.2612  0.1511  0.0255
  147loPI   C3A 2345   9.885  15.020   8.454  0.1116  0.0900 -0.1424
  147loPI   C4A 2346   9.942  15.123   7.954  0.1528 -0.1621 -0.0779
  147loPI   C5A 2347   9.588  15.287   7.729  0.1685  0.0241  0.2348
  147loPI   C6A 2348   9.360  15.274   7.385  0.0727 -0.1524 -0.0754
  147loPI   C1B 2349  10.346  15.373   8.882  0.1366 -0.0095 -0.0830
  147loPI   C2B 2350  10.309  15.307   8.427 -0.4673 -0.0455  0.1190
  147loPI   C3B 2351  10.373  15.300   8.071 -0.1160  0.1159  0.1728
  147loPI   C4B 2352  10.749  15.556   7.722  0.1272 -0.0126  0.0513
  148loPI    C1 2353   6.325  10.356   9.960 -0.0030  0.0740 -0.0896
  148loPI    C2 2354   6.224  10.008  10.129  0.2980  0.0058 -0.0446
  148loPI    C3 2355   6.100  10.352  10.290  0.0785 -0.0767 -0.0347
  148loPI   PO4 2356   6.269  10.338   9.689 -0.2986  0.1341 -0.3231
  148loPI   GL1 2357   6.096  10.317   9.340  0.0535  0.0611  0.4167
  148loPI   GL2 2358   6.067  10.009   9.409  0.2059  0.0210  0.0683
  148loPI   C1A 2359   6.166  10.417   8.956 -0.2712 -0.1134 -0.4481
  148loPI   C2A 2360   6.311  10.639   8.544 -0.0504 -0.1019 -0.0237
  148loPI   C3A 2361   6.434  10.871   8.153 -0.2415  0.0009  0.1679
  148loPI   C4A 2362   6.759  11.005   7.879 -0.0901 -0.0002  0.2478
  148loPI   C5A 2363   7.301  11.097   7.865 -0.0868  0.0007  0.4191
  148loPI   C6A 2364   7.596  11.275   7.971 -0.2288  0.0501  0.1542
  148loPI   C1B 2365   6.188   9.920   8.980 -0.2948 -0.0301  0.1438
  148loPI   C2B 2366   6.411  10.068   8.568 -0.2465 -0.0716  0.2003
  148loPI   C3B 2367   6.206   9.994   8.178 -0.1695 -0.1885  0.1800
  148loPI   C4B 2368   6.020  10.394   8.029 -0.1542  0.0713  0.2383
  149loPI    C1 2369   5.235  12.180  10.179 -0.0234  0.0711 -0.0279
  149loPI    C2 2370   5.554  12.412  10.248 -0.0464  0.0843  0.0348
  149loPI    C3 2371   5.193  12.524  10.379 -0.0928  0.1145 -0.1166
  149loPI   PO4 2372   5.185  12.079   9.950  0.2738  0.3834  0.1090
  149loPI   GL1 2373   5.212  11.878   9.551 -0.2670  0.0753  0.1570
  149loPI   GL2 2374   5.487  11.935   9.588  0.1582  0.0536 -0.0734
  149loPI   C1A 2375   5.027  12.001   9.102  0.0407  0.1836  0.1410
  149loPI   C2A 2376   4.927  11.868   8.694  0.1224 -0.1315  0.1281
  149loPI   C3A 2377   4.844  11.792   8.198 -0.1311 -0.0641  0.0667
  149loPI   C4A 2378   4.785  11.976   7.783 -0.2506  0.1111  0.1865
  149loPI   C5A 2379   5.065  11.794   7.475  0.1700 -0.0153 -0.2732
  149loPI   C6A 2380   5.247  11.761   7.026 -0.1345 -0.0256 -0.0865
  149loPI   C1B 2381   5.541  11.833   9.222 -0.1717  0.0517 -0.0660
  149loPI   C2B 2382   5.446  11.999   8.836  0.0161  0.2479 -0.1884
  149loPI   C3B 2383   5.310  12.027   8.435 -0.2679  0.1159 -0.1090
  149loPI   C4B 2384   5.191  12.162   8.047 -0.0628 -0.4623 -0.1532
  150loPI    C1 2385   2.822  13.368   9.665 -0.2739  0.0201 -0.1098
  150loPI    C2 2386   2.945  13.519   9.316 -0.0551 -0.2980 -0.1744
  150loPI    C3 2387   2.555  13.462   9.382 -0.1299  0.1497 -0.2039
  150loPI   PO4 2388   3.077  13.159   9.673  0.1750 -0.1638 -0.0205
  150loPI   GL1 2389   3.068  12.938   9.279 -0.1185 -0.3253 -0.1018
  150loPI   GL2 2390   2.754  13.067   9.218 -0.0845  0.0489 -0.0021
  150loPI   C1A 2391   2.904  12.873   8.814 -0.1292  0.2781  0.1493
  150loPI   C2A 2392   2.923  12.864   8.339  0.0912 -0.2839  0.3469
  150loPI   C3A 2393   2.960  12.888   7.991 -0.1437  0.2006 -0.0386
  150loPI   C4A 2394   2.872  12.781   7.519 -0.2726  0.0565  0.0490
  150loPI   C5A 2395   2.628  12.546   7.298  0.3756  0.3087 -0.2530
  150loPI   C6A 2396   2.612  12.347   6.924 -0.0879  0.2653 -0.1804
  150loPI   C1B 2397   2.614  13.211   8.876 -0.1247 -0.1983 -0.2023
  150loPI   C2B 2398   2.450  13.034   8.532  0.3419  0.2099 -0.3573
  150loPI   C3B 2399   2.494  12.806   8.161  0.1057  0.2305  0.2473
  150loPI   C4B 2400   2.304  12.755   7.670  0.1466  0.0759 -0.0875
  151loPI    C1 2401  13.199  14.123   9.761  0.2640 -0.0514  0.1695
  151loPI    C2 2402  12.909  14.024  10.019  0.2329  0.0726  0.1831
  151loPI    C3 2403  13.172  13.748   9.898  0.0241 -0.0763  0.0600
  151loPI   PO4 2404  13.164  14.245   9.433  0.2657 -0.0058 -0.0187
  151loPI   GL1 2405  13.026  14.069   9.058  0.3745 -0.0439 -0.2129
  151loPI   GL2 2406  13.257  14.144   8.966 -0.1775  0.1410 -0.0443
  151loPI   C1A 2407  13.113  13.835   8.636  0.1077 -0.0954  0.0250
  151loPI   C2A 2408  13.091  13.984   8.257 -0.0665  0.1135 -0.1471
  151loPI   C3A 2409  12.861  13.874   7.923 -0.2284 -0.0508 -0.0674
  151loPI   C4A 2410  12.749  13.715   7.541  0.1106  0.2641  0.0164
  151loPI   C5A 2411  12.985  13.638   7.255 -0.0249 -0.0903 -0.1867
  151loPI   C6A 2412  13.440  13.551   7.216 -0.1828  0.0479  0.0902
  151loPI   C1B 2413  13.154  14.382   8.577 -0.1535 -0.1170 -0.0031
  151loPI   C2B 2414  13.059  14.627   8.176  0.2777 -0.0311  0.1265
  151loPI   C3B 2415  12.645  14.440   7.988 -0.5530  0.0766 -0.0584
  151loPI   C4B 2416  12.158  14.406   8.013 -0.0440 -0.0446 -0.0272
  152loPI    C1 2417   2.776  19.247   9.898  0.0494 -0.3150 -0.1737
  152loPI    C2 2418   2.511  18.947   9.885 -0.0405 -0.2494  0.0718
  152loPI    C3 2419   2.671  19.058  10.234 -0.0318  0.0094 -0.0119
  152loPI   PO4 2420   2.785  19.439   9.859 -0.2164 -0.1547  0.0560
  152loPI   GL1 2421   2.845  19.701   9.525 -0.0407 -0.0873  0.1267
  152loPI   GL2 2422   2.784  19.948   9.271 -0.0447  0.2596 -0.0834
  152loPI   C1A 2423   2.960  19.448   9.294 -0.1335  0.0122  0.0533
  152loPI   C2A 2424   2.946  19.288   8.941  0.0234 -0.0441 -0.0731
  152loPI   C3A 2425   2.944  19.280   8.530  0.0282 -0.0852  0.0410
  152loPI   C4A 2426   2.967  19.410   8.108 -0.0339  0.0336  0.1366
  152loPI   C5A 2427   3.369  19.489   7.875 -0.2231 -0.0494  0.1935
  152loPI   C6A 2428   3.686  19.583   7.409 -0.1037  0.2308 -0.1230
  152loPI   C1B 2429   2.768  19.794   8.893  0.1505  0.1765  0.1594
  152loPI   C2B 2430   2.825  19.837   8.383  0.0476 -0.0023 -0.1873
  152loPI   C3B 2431   3.014  19.975   7.993  0.0245 -0.1512  0.0913
  152loPI   C4B 2432   3.243  20.359   7.658 -0.0383  0.2857 -0.1664
  153loPI    C1 2433   1.310   0.545   9.874 -0.0551  0.1027  0.2134
  153loPI    C2 2434   1.530   0.854  10.003  0.0097  0.1527 -0.0134
  153loPI    C3 2435   1.358   0.607  10.267 -0.0255  0.3696  0.1694
  153loPI   PO4 2436   1.064   0.542   9.684 -0.3557 -0.2137  0.3201
  153loPI   GL1 2437   0.958   0.413   9.211 -0.3710  0.0008  0.1829
  153loPI   GL2 2438   0.972   0.772   9.211 -0.0065 -0.1659  0.1901
  153loPI   C1A 2439   0.914   0.403   8.784  0.1746  0.0429 -0.0844
  153loPI   C2A 2440   0.999   0.532   8.427 -0.0420 -0.2653  0.1741
  153loPI   C3A 2441   1.016   0.577   8.034 -0.1465 -0.1462 -0.0929
  153loPI   C4A 2442   1.148   0.372   7.633 -0.0437 -0.1641 -0.0607
  153loPI   C5A 2443   1.248   0.361   7.211 -0.2526 -0.1926  0.2272
  153loPI   C6A 2444   1.144   0.026   6.870  0.0098 -0.2216 -0.0283
  153loPI   C1B 2445   1.023   0.892   8.799 -0.4475 -0.2185  0.1759
  153loPI   C2B 2446   1.032   1.255   8.437 -0.2373  0.2428 -0.0563
  153loPI   C3B 2447   0.953   1.101   8.004 -0.0113  0.1370  0.3157
  153loPI   C4B 2448   0.946   1.013   7.650  0.0359  0.2444 -0.0014
  154loPI    C1 2449   0.231  11.429   8.874  0.1634 -0.0812 -0.1535
  154loPI    C2 2450   0.242  11.062   9.034 -0.2961 -0.0969 -0.1441
  154loPI    C3 2451  -0.021  11.332   9.170 -0.0983  0.1728 -0.2876
  154loPI   PO4 2452   0.198  11.373   8.626 -0.1981 -0.1693  0.3437
  154loPI   GL1 2453   0.257  11.363   8.208  0.0577  0.2789  0.1216
  154loPI   GL2 2454   0.292  10.984   8.245 -0.0324 -0.0158  0.0527
  154loPI   C1A 2455  -0.134  11.259   7.980  0.2305 -0.1960 -0.2998
  154loPI   C2A 2456  -0.157  11.178   7.593  0.1567 -0.2618  0.2363
  154loPI   C3A 2457  -0.296  11.278   7.175  0.1317 -0.1184 -0.1743
  154loPI   C4A 2458  -0.169  11.587   6.864  0.2572  0.0564 -0.1471
  154loPI   C5A 2459  -0.105  11.790   6.560  0.0956  0.2347  0.0015
  154loPI   C6A 2460   0.214  12.033   6.288 -0.2316  0.0973 -0.0243
  154loPI   C1B 2461   0.699  11.056   8.002 -0.3020  0.3728 -0.1515
  154loPI   C2B 2462   0.897  11.016   7.601  0.0128  0.3133  0.0209
  154loPI   C3B 2463   0.848  11.071   7.142 -0.1554  0.0031 -0.0716
  154loPI   C4B 2464   0.609  11.077   6.758  0.0627  0.2758 -0.2449
  155loPI    C1 2465   8.858   5.256   9.834 -0.0529 -0.0905  0.0488
  155loPI    C2 2466   8.623   5.428  10.108  0.0207  0.2102 -0.0739
  155loPI    C3 2467   8.925   5.192  10.223 -0.2853 -0.1113  0.0866
  155loPI   PO4 2468   8.697   5.229   9.606  0.2078  0.0267 -0.3896
  155loPI   GL1 2469   8.731   5.037   9.143  0.1534  0.0647 -0.3961
  155loPI   GL2 2470   8.403   5.045   9.112 -0.0138 -0.2711  0.1730
  155loPI   C1A 2471   8.779   4.848   8.771 -0.0191 -0.0764  0.0065
  155loPI   C2A 2472   8.972   4.633   8.414 -0.0810 -0.4397  0.1540
  155loPI   C3A 2473   8.898   4.805   7.948 -0.0830 -0.2254 -0.0063
  155loPI   C4A 2474   9.056   4.893   7.655  0.1758 -0.0823 -0.0412
  155loPI   C5A 2475   9.019   5.235   7.405  0.0421 -0.1619 -0.4304
  155loPI   C6A 2476   8.766   5.327   7.009 -0.1344 -0.2271  0.0039
  155loPI   C1B 2477   8.412   5.211   8.818  0.0792 -0.4402  0.0819
  155loPI   C2B 2478   8.524   5.540   8.385 -0.0165  0.0735  0.0923
  155loPI   C3B 2479   8.499   5.453   7.913  0.1101  0.0852  0.2737
  155loPI   C4B 2480   8.500   5.180   7.565 -0.1473  0.2670 -0.0448
  156loPI    C1 2481  18.826  15.130   9.214  0.2647 -0.1808  0.1301
  156loPI    C2 2482  19.139  15.216   8.980  0.2388  0.1650  0.2176
  156loPI    C3 2483  19.195  15.029   9.329  0.3312  0.0975  0.1670
  156loPI   PO4 2484  18.637  15.077   8.974 -0.0190 -0.0492  0.0533
  156loPI   GL1 2485  18.647  15.159   8.524  0.0150  0.1210  0.1346
  156loPI   GL2 2486  18.824  15.422   8.631 -0.0422 -0.4151  0.2809
  156loPI   C1A 2487  18.761  14.828   8.213 -0.2051 -0.0511 -0.0808
  156loPI   C2A 2488  19.083  14.820   7.844 -0.0216  0.1040 -0.0019
  156loPI   C3A 2489  19.056  14.835   7.351 -0.0221  0.1358  0.0487
  156loPI   C4A 2490  18.876  15.026   7.045  0.1807  0.0653  0.0394
  156loPI   C5A 2491  18.438  15.146   6.836  0.0545  0.1443  0.1045
  156loPI   C6A 2492  18.179  15.406   6.824 -0.1247  0.1457  0.3870
  156loPI   C1B 2493  18.450  15.648   8.511 -0.0358 -0.1269 -0.3057
  156loPI   C2B 2494  18.197  15.847   8.229 -0.0215 -0.3339 -0.2390
  156loPI   C3B 2495  18.076  15.886   7.900  0.1309  0.1097  0.0134
  156loPI   C4B 2496  18.090  16.195   7.615  0.0009 -0.1800 -0.1065
  157loPI    C1 2497  14.883  17.851   8.941  0.2446  0.1105  0.3573
  157loPI    C2 2498  14.651  17.530   9.000  0.2104  0.0540 -0.0555
  157loPI    C3 2499  14.623  17.845   9.245 -0.0667 -0.0835  0.0940
  157loPI   PO4 2500  14.767  17.951   8.725 -0.2229  0.0552 -0.2742
  157loPI   GL1 2501  15.023  18.099   8.438  0.0855 -0.0397  0.2782
  157loPI   GL2 2502  15.176  17.788   8.432  0.2231 -0.2230  0.0102
  157loPI   C1A 2503  14.992  18.089   8.049 -0.0544 -0.0581  0.0469
  157loPI   C2A 2504  15.302  17.970   7.650 -0.0165 -0.2264 -0.1892
  157loPI   C3A 2505  15.246  17.647   7.280 -0.3052  0.1534 -0.0497
  157loPI   C4A 2506  15.223  17.677   6.831 -0.1090  0.1787  0.0821
  157loPI   C5A 2507  14.923  17.683   6.517  0.1701 -0.0745  0.0242
  157loPI   C6A 2508  14.502  17.413   6.401  0.1903 -0.1789  0.0368
  157loPI   C1B 2509  15.143  17.635   8.026 -0.0043  0.0813  0.0128
  157loPI   C2B 2510  15.137  17.303   7.645 -0.0757  0.1827  0.2169
  157loPI   C3B 2511  15.400  17.142   7.280  0.0655  0.2268  0.0720
  157loPI   C4B 2512  15.520  17.252   6.848 -0.1902 -0.1553 -0.0669
  158loPI    C1 2513  17.744  18.013   9.472  0.2511 -0.1530  0.1404
  158loPI    C2 2514  17.971  18.339   9.428  0.0258 -0.0061  0.0438
  158loPI    C3 2515  17.851  18.227   9.793 -0.1880  0.2243  0.0469
  158loPI   PO4 2516  17.844  17.815   9.309  0.4375 -0.0021  0.1049
  158loPI   GL1 2517  17.885  17.756   8.877 -0.0693 -0.0072 -0.2108
  158loPI   GL2 2518  18.084  17.525   8.946 -0.5248  0.2327  0.0469
  158loPI   C1A 2519  17.737  17.878   8.452 -0.3061  0.0865  0.2615
  158loPI   C2A 2520  17.805  17.807   8.014 -0.1893  0.0428 -0.0808
  158loPI   C3A 2521  17.774  17.907   7.563  0.2331 -0.0514  0.0888
  158loPI   C4A 2522  18.017  17.992   7.122  0.0378 -0.1511  0.3107
  158loPI   C5A 2523  18.212  17.953   6.718  0.0949  0.0673  0.0459
  158loPI   C6A 2524  18.336  17.800   6.380 -0.1528  0.0652 -0.1158
  158loPI   C1B 2525  18.052  17.468   8.483 -0.0510 -0.2036 -0.3581
  158loPI   C2B 2526  18.009  17.322   8.002 -0.4146  0.3138 -0.0862
  158loPI   C3B 2527  17.809  17.318   7.687  0.2655 -0.1233 -0.2226
  158loPI   C4B 2528  17.360  17.430   7.430 -0.0222  0.0749  0.1429
  159loPI    C1 2529   6.223   6.989   9.550  0.1704 -0.1569  0.2016
  159loPI    C2 2530   6.441   7.199   9.810  0.0691 -0.0324  0.1873
  159loPI    C3 2531   6.409   6.803   9.851  0.2057 -0.0375  0.2544
  159loPI   PO4 2532   6.338   7.102   9.308 -0.2159 -0.0111 -0.1774
  159loPI   GL1 2533   6.343   7.148   8.893  0.1315 -0.0088  0.1420
  159loPI   GL2 2534   6.426   6.839   8.875 -0.2307 -0.2699 -0.0912
  159loPI   C1A 2535   6.337   7.063   8.408 -0.1332  0.3062 -0.2655
  159loPI   C2A 2536   6.311   6.856   8.131 -0.1623 -0.1535  0.1502
  159loPI   C3A 2537   6.461   6.604   7.862 -0.0553 -0.0310  0.1190
  159loPI   C4A 2538   6.262   6.367   7.512 -0.2353  0.1221  0.0447
  159loPI   C5A 2539   6.087   6.084   7.152 -0.1066 -0.0370 -0.0738
  159loPI   C6A 2540   5.997   5.664   7.213 -0.0449  0.0896  0.0289
  159loPI   C1B 2541   6.754   6.871   8.678  0.4212 -0.2794  0.1150
  159loPI   C2B 2542   6.885   7.055   8.306 -0.0262  0.1951 -0.0412
  159loPI   C3B 2543   6.772   7.072   7.953  0.0234  0.0906  0.2444
  159loPI   C4B 2544   6.419   7.160   7.739 -0.0600 -0.3380  0.0861
  160loPI    C1 2545   5.954   2.714   9.428 -0.0400  0.0140 -0.0453
  160loPI    C2 2546   5.915   2.437   9.715  0.0732 -0.2142 -0.2465
  160loPI    C3 2547   6.194   2.722   9.749  0.2719 -0.4045 -0.2573
  160loPI   PO4 2548   5.723   2.801   9.387  0.1412  0.0188  0.0215
  160loPI   GL1 2549   5.673   3.197   9.140  0.0607 -0.1527  0.0475
  160loPI   GL2 2550   5.428   2.966   9.040 -0.0682  0.0281  0.1663
  160loPI   C1A 2551   5.926   3.348   8.810  0.0010 -0.0544  0.1077
  160loPI   C2A 2552   6.007   3.417   8.319  0.1142 -0.1062 -0.0108
  160loPI   C3A 2553   5.846   3.396   7.879  0.1704  0.2277 -0.2800
  160loPI   C4A 2554   5.698   3.497   7.423 -0.2722  0.0879 -0.2693
  160loPI   C5A 2555   5.693   3.792   7.173 -0.2679 -0.1987  0.1477
  160loPI   C6A 2556   5.481   4.060   6.820  0.3638  0.0855 -0.3587
  160loPI   C1B 2557   5.553   3.084   8.602  0.1654  0.0876 -0.3137
  160loPI   C2B 2558   5.637   3.030   8.284  0.0954 -0.1397  0.1279
  160loPI   C3B 2559   5.503   3.078   7.832 -0.3064 -0.0810 -0.1966
  160loPI   C4B 2560   5.476   3.050   7.368  0.1998 -0.1722 -0.3015
  161loPI    C1 2561  19.587   1.390   9.499 -0.1243  0.0475  0.1539
  161loPI    C2 2562  19.703   1.532   9.855  0.0933  0.0955  0.0658
  161loPI    C3 2563  19.892   1.218   9.694 -0.1477 -0.0658  0.0917
  161loPI   PO4 2564  19.586   1.612   9.319 -0.1311  0.1949 -0.0980
  161loPI   GL1 2565  19.674   1.569   8.907 -0.0014 -0.0677  0.0643
  161loPI   GL2 2566  19.820   1.253   9.051 -0.0100 -0.0685 -0.3603
  161loPI   C1A 2567  19.499   1.440   8.521  0.1544 -0.1502 -0.2681
  161loPI   C2A 2568  19.722   1.431   8.144 -0.1234 -0.0667 -0.0818
  161loPI   C3A 2569  19.916   1.565   7.765 -0.1236 -0.1889  0.0606
  161loPI   C4A 2570  19.790   1.666   7.347  0.1872 -0.0497  0.1674
  161loPI   C5A 2571  19.582   1.631   6.988 -0.1071  0.3230  0.2034
  161loPI   C6A 2572  19.225   1.426   6.847 -0.1787 -0.2926 -0.2767
  161loPI   C1B 2573  20.004   1.114   8.758  0.2205 -0.0299 -0.0487
  161loPI   C2B 2574  20.043   1.075   8.297  0.1495 -0.2854 -0.1476
  161loPI   C3B 2575  19.922   0.990   7.839  0.3606 -0.2207 -0.0504
  161loPI   C4B 2576  19.603   1.194   7.581  0.1344 -0.3126  0.3352
  162loPI    C1 2577   4.224  14.107  10.146 -0.2158 -0.0790  0.0801
  162loPI    C2 2578   4.497  14.398  10.116 -0.1356 -0.1628 -0.0082
  162loPI    C3 2579   4.484  14.169  10.444 -0.0150 -0.2421 -0.0578
  162loPI   PO4 2580   4.178  14.055   9.865  0.3760  0.1187 -0.0808
  162loPI   GL1 2581   4.112  14.139   9.357  0.0981 -0.0581 -0.2923
  162loPI   GL2 2582   3.999  13.858   9.215  0.4695 -0.2588 -0.0087
  162loPI   C1A 2583   4.304  14.247   8.983  0.1818  0.3196  0.6783
  162loPI   C2A 2584   4.284  14.522   8.601 -0.0889  0.0705 -0.2422
  162loPI   C3A 2585   4.337  14.501   8.207 -0.0578  0.1477  0.1503
  162loPI   C4A 2586   4.437  14.670   7.812  0.1518 -0.1553  0.2630
  162loPI   C5A 2587   4.708  14.828   7.526 -0.3172 -0.1729  0.3352
  162loPI   C6A 2588   4.929  14.901   7.197 -0.2489 -0.3383 -0.0773
  162loPI   C1B 2589   3.940  13.811   8.724  0.1293 -0.1055  0.0867
  162loPI   C2B 2590   3.865  13.675   8.273  0.2302 -0.1702 -0.2326
  162loPI   C3B 2591   3.994  13.754   7.819 -0.0049  0.1700  0.1536
  162loPI   C4B 2592   3.924  13.632   7.399 -0.0992 -0.0364  0.1033
  163loPI    C1 2593  16.903   7.881   9.362 -0.1159 -0.1645 -0.1446
  163loPI    C2 2594  17.233   7.699   9.496  0.1020  0.1948 -0.1785
  163loPI    C3 2595  16.898   7.692   9.714  0.1188 -0.2002 -0.1590
  163loPI   PO4 2596  16.946   7.859   9.121  0.1696 -0.1597  0.0133
  163loPI   GL1 2597  16.838   7.918   8.636  0.1091  0.0251 -0.1537
  163loPI   GL2 2598  16.708   7.627   8.729  0.0271  0.2899  0.2130
  163loPI   C1A 2599  16.729   7.852   8.170 -0.0242 -0.0877 -0.0841
  163loPI   C2A 2600  16.555   8.019   7.812 -0.1424 -0.0636 -0.1917
  163loPI   C3A 2601  16.553   8.091   7.346  0.0515  0.2274  0.4019
  163loPI   C4A 2602  16.876   7.824   7.087 -0.0240 -0.1740  0.2442
  163loPI   C5A 2603  17.016   7.559   6.867  0.1005 -0.0210  0.2572
  163loPI   C6A 2604  17.117   7.542   6.419 -0.5477  0.0620  0.1054
  163loPI   C1B 2605  16.569   7.428   8.363 -0.1190  0.1104  0.1019
  163loPI   C2B 2606  16.637   7.414   7.949 -0.1344 -0.2591 -0.0897
  163loPI   C3B 2607  16.788   7.626   7.644 -0.1196  0.2435  0.1232
  163loPI   C4B 2608  17.129   7.662   7.427 -0.1847 -0.0926 -0.1524
  164loPI    C1 2609   4.938  15.322  10.074  0.2436 -0.1268 -0.0335
  164loPI    C2 2610   5.179  15.636  10.131 -0.0640  0.0983  0.0523
  164loPI    C3 2611   5.236  15.300  10.340  0.2161  0.1238  0.0205
  164loPI   PO4 2612   4.876  15.269   9.853  0.1770  0.1524  0.1316
  164loPI   GL1 2613   4.803  15.186   9.379  0.0088 -0.0509  0.1354
  164loPI   GL2 2614   5.138  15.279   9.424  0.2666  0.0078  0.3739
  164loPI   C1A 2615   4.829  15.268   8.999  0.0556 -0.0458  0.3063
  164loPI   C2A 2616   4.962  15.248   8.616  0.1598  0.0223  0.0449
  164loPI   C3A 2617   4.865  15.197   8.127 -0.1210 -0.2082  0.1470
  164loPI   C4A 2618   4.957  15.315   7.720  0.0444  0.0431  0.4109
  164loPI   C5A 2619   4.760  15.377   7.336  0.2077 -0.0877 -0.1666
  164loPI   C6A 2620   4.610  15.459   6.850 -0.2063 -0.2390  0.0295
  164loPI   C1B 2621   5.353  15.372   9.012  0.1333 -0.1441 -0.0546
  164loPI   C2B 2622   5.707  15.137   8.928 -0.1066 -0.1875  0.1757
  164loPI   C3B 2623   5.736  14.700   8.908 -0.1162  0.3003  0.0445
  164loPI   C4B 2624   5.794  14.397   8.556 -0.2032  0.3097 -0.0991
  165loPI    C1 2625  14.004   7.096   9.702  0.0262 -0.2818  0.0210
  165loPI    C2 2626  14.077   7.418   9.928 -0.3676 -0.1499 -0.0335
  165loPI    C3 2627  14.332   7.110   9.932  0.0245  0.1670  0.0053
  165loPI   PO4 2628  14.026   7.188   9.448 -0.3542 -0.2372 -0.0651
  165loPI   GL1 2629  14.187   7.227   8.971  0.1081 -0.1232  0.1305
  165loPI   GL2 2630  14.169   6.906   9.067 -0.4121  0.1103  0.1303
  165loPI   C1A 2631  14.294   7.039   8.593 -0.0798 -0.0193 -0.2869
  165loPI   C2A 2632  14.646   6.970   8.252 -0.0638 -0.2221 -0.1550
  165loPI   C3A 2633  14.709   6.737   7.892  0.0463  0.1546 -0.0346
  165loPI   C4A 2634  14.752   6.642   7.488 -0.2026 -0.0852  0.3113
  165loPI   C5A 2635  14.578   6.514   7.032  0.2859 -0.1534 -0.0633
  165loPI   C6A 2636  14.555   6.536   6.649 -0.0034 -0.1381 -0.1077
  165loPI   C1B 2637  13.786   7.016   8.774  0.2902 -0.2921 -0.0910
  165loPI   C2B 2638  13.761   7.144   8.349 -0.1614 -0.3132  0.0468
  165loPI   C3B 2639  13.998   7.075   7.997  0.0409  0.1262 -0.0438
  165loPI   C4B 2640  14.354   7.063   7.853  0.2997  0.2461  0.0695
  166loPI    C1 2641   9.937  12.807   9.855 -0.0671 -0.1839  0.0231
  166loPI    C2 2642   9.691  12.574  10.068 -0.1179 -0.1656 -0.0150
  166loPI    C3 2643   9.962  12.802  10.254 -0.3701  0.0870  0.0492
  166loPI   PO4 2644   9.925  12.765   9.472  0.2742  0.1452 -0.1284
  166loPI   GL1 2645  10.155  12.596   9.152 -0.0465 -0.0915  0.1598
  166loPI   GL2 2646  10.452  12.643   9.296 -0.0069 -0.1881 -0.2368
  166loPI   C1A 2647  10.152  12.572   8.722 -0.0135  0.0836 -0.0509
  166loPI   C2A 2648  10.260  12.334   8.351 -0.0441  0.3094  0.1283
  166loPI   C3A 2649  10.310  12.304   7.990  0.2328  0.0950  0.0162
  166loPI   C4A 2650  10.233  12.212   7.571  0.1360 -0.1645  0.0172
  166loPI   C5A 2651   9.924  12.081   7.282 -0.1704 -0.0956  0.0686
  166loPI   C6A 2652   9.598  12.096   6.861 -0.0139 -0.0631 -0.2129
  166loPI   C1B 2653  10.498  12.245   9.010 -0.0317  0.3420 -0.3256
  166loPI   C2B 2654  10.426  11.888   8.939 -0.1164  0.0208  0.0951
  166loPI   C3B 2655  10.057  11.684   8.774 -0.0136  0.0945  0.2299
  166loPI   C4B 2656   9.921  11.947   8.478  0.0866  0.2602  0.3177
  167loPI    C1 2657   1.094   9.193   9.708  0.0664 -0.1265 -0.4266
  167loPI    C2 2658   0.716   9.239   9.584  0.0092  0.2746 -0.1236
  167loPI    C3 2659   0.793   9.048   9.927  0.1060 -0.0506 -0.3212
  167loPI   PO4 2660   1.199   9.057   9.469  0.1000  0.1237 -0.0758
  167loPI   GL1 2661   1.464   8.993   9.018  0.0563  0.0975  0.0204
  167loPI   GL2 2662   1.536   9.308   9.055  0.0053  0.0581  0.0351
  167loPI   C1A 2663   1.254   9.078   8.633  0.2090 -0.0720  0.0502
  167loPI   C2A 2664   1.114   9.190   8.162  0.1379  0.3943  0.0884
  167loPI   C3A 2665   1.092   9.001   7.795 -0.0634  0.2213 -0.2846
  167loPI   C4A 2666   1.080   9.169   7.344 -0.0119  0.0448 -0.1484
  167loPI   C5A 2667   1.033   8.964   6.920 -0.0918  0.4759  0.0451
  167loPI   C6A 2668   0.858   8.679   6.755 -0.1376 -0.4459 -0.4157
  167loPI   C1B 2669   1.752   9.192   8.606  0.1479 -0.0347 -0.2705
  167loPI   C2B 2670   2.028   9.313   8.423  0.0199 -0.1164 -0.0228
  167loPI   C3B 2671   2.200   9.070   8.093 -0.3376 -0.2915  0.2320
  167loPI   C4B 2672   2.122   9.172   7.626 -0.0496 -0.0820 -0.3117
  168loPI    C1 2673   2.020   0.813   9.924 -0.0026 -0.2357  0.0735
  168loPI    C2 2674   2.303   0.761  10.202  0.0225 -0.2304  0.0489
  168loPI    C3 2675   1.926   0.839  10.312  0.0941  0.0904  0.0783
  168loPI   PO4 2676   2.030   0.748   9.763 -0.1288 -0.2979 -0.3293
  168loPI   GL1 2677   2.350   0.835   9.338 -0.1605 -0.1383  0.0872
  168loPI   GL2 2678   2.084   0.715   9.286  0.0799  0.1588  0.1842
  168loPI   C1A 2679   2.505   0.796   8.911  0.3324  0.1648 -0.1029
  168loPI   C2A 2680   2.366   0.602   8.494 -0.0298  0.2122  0.3662
  168loPI   C3A 2681   2.290   0.793   8.008 -0.0881 -0.0723  0.4070
  168loPI   C4A 2682   2.177   0.913   7.629  0.0620 -0.0544  0.1314
  168loPI   C5A 2683   1.962   0.754   7.285 -0.2170  0.0582 -0.0277
  168loPI   C6A 2684   1.830   0.341   7.370  0.0682 -0.2139 -0.2221
  168loPI   C1B 2685   2.022   0.610   8.837 -0.3232  0.0299 -0.0413
  168loPI   C2B 2686   1.835   0.524   8.504 -0.3457 -0.0361  0.1491
  168loPI   C3B 2687   1.888   0.639   8.162 -0.0665 -0.1816  0.3562
  168loPI   C4B 2688   1.893   0.502   7.840 -0.1062 -0.0937  0.1102
  169loPI    C1 2689  17.522  11.924   9.076 -0.0413  0.2746  0.0175
  169loPI    C2 2690  17.837  12.000   9.311  0.0664  0.0187 -0.0396
  169loPI    C3 2691  17.483  11.913   9.474  0.1197 -0.0729  0.0277
  169loPI   PO4 2692  17.586  12.091   8.873 -0.0873 -0.1181  0.2089
  169loPI   GL1 2693  17.534  12.099   8.428  0.1300 -0.3995 -0.2559
  169loPI   GL2 2694  17.844  12.174   8.465  0.1718 -0.1196 -0.1318
  169loPI   C1A 2695  17.668  12.055   8.035 -0.1494 -0.0167 -0.5083
  169loPI   C2A 2696  17.714  11.944   7.587 -0.1478 -0.1282 -0.0610
  169loPI   C3A 2697  17.869  11.709   7.321 -0.0735 -0.0247  0.0394
  169loPI   C4A 2698  18.234  11.688   7.001 -0.0192 -0.1863 -0.2520
  169loPI   C5A 2699  18.510  11.427   6.770  0.1917  0.2330 -0.2088
  169loPI   C6A 2700  18.776  11.162   6.482  0.1389  0.2266  0.3571
  169loPI   C1B 2701  17.948  12.473   8.026 -0.1643 -0.1309  0.0463
  169loPI   C2B 2702  18.137  12.426   7.611  0.0741  0.2663  0.0597
  169loPI   C3B 2703  17.969  12.150   7.235  0.1442  0.1929  0.0417
  169loPI   C4B 2704  17.721  12.237   6.839 -0.1172 -0.1730  0.0495
  170loPI    C1 2705  12.397  16.260  10.045  0.0214  0.0553  0.1874
  170loPI    C2 2706  12.266  15.882  10.039  0.0085  0.0625 -0.1940
  170loPI    C3 2707  12.010  16.182  10.109 -0.0707  0.0335 -0.3537
  170loPI   PO4 2708  12.518  16.208   9.766 -0.2472 -0.3719  0.0000
  170loPI   GL1 2709  12.636  16.148   9.348 -0.1979 -0.0376  0.2529
  170loPI   GL2 2710  12.377  16.247   9.157 -0.0229  0.0173  0.0923
  170loPI   C1A 2711  12.777  16.032   9.003  0.0203  0.3653 -0.0092
  170loPI   C2A 2712  12.768  15.801   8.609 -0.1380 -0.0964 -0.1603
  170loPI   C3A 2713  12.633  15.910   8.166  0.2215 -0.1243  0.2918
  170loPI   C4A 2714  12.410  16.107   7.876 -0.1420  0.0530  0.0742
  170loPI   C5A 2715  12.046  16.163   7.663  0.1282 -0.2373 -0.2015
  170loPI   C6A 2716  11.673  16.268   7.950 -0.0456  0.0124 -0.2829
  170loPI   C1B 2717  12.398  16.335   8.694 -0.1876 -0.1497 -0.2022
  170loPI   C2B 2718  12.261  16.332   8.316 -0.0147  0.2093 -0.1703
  170loPI   C3B 2719  12.309  16.605   7.986 -0.3096  0.4963 -0.0955
  170loPI   C4B 2720  12.056  16.610   7.645 -0.2386  0.2403 -0.1112
  171loPI    C1 2721   7.406  14.873   9.942  0.0869 -0.1175  0.1484
  171loPI    C2 2722   7.619  15.185  10.074 -0.1082  0.1268 -0.1007
  171loPI    C3 2723   7.288  15.072  10.268  0.1098 -0.1013  0.1468
  171loPI   PO4 2724   7.451  14.616   9.781  0.4543  0.1999  0.1196
  171loPI   GL1 2725   7.413  14.655   9.419  0.0242 -0.0952  0.0414
  171loPI   GL2 2726   7.630  14.803   9.180  0.0629 -0.0916  0.0381
  171loPI   C1A 2727   7.087  14.828   9.066  0.4613  0.2725 -0.0716
  171loPI   C2A 2728   6.905  15.244   8.856 -0.1023  0.1022  0.0025
  171loPI   C3A 2729   6.538  15.427   8.603  0.3274 -0.0377 -0.1977
  171loPI   C4A 2730   6.123  15.387   8.337  0.0597  0.0353  0.1536
  171loPI   C5A 2731   5.645  15.310   8.308  0.0301 -0.0128  0.0985
  171loPI   C6A 2732   5.346  15.583   8.081  0.1784  0.0441 -0.3015
  171loPI   C1B 2733   7.749  14.568   8.799  0.1782  0.1120 -0.0197
  171loPI   C2B 2734   7.755  14.426   8.350  0.0185 -0.0364  0.1387
  171loPI   C3B 2735   7.904  14.250   7.946 -0.3972 -0.0874 -0.0067
  171loPI   C4B 2736   8.257  14.145   7.684 -0.4251  0.0334 -0.1793
  172loPI    C1 2737  14.251   4.639   9.412  0.0216  0.1479  0.0178
  172loPI    C2 2738  13.881   4.786   9.455  0.0402  0.1933  0.0231
  172loPI    C3 2739  14.087   4.666   9.776  0.0890  0.3126  0.0370
  172loPI   PO4 2740  14.290   4.495   9.218 -0.0104  0.2556 -0.2057
  172loPI   GL1 2741  14.572   4.439   8.920 -0.0736 -0.3349 -0.1671
  172loPI   GL2 2742  14.922   4.321   9.002  0.0475  0.1903  0.1174
  172loPI   C1A 2743  14.633   4.371   8.451  0.0838 -0.3520 -0.0650
  172loPI   C2A 2744  14.955   4.361   8.058  0.1607  0.1509 -0.1336
  172loPI   C3A 2745  15.058   4.032   7.716  0.1666 -0.2575 -0.0657
  172loPI   C4A 2746  14.891   3.919   7.373  0.4219  0.3258  0.0486
  172loPI   C5A 2747  14.984   4.045   6.921  0.0183 -0.1877  0.0282
  172loPI   C6A 2748  14.935   4.401   6.689  0.1607  0.1193 -0.1079
  172loPI   C1B 2749  15.131   4.321   8.526  0.1700  0.3991 -0.0020
  172loPI   C2B 2750  15.355   4.097   8.207 -0.3273  0.1170  0.4062
  172loPI   C3B 2751  15.562   4.158   7.797  0.0463  0.0246  0.2469
  172loPI   C4B 2752  15.342   4.208   7.343  0.0649  0.0816  0.0447
  173loPI    C1 2753   3.153  15.760   9.865  0.1063 -0.0812  0.0293
  173loPI    C2 2754   2.888  15.462   9.837  0.2160 -0.1568 -0.2384
  173loPI    C3 2755   3.184  15.441  10.105 -0.0300 -0.0830  0.0452
  173loPI   PO4 2756   3.204  15.838   9.562  0.1455 -0.2474 -0.0971
  173loPI   GL1 2757   3.286  16.285   9.349 -0.1228  0.0768  0.1009
  173loPI   GL2 2758   3.548  16.037   9.286 -0.2291 -0.0411 -0.2872
  173loPI   C1A 2759   3.216  16.485   9.053 -0.3713 -0.2402  0.0277
  173loPI   C2A 2760   3.202  16.682   8.625  0.0212 -0.1709 -0.2180
  173loPI   C3A 2761   3.235  16.827   8.270 -0.0405 -0.0717 -0.2628
  173loPI   C4A 2762   3.337  17.075   7.877 -0.1090  0.0455 -0.0154
  173loPI   C5A 2763   3.080  17.287   7.551 -0.2266  0.0847  0.0470
  173loPI   C6A 2764   2.712  17.430   7.247  0.1615 -0.0574 -0.1881
  173loPI   C1B 2765   3.470  16.059   8.834  0.0893 -0.1781  0.2752
  173loPI   C2B 2766   3.567  16.124   8.421 -0.0250 -0.2839 -0.2745
  173loPI   C3B 2767   3.512  16.384   8.066 -0.0605 -0.0701  0.0951
  173loPI   C4B 2768   3.214  16.630   7.803  0.0403  0.1068 -0.0852
  174loPI    C1 2769  -0.204  15.730   8.936 -0.0299  0.1559  0.2121
  174loPI    C2 2770   0.183  15.661   8.858 -0.0389  0.4131 -0.0807
  174loPI    C3 2771   0.053  15.667   9.237  0.2413  0.3234  0.0197
  174loPI   PO4 2772  -0.254  15.919   8.729  0.3080  0.1669  0.1083
  174loPI   GL1 2773  -0.540  15.930   8.479 -0.2364 -0.1076 -0.3070
  174loPI   GL2 2774  -0.376  16.010   8.227 -0.0238  0.2521 -0.0070
  174loPI   C1A 2775  -0.538  15.509   8.193  0.0469  0.0517 -0.1849
  174loPI   C2A 2776  -0.736  15.308   7.954 -0.1561  0.2490  0.0669
  174loPI   C3A 2777  -0.753  15.321   7.528  0.2220  0.1426 -0.1773
  174loPI   C4A 2778  -0.708  15.379   7.038  0.1882  0.0219 -0.1533
  174loPI   C5A 2779  -0.837  15.207   6.609 -0.1175  0.0725  0.6154
  174loPI   C6A 2780  -1.263  14.888   6.517 -0.1106 -0.0605 -0.0668
  174loPI   C1B 2781  -0.062  15.913   8.036 -0.0158 -0.0784  0.1549
  174loPI   C2B 2782   0.086  15.843   7.679 -0.0224  0.0185 -0.4083
  174loPI   C3B 2783   0.280  16.041   7.302  0.2837 -0.0911 -0.4363
  174loPI   C4B 2784   0.611  16.198   7.155  0.0539 -0.0125 -0.5211
  175loPI    C1 2785   1.347   4.648   9.568 -0.1169 -0.0405 -0.1129
  175loPI    C2 2786   1.102   4.652   9.252 -0.1491  0.2914 -0.0874
  175loPI    C3 2787   1.034   4.400   9.555 -0.2001  0.0716 -0.2790
  175loPI   PO4 2788   1.646   4.648   9.428  0.2772 -0.1161 -0.0296
  175loPI   GL1 2789   1.736   4.733   8.926  0.0912  0.1050  0.1681
  175loPI   GL2 2790   1.659   4.661   8.592  0.0917  0.2016  0.0228
  175loPI   C1A 2791   1.252   4.559   8.814 -0.3001  0.3982 -0.2532
  175loPI   C2A 2792   1.086   4.276   8.515  0.1233  0.0043  0.3240
  175loPI   C3A 2793   1.119   4.022   8.052 -0.0389 -0.1606 -0.3947
  175loPI   C4A 2794   1.237   3.617   7.790  0.1394 -0.0816  0.0703
  175loPI   C5A 2795   1.287   3.263   7.480  0.2154  0.4440  0.0556
  175loPI   C6A 2796   1.476   2.933   7.358 -0.0064 -0.2096 -0.0098
  175loPI   C1B 2797   1.667   5.042   8.241  0.2339 -0.0744  0.1135
  175loPI   C2B 2798   1.594   5.260   7.793 -0.0838 -0.1212 -0.1981
  175loPI   C3B 2799   1.573   5.198   7.383  0.3286  0.0311 -0.1164
  175loPI   C4B 2800   1.674   5.477   7.065 -0.0480  0.1736  0.0688
  176loPI    C1 2801   8.356   2.265   9.264 -0.0421 -0.1014  0.1145
  176loPI    C2 2802   8.659   2.266   9.525  0.0391 -0.0182  0.0209
  176loPI    C3 2803   8.652   1.999   9.227  0.1073  0.0873 -0.0761
  176loPI   PO4 2804   8.110   2.203   9.409  0.1261  0.0031 -0.0247
  176loPI   GL1 2805   7.868   1.991   9.203 -0.1272 -0.0537  0.2064
  176loPI   GL2 2806   8.193   1.737   9.077  0.1434 -0.1321 -0.0476
  176loPI   C1A 2807   7.689   1.952   8.787 -0.0026  0.0853 -0.0298
  176loPI   C2A 2808   7.720   1.647   8.419  0.1879 -0.1591  0.1426
  176loPI   C3A 2809   7.852   1.370   8.022 -0.2255 -0.0043 -0.0578
  176loPI   C4A 2810   7.556   1.099   7.799 -0.5007  0.1235 -0.1233
  176loPI   C5A 2811   7.353   1.179   7.439  0.0625 -0.2491 -0.0945
  176loPI   C6A 2812   7.134   0.924   7.194  0.2903 -0.0665  0.0049
  176loPI   C1B 2813   8.002   1.542   8.814 -0.1554  0.1306 -0.0374
  176loPI   C2B 2814   8.113   1.203   8.420 -0.0592 -0.1279  0.0911
  176loPI   C3B 2815   7.885   0.889   8.271 -0.0231  0.0343  0.0657
  176loPI   C4B 2816   7.680   0.680   8.486 -0.0654 -0.2686 -0.0525
  177loPI    C1 2817  13.450   1.445   9.335 -0.0526 -0.0248 -0.1191
  177loPI    C2 2818  13.708   1.705   9.497 -0.1352  0.0749 -0.1461
  177loPI    C3 2819  13.426   1.536   9.724 -0.1941  0.1460 -0.1661
  177loPI   PO4 2820  13.423   1.386   9.112 -0.0713  0.3299  0.0170
  177loPI   GL1 2821  13.434   1.421   8.663  0.2385 -0.0262 -0.1284
  177loPI   GL2 2822  13.103   1.213   8.751  0.3466  0.0357  0.2614
  177loPI   C1A 2823  13.361   1.623   8.345  0.0250  0.2008  0.0729
  177loPI   C2A 2824  13.301   1.646   7.894  0.0995 -0.1225 -0.1018
  177loPI   C3A 2825  13.058   1.649   7.472 -0.2792  0.0008 -0.0904
  177loPI   C4A 2826  12.981   1.864   7.057  0.0427 -0.5212  0.2900
  177loPI   C5A 2827  12.982   2.250   6.844  0.1968  0.3093 -0.1018
  177loPI   C6A 2828  13.338   2.584   6.699 -0.1075  0.0143 -0.2511
  177loPI   C1B 2829  13.052   1.257   8.364 -0.2686  0.0664 -0.4664
  177loPI   C2B 2830  12.877   1.433   8.079  0.0457  0.0577  0.0030
  177loPI   C3B 2831  12.704   1.463   7.735 -0.0960 -0.3012  0.4392
  177loPI   C4B 2832  12.498   1.530   7.246 -0.0847 -0.2251  0.3993
  178loPI    C1 2833   3.232   6.953   9.212 -0.0328  0.0424 -0.0495
  178loPI    C2 2834   3.256   6.962   9.612 -0.0149  0.1534 -0.0528
  178loPI    C3 2835   2.907   7.037   9.430 -0.1095 -0.2509 -0.0468
  178loPI   PO4 2836   3.427   7.035   9.136  0.2694  0.1279 -0.3090
  178loPI   GL1 2837   3.547   7.115   8.747  0.2093 -0.1828 -0.0430
  178loPI   GL2 2838   3.206   6.937   8.647 -0.1712  0.3406  0.0428
  178loPI   C1A 2839   3.406   7.443   8.354 -0.0679  0.1688 -0.1297
  178loPI   C2A 2840   3.532   7.805   8.135 -0.0259 -0.1978 -0.0152
  178loPI   C3A 2841   3.698   7.697   7.781 -0.1262  0.2028  0.2079
  178loPI   C4A 2842   3.894   7.584   7.290  0.3112 -0.2147  0.0508
  178loPI   C5A 2843   4.270   7.833   6.987  0.0255  0.0119  0.0053
  178loPI   C6A 2844   4.221   8.251   6.849  0.2066 -0.0105 -0.2124
  178loPI   C1B 2845   3.321   6.931   8.284 -0.0486  0.0802 -0.3804
  178loPI   C2B 2846   3.280   6.824   7.830 -0.1139  0.2752  0.0120
  178loPI   C3B 2847   3.418   6.483   7.610 -0.5143  0.0963 -0.1630
  178loPI   C4B 2848   3.696   6.166   7.438  0.1245 -0.0877  0.1659
  179loPI    C1 2849  14.891  12.996   9.276 -0.0826 -0.1624  0.0473
  179loPI    C2 2850  14.804  13.066   9.660  0.2162 -0.1714  0.1197
  179loPI    C3 2851  14.875  12.692   9.535  0.1363 -0.1665  0.0586
  179loPI   PO4 2852  14.850  13.182   9.102  0.1733 -0.1588  0.1123
  179loPI   GL1 2853  14.840  13.154   8.679  0.1043  0.1831 -0.0492
  179loPI   GL2 2854  14.955  13.504   8.501  0.0384 -0.2046 -0.2199
  179loPI   C1A 2855  14.767  12.904   8.332 -0.1256 -0.2466 -0.1436
  179loPI   C2A 2856  14.879  12.994   7.877  0.1307 -0.0849 -0.0397
  179loPI   C3A 2857  14.975  13.228   7.447 -0.2528 -0.1469 -0.1494
  179loPI   C4A 2858  14.868  13.641   7.323 -0.2628  0.2843 -0.2284
  179loPI   C5A 2859  14.838  14.041   7.183  0.0423 -0.3652  0.1771
  179loPI   C6A 2860  14.672  14.368   7.068  0.1710  0.0374  0.0748
  179loPI   C1B 2861  14.973  13.489   8.015  0.1182  0.1132 -0.2246
  179loPI   C2B 2862  15.056  13.722   7.779 -0.0778 -0.0841 -0.1004
  179loPI   C3B 2863  14.919  14.062   7.660 -0.3004  0.1884 -0.0357
  179loPI   C4B 2864  14.511  14.336   7.552 -0.4173  0.1419  0.1814
  180loPI    C1 2865  12.879  16.746   9.642  0.2243  0.0667 -0.0571
  180loPI    C2 2866  12.893  16.538   9.984  0.1028  0.3308  0.1117
  180loPI    C3 2867  12.555  16.723   9.875  0.0329 -0.0375 -0.3279
  180loPI   PO4 2868  12.988  16.567   9.482  0.1923  0.3314 -0.2850
  180loPI   GL1 2869  13.036  16.473   9.121 -0.2441  0.0991 -0.1605
  180loPI   GL2 2870  13.303  16.288   9.153  0.1612  0.2022 -0.2573
  180loPI   C1A 2871  12.840  16.490   8.705  0.3246  0.0913 -0.0299
  180loPI   C2A 2872  12.746  16.414   8.318  0.3070  0.1347 -0.1653
  180loPI   C3A 2873  12.832  16.358   7.929 -0.0369  0.0621 -0.0506
  180loPI   C4A 2874  12.547  16.533   7.559 -0.0389 -0.0404 -0.2350
  180loPI   C5A 2875  12.423  16.720   7.289 -0.0037  0.1004  0.2488
  180loPI   C6A 2876  12.587  17.057   7.104  0.2858 -0.0079 -0.1514
  180loPI   C1B 2877  13.251  16.252   8.686  0.0011  0.0085  0.2369
  180loPI   C2B 2878  13.203  16.172   8.284 -0.1199  0.2541 -0.2192
  180loPI   C3B 2879  13.309  16.052   7.824  0.0708 -0.1558  0.1786
  180loPI   C4B 2880  13.082  16.316   7.472 -0.4421 -0.4042  0.1546
  181loPI    C1 2881   3.687   9.174   9.806 -0.0173 -0.1028 -0.0123
  181loPI    C2 2882   3.748   9.108  10.195  0.1888  0.0911 -0.0100
  181loPI    C3 2883   3.458   9.357  10.078  0.0266 -0.0852  0.0129
  181loPI   PO4 2884   3.984   9.047   9.723 -0.1009  0.0770 -0.1690
  181loPI   GL1 2885   4.094   8.876   9.319 -0.0962  0.2297  0.0947
  181loPI   GL2 2886   3.913   8.802   9.055  0.0066 -0.2512  0.4072
  181loPI   C1A 2887   4.318   9.241   9.096 -0.1274 -0.0493  0.0006
  181loPI   C2A 2888   4.615   9.302   8.845  0.0048  0.0450  0.0242
  181loPI   C3A 2889   4.738   9.494   8.463 -0.3287  0.2214 -0.2774
  181loPI   C4A 2890   4.717   9.259   8.039  0.0468 -0.3888  0.1789
  181loPI   C5A 2891   4.717   9.402   7.686  0.1191 -0.5336 -0.1271
  181loPI   C6A 2892   4.969   9.223   7.311  0.0254  0.0905 -0.0138
  181loPI   C1B 2893   3.833   8.913   8.654  0.0056  0.1291 -0.0629
  181loPI   C2B 2894   3.571   8.788   8.371  0.1788 -0.0075  0.0327
  181loPI   C3B 2895   3.490   8.783   8.010 -0.2178  0.0015  0.2250
  181loPI   C4B 2896   3.508   8.715   7.601  0.1728  0.3112  0.3671
  182loPI    C1 2897  15.199   3.092   8.991  0.1615 -0.1263  0.1603
  182loPI    C2 2898  15.049   2.912   9.316 -0.1064  0.0903  0.1602
  182loPI    C3 2899  15.343   3.181   9.354 -0.1463  0.1248  0.2251
  182loPI   PO4 2900  15.223   2.993   8.843 -0.2103 -0.1916  0.0589
  182loPI   GL1 2901  15.500   3.073   8.515 -0.2533 -0.0307 -0.0471
  182loPI   GL2 2902  15.668   2.859   8.459  0.0207  0.2501  0.0670
  182loPI   C1A 2903  15.511   3.072   8.045  0.0827  0.0044 -0.0377
  182loPI   C2A 2904  15.423   3.090   7.626 -0.1269 -0.3227 -0.2627
  182loPI   C3A 2905  15.388   3.099   7.195  0.1277 -0.0084  0.1284
  182loPI   C4A 2906  15.301   2.993   6.875 -0.1786  0.3535 -0.0675
  182loPI   C5A 2907  15.018   3.124   6.530 -0.1614 -0.2367 -0.2184
  182loPI   C6A 2908  14.588   3.179   6.555 -0.0872  0.4952 -0.1145
  182loPI   C1B 2909  16.007   2.937   8.236 -0.2283 -0.2538 -0.0524
  182loPI   C2B 2910  16.139   3.118   7.845 -0.1535  0.2103  0.1303
  182loPI   C3B 2911  16.333   3.215   7.520  0.1163  0.1119 -0.0815
  182loPI   C4B 2912  16.569   3.575   7.467 -0.0620 -0.0198  0.1616
  183loPI    C1 2913  18.747   0.300   9.467  0.0994 -0.0878 -0.0177
  183loPI    C2 2914  18.412   0.441   9.635  0.2234  0.1182  0.0603
  183loPI    C3 2915  18.393   0.143   9.369 -0.0328  0.2088 -0.0253
  183loPI   PO4 2916  18.851   0.535   9.420  0.1398 -0.1950 -0.1118
  183loPI   GL1 2917  18.958   0.858   9.174  0.1665 -0.0353 -0.0937
  183loPI   GL2 2918  18.764   1.028   8.915 -0.1066 -0.0876 -0.0902
  183loPI   C1A 2919  19.160   0.779   8.806 -0.0896  0.3628  0.3003
  183loPI   C2A 2920  19.007   0.697   8.409 -0.0188 -0.3263 -0.0576
  183loPI   C3A 2921  18.936   0.652   7.990  0.0364 -0.1494 -0.0906
  183loPI   C4A 2922  19.131   0.496   7.548  0.3597 -0.1102  0.0661
  183loPI   C5A 2923  19.028   0.435   7.172 -0.1855  0.0687 -0.1095
  183loPI   C6A 2924  18.673   0.612   6.915 -0.0103  0.0377  0.0902
  183loPI   C1B 2925  18.996   1.205   8.559 -0.0909 -0.0544  0.1059
  183loPI   C2B 2926  19.085   1.163   8.159  0.0510 -0.1005 -0.1804
  183loPI   C3B 2927  19.148   1.139   7.737  0.0706 -0.1114  0.1450
  183loPI   C4B 2928  19.205   0.953   7.388  0.4635 -0.0250 -0.3037
  184loPI    C1 2929  13.505   9.631   9.689 -0.0090  0.0098  0.0445
  184loPI    C2 2930  13.859   9.803   9.617  0.1055 -0.2807 -0.1059
  184loPI    C3 2931  13.738   9.743   9.994  0.1947 -0.1389 -0.0541
  184loPI   PO4 2932  13.392   9.692   9.375  0.0709  0.0225 -0.1347
  184loPI   GL1 2933  13.163   9.740   8.964 -0.1356 -0.1574 -0.0771
  184loPI   GL2 2934  13.429   9.397   8.940  0.2402  0.1881  0.3664
  184loPI   C1A 2935  12.779  10.103   8.788 -0.2878  0.0072 -0.4089
  184loPI   C2A 2936  12.740  10.242   8.288  0.2395 -0.2680 -0.0422
  184loPI   C3A 2937  12.735   9.834   7.980 -0.0753  0.1924 -0.1784
  184loPI   C4A 2938  12.929   9.692   7.552 -0.0526 -0.0485 -0.0441
  184loPI   C5A 2939  13.051   9.608   7.111 -0.1841  0.2294  0.0263
  184loPI   C6A 2940  13.337   9.667   6.812  0.1250  0.2538 -0.1691
  184loPI   C1B 2941  13.519   9.581   8.556  0.0253  0.0673  0.3623
  184loPI   C2B 2942  13.663   9.339   8.144 -0.3480 -0.0627 -0.1578
  184loPI   C3B 2943  13.638   9.093   7.827  0.1807  0.1365  0.1710
  184loPI   C4B 2944  13.818   8.962   7.483 -0.0877 -0.1030  0.0047
  185loPI    C1 2945  18.385   3.029   9.219 -0.0675  0.3673  0.2910
  185loPI    C2 2946  18.437   3.104   9.608 -0.0585  0.3925  0.2849
  185loPI    C3 2947  18.254   2.768   9.492  0.2823  0.1969  0.3011
  185loPI   PO4 2948  18.377   3.169   9.049  0.0948  0.0481  0.1791
  185loPI   GL1 2949  18.606   3.561   8.888  0.0078 -0.1549 -0.1303
  185loPI   GL2 2950  18.344   3.726   8.893  0.1760 -0.1619  0.1402
  185loPI   C1A 2951  18.556   3.772   8.410 -0.2596  0.0430 -0.1568
  185loPI   C2A 2952  18.500   3.789   8.011 -0.1906  0.3007 -0.1671
  185loPI   C3A 2953  18.384   4.068   7.720 -0.0854 -0.1033  0.1160
  185loPI   C4A 2954  18.325   4.041   7.223  0.0859 -0.2348 -0.0664
  185loPI   C5A 2955  18.310   3.964   6.740  0.2963 -0.3623 -0.1971
  185loPI   C6A 2956  18.194   3.642   6.297 -0.0865 -0.2280 -0.1388
  185loPI   C1B 2957  18.101   3.937   8.501 -0.0524  0.1309  0.0876
  185loPI   C2B 2958  18.131   4.256   8.160 -0.2950  0.0254  0.2505
  185loPI   C3B 2959  17.941   4.353   7.773  0.0628 -0.1926  0.5045
  185loPI   C4B 2960  18.185   4.454   7.481 -0.3922 -0.0054  0.0176
  186loPI    C1 2961   2.587   1.481   9.927 -0.1254 -0.0132  0.0801
  186loPI    C2 2962   2.216   1.601   9.836 -0.0563  0.1067 -0.0474
  186loPI    C3 2963   2.320   1.218   9.786 -0.1360  0.0915 -0.0984
  186loPI   PO4 2964   2.776   1.797   9.781 -0.0178  0.0384  0.1872
  186loPI   GL1 2965   2.921   2.064   9.359 -0.0731 -0.0476  0.1722
  186loPI   GL2 2966   3.186   1.970   9.312  0.0168 -0.5241 -0.1341
  186loPI   C1A 2967   2.591   1.874   9.016  0.0975 -0.1159 -0.0404
  186loPI   C2A 2968   2.611   1.890   8.601 -0.0860  0.0612  0.2157
  186loPI   C3A 2969   2.500   1.790   8.109 -0.1628  0.0549  0.1795
  186loPI   C4A 2970   2.615   1.705   7.784  0.2727 -0.1343 -0.1167
  186loPI   C5A 2971   2.601   1.682   7.318  0.1153  0.1179  0.2255
  186loPI   C6A 2972   3.033   1.588   7.095 -0.3479 -0.1264 -0.4727
  186loPI   C1B 2973   3.057   2.011   8.835 -0.1540  0.0095  0.1657
  186loPI   C2B 2974   3.112   1.924   8.319  0.2358  0.2472  0.0283
  186loPI   C3B 2975   3.094   1.926   7.957  0.1248 -0.1763  0.1824
  186loPI   C4B 2976   3.055   1.904   7.529  0.1658  0.0084  0.2509
  187loPI    C1 2977  20.050   9.304   9.016  0.0919 -0.0281  0.1035
  187loPI    C2 2978  19.854   8.959   9.065 -0.1780  0.1017 -0.0406
  187loPI    C3 2979  19.962   9.174   9.384 -0.0586 -0.0866  0.0476
  187loPI   PO4 2980  19.867   9.417   8.761  0.1593 -0.0925 -0.0094
  187loPI   GL1 2981  19.582   9.576   8.499  0.0420  0.1686 -0.2408
  187loPI   GL2 2982  19.345   9.721   8.388  0.1522  0.1375 -0.0566
  187loPI   C1A 2983  19.870   9.546   8.109  0.0826 -0.0458  0.2069
  187loPI   C2A 2984  19.773   9.670   7.637 -0.0635 -0.2084  0.0699
  187loPI   C3A 2985  19.674   9.576   7.239 -0.1814  0.1124  0.1837
  187loPI   C4A 2986  19.796   9.446   6.797 -0.0761  0.1015  0.0740
  187loPI   C5A 2987  19.691   9.213   6.277 -0.1160 -0.0177  0.1754
  187loPI   C6A 2988  19.699   9.009   5.931  0.1977  0.1369  0.1333
  187loPI   C1B 2989  19.354   9.541   7.982  0.2349 -0.3243 -0.1294
  187loPI   C2B 2990  19.400   9.314   7.522 -0.2893  0.1226 -0.1913
  187loPI   C3B 2991  19.352   9.185   7.116  0.1979 -0.0614 -0.0926
  187loPI   C4B 2992  19.127   8.956   6.763 -0.0195 -0.2382  0.0753
  188loPI    C1 2993   9.800   1.926   9.765  0.0472  0.0637 -0.0794
  188loPI    C2 2994   9.824   1.686  10.085  0.4244  0.0694 -0.0990
  188loPI    C3 2995   9.468   1.774   9.926  0.2556 -0.1656  0.1430
  188loPI   PO4 2996   9.953   1.793   9.525  0.2266  0.1875  0.1621
  188loPI   GL1 2997   9.822   1.547   9.247 -0.1054  0.1055 -0.2800
  188loPI   GL2 2998   9.562   1.574   8.965  0.0293 -0.2403 -0.2587
  188loPI   C1A 2999  10.176   1.425   8.884 -0.3669  0.1357 -0.2018
  188loPI   C2A 3000  10.080   1.262   8.523  0.1444 -0.1229 -0.3051
  188loPI   C3A 3001   9.836   1.273   8.192  0.1230  0.3939 -0.3054
  188loPI   C4A 3002   9.612   1.164   7.811  0.2877 -0.0288  0.1484
  188loPI   C5A 3003   9.252   1.184   7.444 -0.0472 -0.3226 -0.0259
  188loPI   C6A 3004   8.945   1.210   7.134 -0.1817 -0.5634 -0.0151
  188loPI   C1B 3005   9.582   1.436   8.586 -0.1612 -0.0540 -0.2728
  188loPI   C2B 3006   9.402   1.531   8.237  0.1278 -0.0152 -0.1080
  188loPI   C3B 3007   9.188   1.468   7.830 -0.0833  0.1920 -0.0877
  188loPI   C4B 3008   8.816   1.581   7.689  0.0665 -0.1820 -0.2004
  189loPI    C1 3009  15.704   6.113   9.798 -0.2830  0.1580 -0.0106
  189loPI    C2 3010  15.798   6.497   9.859  0.2518 -0.0262  0.3981
  189loPI    C3 3011  15.530   6.316  10.095 -0.1823  0.1487  0.0548
  189loPI   PO4 3012  15.723   6.088   9.527 -0.0199  0.1933 -0.0425
  189loPI   GL1 3013  15.703   6.226   9.028  0.1323  0.1855  0.0092
  189loPI   GL2 3014  15.956   6.242   8.684  0.0636 -0.4365 -0.0804
  189loPI   C1A 3015  15.588   5.884   8.769 -0.0769 -0.1570  0.3393
  189loPI   C2A 3016  15.182   5.837   8.793  0.3455  0.3332  0.3115
  189loPI   C3A 3017  14.653   5.710   8.702 -0.1512 -0.2046 -0.3018
  189loPI   C4A 3018  14.486   5.808   8.340 -0.2644 -0.2560 -0.1929
  189loPI   C5A 3019  14.428   5.771   7.864  0.0786 -0.1070 -0.3219
  189loPI   C6A 3020  14.391   5.677   7.443 -0.0005  0.0312  0.2497
  189loPI   C1B 3021  15.780   6.402   8.283  0.0121 -0.1964  0.3723
  189loPI   C2B 3022  15.529   6.629   7.942  0.0809 -0.1118 -0.1949
  189loPI   C3B 3023  15.268   6.566   7.586 -0.1429 -0.2607  0.0233
  189loPI   C4B 3024  15.168   6.297   7.273  0.0153  0.0117  0.4882
  190loPI    C1 3025  17.397   4.093   9.505 -0.0897  0.1754 -0.5584
  190loPI    C2 3026  17.758   4.253   9.572 -0.0830  0.0082 -0.1714
  190loPI    C3 3027  17.439   4.387   9.773 -0.2016  0.0107 -0.3581
  190loPI   PO4 3028  17.427   4.055   9.248  0.2359  0.1382 -0.0148
  190loPI   GL1 3029  17.461   4.082   8.857 -0.2060 -0.0207  0.1289
  190loPI   GL2 3030  17.391   4.389   8.674  0.0108  0.0341 -0.1354
  190loPI   C1A 3031  17.255   3.943   8.513  0.2833  0.3060  0.4381
  190loPI   C2A 3032  17.353   3.693   8.072  0.1550  0.1349  0.1256
  190loPI   C3A 3033  17.236   3.363   7.788  0.1013 -0.0070 -0.0731
  190loPI   C4A 3034  17.413   3.382   7.380  0.1508 -0.0828  0.1809
  190loPI   C5A 3035  17.489   3.237   6.871 -0.1406 -0.4493  0.1293
  190loPI   C6A 3036  17.693   3.051   6.628 -0.1883 -0.0030 -0.1956
  190loPI   C1B 3037  17.190   4.528   8.326  0.3515  0.1216  0.1383
  190loPI   C2B 3038  17.074   4.868   8.172 -0.2155  0.0691 -0.0199
  190loPI   C3B 3039  16.995   5.006   7.907 -0.0942 -0.0221 -0.1993
  190loPI   C4B 3040  16.990   5.219   7.741  0.1845 -0.0246  0.2387
  191loPI    C1 3041   0.217   3.006   9.464 -0.0092 -0.1898 -0.0064
  191loPI    C2 3042   0.613   3.064   9.457 -0.0310 -0.0631 -0.3658
  191loPI    C3 3043   0.381   3.293   9.689  0.0845  0.0006 -0.3125
  191loPI   PO4 3044   0.173   3.026   9.160  0.0125  0.1719  0.0092
  191loPI   GL1 3045  -0.096   2.823   8.946  0.2166  0.1925  0.1873
  191loPI   GL2 3046  -0.285   2.572   8.854  0.2577  0.2393  0.1013
  191loPI   C1A 3047   0.105   2.992   8.493  0.0988 -0.1704  0.1245
  191loPI   C2A 3048   0.145   3.424   8.374 -0.0390 -0.2754 -0.0100
  191loPI   C3A 3049   0.272   3.752   7.991 -0.0196  0.3121  0.3679
  191loPI   C4A 3050   0.401   3.995   7.620 -0.4252  0.1048  0.0734
  191loPI   C5A 3051   0.654   4.154   7.369 -0.0995 -0.2913 -0.0651
  191loPI   C6A 3052   0.723   4.469   7.098  0.1818  0.0463  0.1584
  191loPI   C1B 3053  -0.427   2.502   8.500  0.2188  0.1592 -0.0050
  191loPI   C2B 3054  -0.425   2.637   8.096 -0.0793 -0.2281 -0.1314
  191loPI   C3B 3055  -0.445   2.666   7.702 -0.1199  0.0209 -0.0223
  191loPI   C4B 3056  -0.510   2.970   7.461  0.2233 -0.0224  0.0578
  192loPI    C1 3057   7.607  17.756   9.828  0.0137 -0.0625  0.2348
  192loPI    C2 3058   7.763  18.122   9.870  0.0348 -0.0187 -0.1824
  192loPI    C3 3059   7.592  17.940  10.182 -0.1988  0.4490 -0.0294
  192loPI   PO4 3060   7.795  17.691   9.600 -0.1021  0.0923  0.3652
  192loPI   GL1 3061   7.620  17.788   9.280  0.1526  0.2505 -0.4132
  192loPI   GL2 3062   7.595  17.449   9.190 -0.3470  0.0507  0.0526
  192loPI   C1A 3063   7.381  17.663   8.854  0.1182 -0.2429  0.2803
  192loPI   C2A 3064   7.204  17.417   8.539 -0.1340 -0.1835  0.3111
  192loPI   C3A 3065   7.169  17.567   8.148  0.0472  0.1955 -0.1260
  192loPI   C4A 3066   6.962  17.574   7.641  0.1360 -0.1623  0.1673
  192loPI   C5A 3067   6.625  17.661   7.316 -0.1723 -0.0875  0.0449
  192loPI   C6A 3068   6.207  17.655   7.129  0.0070 -0.1283 -0.0526
  192loPI   C1B 3069   7.582  17.220   8.870  0.0614  0.0078  0.2562
  192loPI   C2B 3070   7.689  17.032   8.509 -0.1566  0.1019 -0.1261
  192loPI   C3B 3071   7.569  17.112   8.121 -0.1143  0.1113  0.5865
  192loPI   C4B 3072   7.428  17.334   7.727  0.0250  0.0873  0.6302
  193loPI    C1 3073  13.126  10.461   9.497 -0.0045  0.1871 -0.0072
  193loPI    C2 3074  13.176  10.156   9.243  0.0175 -0.0831  0.3144
  193loPI    C3 3075  12.827  10.352   9.255  0.0897  0.0782 -0.0751
  193loPI   PO4 3076  13.433  10.581   9.405 -0.1355 -0.0778 -0.0643
  193loPI   GL1 3077  13.432  10.643   8.998  0.1782 -0.0475  0.0618
  193loPI   GL2 3078  13.054  10.659   8.899  0.1295  0.1449  0.1732
  193loPI   C1A 3079  13.672  10.575   8.619 -0.2370  0.1854  0.0967
  193loPI   C2A 3080  13.862  10.456   8.172 -0.0599  0.0471 -0.2144
  193loPI   C3A 3081  13.664  10.278   7.725 -0.0776 -0.2191  0.1013
  193loPI   C4A 3082  13.783   9.932   7.555 -0.1935  0.0093 -0.0535
  193loPI   C5A 3083  13.534   9.551   7.701 -0.1266 -0.1300  0.0169
  193loPI   C6A 3084  13.187   9.458   7.913  0.2470 -0.0884 -0.1877
  193loPI   C1B 3085  13.131  10.663   8.409 -0.1034  0.2055 -0.0997
  193loPI   C2B 3086  13.157  10.489   8.047 -0.0837 -0.1812 -0.1211
  193loPI   C3B 3087  13.126  10.558   7.576 -0.1378 -0.2851 -0.4463
  193loPI   C4B 3088  13.027  10.676   7.076 -0.1572  0.1334 -0.0894
  194loPI    C1 3089  18.165  14.531   9.331  0.0523 -0.2924  0.1143
  194loPI    C2 3090  18.484  14.602   9.100 -0.0603 -0.0221  0.0384
  194loPI    C3 3091  18.463  14.266   9.314  0.2045 -0.1132 -0.0756
  194loPI   PO4 3092  17.931  14.724   9.179  0.0030 -0.0346 -0.2355
  194loPI   GL1 3093  17.917  14.862   8.809  0.1944  0.1319 -0.0841
  194loPI   GL2 3094  18.263  14.862   8.662 -0.1998 -0.0669 -0.1034
  194loPI   C1A 3095  17.810  14.618   8.344  0.0729 -0.1594 -0.1432
  194loPI   C2A 3096  17.621  14.768   7.943  0.0868 -0.0204 -0.1891
  194loPI   C3A 3097  17.563  14.815   7.537  0.0098 -0.0694  0.1613
  194loPI   C4A 3098  17.422  14.822   7.072  0.1295  0.0334  0.2789
  194loPI   C5A 3099  17.591  14.991   6.648  0.0914 -0.4304 -0.4729
  194loPI   C6A 3100  17.649  14.786   6.249 -0.1098 -0.1297  0.0058
  194loPI   C1B 3101  18.299  14.872   8.136  0.3112 -0.1265 -0.0115
  194loPI   C2B 3102  18.080  14.940   7.793 -0.2472  0.2328  0.0859
  194loPI   C3B 3103  18.092  14.670   7.459  0.0083  0.2587  0.2080
  194loPI   C4B 3104  18.020  14.400   7.171  0.0642 -0.0645  0.0559
  195loPI    C1 3105  16.624  11.199   9.339 -0.0229  0.0538  0.0063
  195loPI    C2 3106  16.284  11.401   9.274  0.0311  0.0806 -0.2014
  195loPI    C3 3107  16.552  11.539   9.537 -0.2171 -0.0584  0.1322
  195loPI   PO4 3108  16.585  11.050   9.111  0.0349  0.1385  0.0459
  195loPI   GL1 3109  16.232  10.867   8.723  0.1282  0.0796 -0.1558
  195loPI   GL2 3110  15.937  10.939   8.531 -0.3527 -0.1518 -0.0520
  195loPI   C1A 3111  16.449  11.111   8.498 -0.1519 -0.0861 -0.1352
  195loPI   C2A 3112  16.490  10.963   8.050 -0.2805 -0.0278  0.0526
  195loPI   C3A 3113  16.574  10.725   7.717 -0.3455  0.1657 -0.0819
  195loPI   C4A 3114  16.345  10.740   7.312 -0.3456 -0.0721 -0.1159
  195loPI   C5A 3115  16.177  10.411   7.073  0.0346  0.0098  0.3006
  195loPI   C6A 3116  15.985  10.227   6.740  0.0441  0.0584  0.0882
  195loPI   C1B 3117  15.953  10.984   8.074  0.0615  0.1766  0.0048
  195loPI   C2B 3118  16.108  11.162   7.695  0.0409  0.2179 -0.1207
  195loPI   C3B 3119  16.293  11.238   7.269  0.5590 -0.1627 -0.2047
  195loPI   C4B 3120  16.106  11.508   6.961 -0.1357 -0.2018 -0.0890
  196loPI    C1 3121   0.785   1.872   9.841 -0.1391 -0.0519  0.1733
  196loPI    C2 3122   0.610   2.213   9.956 -0.0369 -0.0114  0.2094
  196loPI    C3 3123   1.004   2.162  10.008  0.0324  0.0517 -0.2205
  196loPI   PO4 3124   0.739   1.810   9.596  0.0637  0.1898  0.0606
  196loPI   GL1 3125   1.002   1.839   9.228 -0.0286 -0.1449  0.0074
  196loPI   GL2 3126   0.727   1.795   9.114 -0.0471 -0.0116 -0.0012
  196loPI   C1A 3127   1.155   2.129   8.856  0.1201  0.1151  0.0485
  196loPI   C2A 3128   1.237   2.336   8.456 -0.0689 -0.0895 -0.1860
  196loPI   C3A 3129   1.345   2.337   8.035  0.0675  0.0805  0.1968
  196loPI   C4A 3130   1.277   2.410   7.576 -0.2632  0.1314  0.1747
  196loPI   C5A 3131   1.529   2.351   7.200 -0.5021 -0.1098 -0.1461
  196loPI   C6A 3132   1.851   2.211   7.130 -0.3734 -0.0102 -0.0285
  196loPI   C1B 3133   0.598   2.160   8.886 -0.1054  0.0727  0.0745
  196loPI   C2B 3134   0.677   2.205   8.444 -0.1394 -0.0148 -0.1879
  196loPI   C3B 3135   0.967   2.005   8.190 -0.0786 -0.0213 -0.2818
  196loPI   C4B 3136   0.883   1.634   7.966  0.0445  0.0319 -0.1500
  197loPI    C1 3137   7.705  12.564   9.989 -0.1007  0.2054 -0.1203
  197loPI    C2 3138   7.483  12.897   9.984 -0.3849  0.0225  0.0040
  197loPI    C3 3139   7.453  12.642  10.290 -0.1528 -0.1082 -0.0792
  197loPI   PO4 3140   7.686  12.539   9.693 -0.0226  0.0105 -0.0743
  197loPI   GL1 3141   7.601  12.817   9.361  0.0163 -0.0295  0.1770
  197loPI   GL2 3142   7.401  12.740   9.082 -0.1665  0.0368 -0.0289
  197loPI   C1A 3143   7.973  12.788   8.992 -0.2868 -0.0685  0.3281
  197loPI   C2A 3144   8.167  12.641   8.615 -0.1354 -0.3514 -0.0979
  197loPI   C3A 3145   8.137  12.631   8.243 -0.1663  0.1572 -0.1676
  197loPI   C4A 3146   8.104  12.472   7.828  0.2031  0.0661 -0.1938
  197loPI   C5A 3147   8.094  12.186   7.394 -0.0736  0.1282  0.0447
  197loPI   C6A 3148   8.279  11.901   7.235  0.2836 -0.2347 -0.0634
  197loPI   C1B 3149   7.394  12.577   8.681 -0.4227 -0.0682  0.0385
  197loPI   C2B 3150   7.652  12.794   8.323 -0.0611  0.2875 -0.0259
  197loPI   C3B 3151   7.616  12.743   7.847 -0.2226  0.2595 -0.0442
  197loPI   C4B 3152   7.733  12.518   7.496 -0.3489  0.1554  0.1676
  198loPI    C1 3153   9.132  13.542   9.739  0.1840  0.0330  0.1575
  198loPI    C2 3154   8.763  13.614   9.876  0.0953  0.2194 -0.1682
  198loPI    C3 3155   9.078  13.796  10.042  0.0678 -0.0956  0.2462
  198loPI   PO4 3156   9.127  13.233   9.648 -0.0425 -0.3090 -0.0906
  198loPI   GL1 3157   9.237  13.141   9.305 -0.2172 -0.0402  0.0436
  198loPI   GL2 3158   8.996  12.743   9.399 -0.2626  0.0144 -0.1442
  198loPI   C1A 3159   9.093  12.991   8.965 -0.0261 -0.1187  0.0364
  198loPI   C2A 3160   9.129  12.945   8.543  0.0492  0.1286  0.3119
  198loPI   C3A 3161   9.087  13.010   8.141  0.1678 -0.2416  0.1053
  198loPI   C4A 3162   8.826  13.050   7.654 -0.0485 -0.2661 -0.3439
  198loPI   C5A 3163   8.810  13.375   7.357 -0.1590  0.2667  0.0396
  198loPI   C6A 3164   8.618  13.601   7.068 -0.0356  0.0954  0.0546
  198loPI   C1B 3165   8.885  12.535   9.086 -0.0103 -0.0509 -0.1965
  198loPI   C2B 3166   8.822  12.499   8.662  0.2210  0.0514  0.5316
  198loPI   C3B 3167   8.635  12.645   8.315  0.0432 -0.0458  0.4494
  198loPI   C4B 3168   8.532  12.671   7.872  0.0674 -0.0881 -0.1114
  199loPI    C1 3169   5.966   0.923   9.959  0.0553  0.0117 -0.1947
  199loPI    C2 3170   5.810   1.120  10.271  0.1441 -0.0184 -0.1308
  199loPI    C3 3171   6.096   0.846  10.330  0.0912 -0.0957 -0.2291
  199loPI   PO4 3172   6.071   1.109   9.742 -0.1002 -0.0689 -0.0581
  199loPI   GL1 3173   6.062   1.069   9.266 -0.2999 -0.0679 -0.0102
  199loPI   GL2 3174   6.172   1.449   9.335 -0.0783  0.3406 -0.2968
  199loPI   C1A 3175   5.994   1.168   8.829 -0.0076 -0.0677  0.0043
  199loPI   C2A 3176   6.106   1.172   8.426  0.0331  0.0645 -0.2213
  199loPI   C3A 3177   6.343   1.208   8.149  0.0083  0.1648  0.1846
  199loPI   C4A 3178   6.394   1.183   7.743 -0.1477 -0.2388 -0.0916
  199loPI   C5A 3179   6.344   0.944   7.354  0.0533  0.0432 -0.1952
  199loPI   C6A 3180   6.193   1.139   6.990 -0.1434 -0.2952 -0.1556
  199loPI   C1B 3181   6.396   1.778   9.057 -0.3109 -0.2664 -0.2838
  199loPI   C2B 3182   6.400   2.084   8.871  0.0159 -0.2984 -0.1381
  199loPI   C3B 3183   6.037   2.356   8.883  0.0872 -0.1117 -0.0988
  199loPI   C4B 3184   5.798   2.613   8.684 -0.0507  0.1869  0.1417
  200loPI    C1 3185  12.569  19.373   9.243 -0.0787  0.1881  0.1320
  200loPI    C2 3186  12.840  19.325   9.533 -0.1453  0.1078  0.1811
  200loPI    C3 3187  12.689  19.688   9.458 -0.1303  0.1281  0.2491
  200loPI   PO4 3188  12.649  19.301   9.062  0.4367 -0.1098 -0.2847
  200loPI   GL1 3189  12.778  19.425   8.614  0.1065 -0.0136  0.1293
  200loPI   GL2 3190  12.447  19.192   8.526 -0.5753  0.2671  0.0213
  200loPI   C1A 3191  12.811  19.528   8.144 -0.1691 -0.0450  0.1777
  200loPI   C2A 3192  12.892  19.688   7.767  0.4359 -0.0638 -0.0671
  200loPI   C3A 3193  12.709  19.541   7.379  0.0487 -0.2264  0.1497
  200loPI   C4A 3194  12.712  19.645   6.972 -0.0771  0.0831 -0.2406
  200loPI   C5A 3195  12.813  19.604   6.612  0.0602 -0.3190 -0.1219
  200loPI   C6A 3196  12.582  19.903   6.433  0.0946  0.0725 -0.3117
  200loPI   C1B 3197  12.847  19.033   8.313  0.1511  0.1594  0.0989
  200loPI   C2B 3198  13.043  19.109   7.895 -0.2551 -0.1218  0.0997
  200loPI   C3B 3199  12.882  19.039   7.525  0.0734 -0.0154 -0.1480
  200loPI   C4B 3200  12.691  18.866   7.210 -0.1553  0.0982 -0.1789
  201loPI    C1 3201  14.430  13.339   9.458  0.2258  0.2531  0.0659
  201loPI    C2 3202  14.217  13.624   9.642  0.1391  0.2292  0.0031
  201loPI    C3 3203  14.374  13.323   9.853 -0.3218 -0.0322 -0.0127
  201loPI   PO4 3204  14.530  13.552   9.265 -0.0615  0.1080 -0.2220
  201loPI   GL1 3205  14.383  13.741   8.953  0.1652 -0.3763 -0.2735
  201loPI   GL2 3206  14.166  13.875   8.824  0.0521 -0.0109  0.0578
  201loPI   C1A 3207  14.457  13.528   8.557 -0.0368 -0.1373  0.1781
  201loPI   C2A 3208  14.560  13.353   8.171  0.0290  0.3594 -0.1213
  201loPI   C3A 3209  14.472  13.279   7.720 -0.4611 -0.3851  0.0006
  201loPI   C4A 3210  14.421  13.343   7.259 -0.0315 -0.2610 -0.0795
  201loPI   C5A 3211  14.312  13.676   6.957  0.0875  0.1398 -0.1786
  201loPI   C6A 3212  14.512  13.927   6.690  0.0823  0.1717  0.1848
  201loPI   C1B 3213  14.115  13.883   8.404 -0.0256  0.0967 -0.2925
  201loPI   C2B 3214  13.988  14.040   8.078  0.1928  0.2759 -0.1621
  201loPI   C3B 3215  13.971  14.341   7.803  0.1418 -0.1157 -0.2461
  201loPI   C4B 3216  13.709  14.460   7.519  0.1505 -0.2061  0.3811
  202loPI    C1 3217  11.424   3.736   9.558  0.0627  0.2470  0.2756
  202loPI    C2 3218  11.208   4.033   9.716  0.0215  0.0608  0.5760
  202loPI    C3 3219  11.169   3.661   9.857 -0.0017 -0.1090  0.1358
  202loPI   PO4 3220  11.577   3.860   9.339 -0.2342 -0.0987  0.3530
  202loPI   GL1 3221  11.533   4.088   8.953 -0.1723  0.3136  0.1826
  202loPI   GL2 3222  11.270   4.286   8.791  0.1241 -0.0080 -0.1577
  202loPI   C1A 3223  11.586   3.909   8.622  0.0886 -0.0041  0.2428
  202loPI   C2A 3224  11.529   4.109   8.288  0.0322 -0.0237 -0.2207
  202loPI   C3A 3225  11.290   4.362   7.881 -0.2795 -0.1876 -0.0667
  202loPI   C4A 3226  11.089   4.215   7.522  0.2093 -0.2267 -0.0256
  202loPI   C5A 3227  10.988   4.140   7.109  0.1080 -0.0465  0.0939
  202loPI   C6A 3228  11.178   4.130   6.699 -0.0109  0.0443  0.0999
  202loPI   C1B 3229  10.839   4.288   8.510 -0.2001 -0.2624 -0.2053
  202loPI   C2B 3230  10.468   4.392   8.364  0.2464 -0.1935 -0.2771
  202loPI   C3B 3231  10.092   4.437   8.527 -0.0101 -0.1209  0.2183
  202loPI   C4B 3232   9.768   4.406   8.868 -0.2876  0.1354  0.3533
  203loPI    C1 3233  19.418   7.633   9.488 -0.0714 -0.1168  0.1404
  203loPI    C2 3234  19.029   7.719   9.531 -0.0683 -0.0902  0.1166
  203loPI    C3 3235  19.302   7.914   9.748 -0.0531  0.0339 -0.0122
  203loPI   PO4 3236  19.490   7.716   9.255 -0.3558  0.1302  0.1189
  203loPI   GL1 3237  19.428   7.483   8.887 -0.1134  0.1964 -0.0435
  203loPI   GL2 3238  19.729   7.320   8.965 -0.0550 -0.2665  0.1872
  203loPI   C1A 3239  19.249   7.560   8.385  0.0476 -0.1480  0.2921
  203loPI   C2A 3240  19.149   7.410   7.967  0.1144 -0.1253 -0.3669
  203loPI   C3A 3241  19.354   7.368   7.627  0.0351  0.4916 -0.1065
  203loPI   C4A 3242  19.604   7.126   7.354  0.0093  0.1663  0.1856
  203loPI   C5A 3243  19.977   6.970   7.194 -0.0087 -0.2552 -0.1970
  203loPI   C6A 3244  20.364   6.652   6.992  0.3509  0.0198 -0.0380
  203loPI   C1B 3245  20.050   7.220   8.663 -0.1761 -0.4340 -0.0272
  203loPI   C2B 3246  20.264   7.220   8.275  0.2349 -0.2788 -0.0233
  203loPI   C3B 3247  20.550   7.116   7.991 -0.0358  0.1843  0.3587
  203loPI   C4B 3248  20.830   6.869   7.738  0.0010 -0.2575  0.0199
  204loPI    C1 3249  -0.085  19.372   9.698  0.1063  0.2082  0.2111
  204loPI    C2 3250   0.120  19.293  10.033  0.0916  0.0955  0.1940
  204loPI    C3 3251   0.085  19.013   9.749 -0.2200  0.0578  0.2660
  204loPI   PO4 3252   0.032  19.629   9.654 -0.2140  0.1370  0.2371
  204loPI   GL1 3253   0.208  19.803   9.230 -0.0573  0.3417 -0.0349
  204loPI   GL2 3254   0.482  19.601   9.102 -0.1716  0.0773 -0.0070
  204loPI   C1A 3255   0.088  19.952   8.858 -0.5302 -0.0184  0.1411
  204loPI   C2A 3256  -0.021  20.067   8.528  0.3729 -0.1061 -0.0192
  204loPI   C3A 3257  -0.081  19.985   8.103 -0.0394 -0.1628 -0.2022
  204loPI   C4A 3258  -0.244  19.740   7.697  0.1596 -0.2581 -0.0614
  204loPI   C5A 3259  -0.494  19.680   7.339 -0.3331 -0.0625 -0.2330
  204loPI   C6A 3260  -0.545  19.610   6.918  0.0779  0.0377 -0.2620
  204loPI   C1B 3261   0.493  19.729   8.695  0.0525  0.1619  0.0018
  204loPI   C2B 3262   0.428  19.828   8.213  0.2435 -0.3532 -0.2121
  204loPI   C3B 3263   0.264  19.803   7.773 -0.1619  0.2524 -0.1947
  204loPI   C4B 3264   0.037  19.840   7.306  0.2022 -0.0860  0.0802
  205loPI    C1 3265  16.577  13.203   9.117 -0.0405 -0.2217  0.0426
  205loPI    C2 3266  16.690  13.550   9.281  0.0411 -0.0892 -0.2879
  205loPI    C3 3267  16.405  13.330   9.456  0.0129  0.1262 -0.0572
  205loPI   PO4 3268  16.848  13.201   8.948  0.2530 -0.1656 -0.0673
  205loPI   GL1 3269  16.990  13.470   8.616 -0.1868 -0.2368 -0.0283
  205loPI   GL2 3270  17.323  13.523   8.522  0.2841 -0.0163 -0.0411
  205loPI   C1A 3271  16.918  13.671   8.256  0.3432  0.2124 -0.1206
  205loPI   C2A 3272  16.912  13.557   7.847  0.0751 -0.1415 -0.3907
  205loPI   C3A 3273  17.063  13.387   7.462  0.3122 -0.2975 -0.2615
  205loPI   C4A 3274  16.917  13.189   7.055  0.3128  0.2059  0.0141
  205loPI   C5A 3275  16.837  12.755   6.750  0.0007  0.1646  0.1825
  205loPI   C6A 3276  16.839  12.244   6.865  0.1817 -0.1974  0.0457
  205loPI   C1B 3277  17.409  13.662   8.125 -0.1590 -0.2776 -0.0148
  205loPI   C2B 3278  17.360  13.846   7.754 -0.1625 -0.2198  0.2287
  205loPI   C3B 3279  17.092  13.915   7.457  0.0482 -0.1941  0.1108
  205loPI   C4B 3280  17.007  13.690   7.093 -0.0900  0.0925 -0.2021
  206loPI    C1 3281   7.096   2.243   9.641  0.1635  0.1308  0.0345
  206loPI    C2 3282   7.380   2.213   9.921  0.0334  0.1267  0.1671
  206loPI    C3 3283   7.088   1.941   9.903 -0.2146  0.3767  0.3177
  206loPI   PO4 3284   7.194   2.281   9.415 -0.0666 -0.0422  0.0176
  206loPI   GL1 3285   7.454   2.285   9.221  0.0899  0.0309  0.1797
  206loPI   GL2 3286   7.336   2.403   8.892 -0.1537 -0.1730  0.2124
  206loPI   C1A 3287   7.785   2.402   8.860  0.0528 -0.0862 -0.1281
  206loPI   C2A 3288   7.717   2.331   8.411 -0.1629 -0.0562  0.2221
  206loPI   C3A 3289   7.655   2.038   8.056 -0.1639  0.4539  0.2918
  206loPI   C4A 3290   7.574   1.702   7.699 -0.2838  0.0529  0.1894
  206loPI   C5A 3291   7.975   1.516   7.535 -0.1331  0.1488 -0.0177
  206loPI   C6A 3292   8.259   1.411   7.173 -0.1454 -0.3901 -0.0632
  206loPI   C1B 3293   7.279   2.606   8.588  0.0355  0.1991  0.0871
  206loPI   C2B 3294   7.418   2.732   8.221 -0.0891  0.0442  0.1795
  206loPI   C3B 3295   7.528   2.500   7.863 -0.1333  0.1487  0.0919
  206loPI   C4B 3296   7.451   2.518   7.423 -0.0257  0.1428  0.1305
  207loPI    C1 3297  14.901   9.841   9.072  0.2260 -0.0739 -0.0787
  207loPI    C2 3298  14.723   9.758   9.421 -0.0882  0.3393 -0.1325
  207loPI    C3 3299  14.894   9.465   9.208 -0.1219  0.0415  0.2401
  207loPI   PO4 3300  14.698   9.905   8.925  0.0540  0.1180 -0.2402
  207loPI   GL1 3301  14.752  10.320   8.690  0.2391 -0.1662  0.1696
  207loPI   GL2 3302  14.803  10.582   8.711 -0.0045  0.2587  0.0934
  207loPI   C1A 3303  14.988  10.396   8.280 -0.3199 -0.1580 -0.1726
  207loPI   C2A 3304  15.082  10.322   7.847 -0.2243 -0.0783  0.1705
  207loPI   C3A 3305  15.259  10.535   7.476  0.0326 -0.4621  0.1899
  207loPI   C4A 3306  15.180  10.683   7.084 -0.1547 -0.1619  0.3638
  207loPI   C5A 3307  15.223  11.101   6.848  0.2066  0.3867  0.1484
  207loPI   C6A 3308  15.590  11.461   6.982  0.1061 -0.0657  0.1470
  207loPI   C1B 3309  14.549  10.666   8.390  0.4109  0.0499 -0.1036
  207loPI   C2B 3310  14.335  10.594   8.022 -0.0052 -0.2112 -0.2675
  207loPI   C3B 3311  14.351  10.733   7.542  0.1723 -0.1516 -0.1966
  207loPI   C4B 3312  14.228  10.898   7.122  0.2829  0.1328 -0.2859
  208loPI    C1 3313  18.472   1.939   8.893  0.0643  0.0868 -0.2260
  208loPI    C2 3314  18.841   2.086   8.845  0.0318  0.2218 -0.0676
  208loPI    C3 3315  18.708   1.992   9.211  0.0088 -0.0905 -0.1539
  208loPI   PO4 3316  18.295   2.081   8.722  0.1114 -0.3206 -0.3582
  208loPI   GL1 3317  18.448   2.361   8.492 -0.2485  0.2081  0.0551
  208loPI   GL2 3318  18.784   2.508   8.532  0.0957 -0.2152  0.1526
  208loPI   C1A 3319  18.236   2.288   8.068  0.0020  0.0645 -0.2532
  208loPI   C2A 3320  18.149   2.269   7.655  0.0999  0.0606 -0.0409
  208loPI   C3A 3321  18.397   2.354   7.294  0.0163 -0.1663 -0.2856
  208loPI   C4A 3322  18.755   2.669   7.112 -0.2917  0.3849  0.1683
  208loPI   C5A 3323  19.072   2.978   6.994  0.0440  0.2481  0.2120
  208loPI   C6A 3324  19.427   3.110   6.693  0.0900 -0.0952  0.0662
  208loPI   C1B 3325  18.771   2.508   8.141  0.1670 -0.0242 -0.3806
  208loPI   C2B 3326  18.718   2.213   7.721 -0.0268 -0.0911  0.0162
  208loPI   C3B 3327  18.884   2.091   7.340 -0.1877  0.3561  0.0803
  208loPI   C4B 3328  19.221   1.945   7.130 -0.0317  0.1903  0.1998
  209loPI    C1 3329   1.958  18.330  10.179 -0.0597 -0.0227 -0.1529
  209loPI    C2 3330   1.747  18.118  10.444 -0.0977 -0.0698 -0.2207
  209loPI    C3 3331   1.607  18.469  10.313  0.1082  0.1468  0.1229
  209loPI   PO4 3332   1.926  18.171   9.932  0.0642  0.1263  0.3136
  209loPI   GL1 3333   2.110  18.110   9.604  0.2012  0.0611 -0.2704
  209loPI   GL2 3334   1.923  18.276   9.340  0.0093 -0.2619  0.2005
  209loPI   C1A 3335   2.276  17.773   9.198  0.1067  0.2582  0.1408
  209loPI   C2A 3336   2.584  17.768   8.915  0.0571 -0.2526 -0.0150
  209loPI   C3A 3337   2.737  17.610   8.530 -0.3109  0.2258 -0.0105
  209loPI   C4A 3338   2.894  17.770   8.214  0.4065 -0.0855 -0.0586
  209loPI   C5A 3339   3.035  18.098   7.960  0.1286  0.4113 -0.0253
  209loPI   C6A 3340   3.067  18.361   7.536 -0.0350 -0.1020  0.0606
  209loPI   C1B 3341   1.874  18.406   8.865 -0.2945 -0.4010 -0.0209
  209loPI   C2B 3342   1.759  18.259   8.403  0.0533 -0.0740  0.1052
  209loPI   C3B 3343   1.977  18.344   8.099 -0.2079  0.1060 -0.0703
  209loPI   C4B 3344   2.200  18.686   7.966 -0.2089 -0.1044 -0.3127
  210loPI    C1 3345   4.841   2.507   9.927  0.0607 -0.0651  0.0096
  210loPI    C2 3346   5.078   2.783  10.095 -0.0965 -0.0368  0.1879
  210loPI    C3 3347   5.114   2.398  10.199 -0.1387 -0.0304  0.2259
  210loPI   PO4 3348   4.896   2.534   9.703  0.1645  0.1552 -0.4577
  210loPI   GL1 3349   4.859   2.356   9.375  0.2529 -0.1458  0.1720
  210loPI   GL2 3350   4.487   2.334   9.396  0.0048  0.0432  0.0843
  210loPI   C1A 3351   4.866   2.044   8.972 -0.3299 -0.0944  0.1380
  210loPI   C2A 3352   4.860   1.911   8.518  0.3171  0.0892 -0.0121
  210loPI   C3A 3353   5.039   1.769   8.084  0.2910  0.1211  0.3572
  210loPI   C4A 3354   5.072   1.652   7.634  0.1145 -0.2257 -0.2692
  210loPI   C5A 3355   4.924   1.392   7.348  0.0424  0.0757  0.2120
  210loPI   C6A 3356   4.913   0.914   7.333 -0.1220 -0.0013 -0.0861
  210loPI   C1B 3357   4.413   2.274   8.926 -0.1005 -0.0008 -0.0825
  210loPI   C2B 3358   4.386   2.115   8.476  0.2754  0.1412  0.1705
  210loPI   C3B 3359   4.233   2.292   8.025 -0.0804  0.1318 -0.0189
  210loPI   C4B 3360   4.116   2.700   7.880 -0.0410  0.1737  0.2025
  211loPI    C1 3361  12.808  17.531   9.380  0.0031  0.0292  0.1321
  211loPI    C2 3362  12.725  17.534   9.771 -0.0916 -0.2455  0.1160
  211loPI    C3 3363  12.693  17.194   9.562  0.0499 -0.1211 -0.1116
  211loPI   PO4 3364  13.107  17.669   9.289  0.3852 -0.0158 -0.1861
  211loPI   GL1 3365  13.313  17.582   8.794 -0.2298 -0.1940 -0.0018
  211loPI   GL2 3366  13.342  17.964   8.639 -0.2656 -0.1012 -0.0305
  211loPI   C1A 3367  13.333  17.298   8.455 -0.0370 -0.1961  0.0604
  211loPI   C2A 3368  13.412  17.096   8.087 -0.2655 -0.0883  0.0119
  211loPI   C3A 3369  13.508  17.066   7.664 -0.0541  0.1154  0.3705
  211loPI   C4A 3370  13.509  16.867   7.294 -0.3244 -0.0734 -0.0181
  211loPI   C5A 3371  13.304  16.592   7.065  0.0493 -0.0683  0.1898
  211loPI   C6A 3372  12.815  16.465   7.074  0.1981 -0.0581  0.1922
  211loPI   C1B 3373  13.613  17.763   8.367  0.3635  0.0076  0.1790
  211loPI   C2B 3374  13.704  17.583   8.069 -0.1534 -0.3884 -0.0857
  211loPI   C3B 3375  13.776  17.493   7.632  0.1294  0.3821 -0.0422
  211loPI   C4B 3376  13.834  17.226   7.265 -0.1295  0.0167 -0.2095
  212loPI    C1 3377  14.305  17.502   9.445 -0.0292  0.0239 -0.0524
  212loPI    C2 3378  14.371  17.824   9.672 -0.0044  0.0923 -0.1562
  212loPI    C3 3379  14.499  17.465   9.793 -0.0698  0.1139 -0.0200
  212loPI   PO4 3380  14.159  17.499   9.335  0.1542  0.1289 -0.0167
  212loPI   GL1 3381  14.173  17.722   8.998 -0.2445  0.0330  0.0287
  212loPI   GL2 3382  13.907  17.638   8.742  0.0656  0.2289 -0.0763
  212loPI   C1A 3383  14.304  17.321   8.737  0.0449 -0.0214 -0.0513
  212loPI   C2A 3384  14.376  17.015   8.394  0.1406 -0.0081 -0.1010
  212loPI   C3A 3385  14.417  16.805   8.031  0.2335  0.1940  0.2731
  212loPI   C4A 3386  14.448  16.626   7.587 -0.0574  0.2476 -0.4405
  212loPI   C5A 3387  14.475  16.588   7.171  0.0051 -0.1639  0.0384
  212loPI   C6A 3388  14.267  16.445   6.858 -0.0913  0.2113 -0.1098
  212loPI   C1B 3389  14.129  17.658   8.339  0.0253 -0.3285  0.2398
  212loPI   C2B 3390  14.155  17.693   7.865  0.0012 -0.0470 -0.0868
  212loPI   C3B 3391  14.275  17.587   7.378  0.2174  0.2396  0.0786
  212loPI   C4B 3392  14.693  17.569   7.185 -0.3383  0.2275 -0.5413
  213loPI    C1 3393  18.672   9.703   9.012  0.1041  0.0507 -0.1691
  213loPI    C2 3394  18.707   9.796   9.400  0.1707  0.0914 -0.1847
  213loPI    C3 3395  18.574   9.435   9.292  0.2263  0.0525 -0.1237
  213loPI   PO4 3396  18.758   9.896   8.909  0.0391 -0.0694  0.0594
  213loPI   GL1 3397  18.587  10.013   8.554  0.0105  0.0740  0.3193
  213loPI   GL2 3398  18.875   9.768   8.454 -0.2861 -0.1421  0.5442
  213loPI   C1A 3399  18.527  10.030   8.076  0.2058  0.0342  0.2455
  213loPI   C2A 3400  18.470   9.841   7.684 -0.0322 -0.1869 -0.3877
  213loPI   C3A 3401  18.508   9.565   7.458 -0.3042 -0.1088  0.2708
  213loPI   C4A 3402  18.517   9.161   7.256  0.1342 -0.1728 -0.0203
  213loPI   C5A 3403  18.548   9.041   6.812 -0.1895 -0.3368  0.1070
  213loPI   C6A 3404  18.425   8.905   6.478  0.0871  0.1200  0.2620
  213loPI   C1B 3405  18.623   9.565   8.232 -0.1204 -0.0061  0.0074
  213loPI   C2B 3406  18.785   9.445   7.881 -0.0365 -0.1151 -0.0816
  213loPI   C3B 3407  18.919   9.143   7.632  0.0840  0.2778 -0.1121
  213loPI   C4B 3408  18.975   8.853   7.231 -0.1992 -0.0059  0.0793
  214loPI    C1 3409   7.234   9.638   9.983 -0.0675  0.1288 -0.3156
  214loPI    C2 3410   6.896   9.848  10.022 -0.0954  0.0373 -0.0438
  214loPI    C3 3411   7.161   9.837  10.322  0.0239 -0.1093 -0.1527
  214loPI   PO4 3412   7.390   9.680   9.714  0.0442 -0.0339  0.1786
  214loPI   GL1 3413   7.658   9.681   9.308  0.1569  0.1181 -0.2385
  214loPI   GL2 3414   7.625   9.393   9.343 -0.2216 -0.0835 -0.0549
  214loPI   C1A 3415   7.677   9.995   9.141 -0.0642 -0.0337 -0.2233
  214loPI   C2A 3416   7.462  10.360   8.887 -0.1796  0.2313  0.3563
  214loPI   C3A 3417   7.175  10.407   8.577 -0.2853  0.2035 -0.1881
  214loPI   C4A 3418   7.178  10.527   8.138 -0.1240  0.3401 -0.1518
  214loPI   C5A 3419   6.845  10.543   7.858  0.2557  0.1858 -0.1539
  214loPI   C6A 3420   6.419  10.667   7.650  0.0692  0.0995 -0.0903
  214loPI   C1B 3421   7.485   9.341   8.883  0.0451  0.2133 -0.1838
  214loPI   C2B 3422   7.622   9.249   8.533 -0.1655  0.2476 -0.0188
  214loPI   C3B 3423   7.518   9.214   8.189  0.0310  0.2316  0.0209
  214loPI   C4B 3424   7.396   9.293   7.792  0.2125  0.1068  0.1609
  215loPI    C1 3425   3.107  10.752   9.751 -0.1783  0.3345  0.0603
  215loPI    C2 3426   3.483  10.668   9.859 -0.1720 -0.1800 -0.3245
  215loPI    C3 3427   3.192  10.670  10.134  0.1012  0.2109 -0.0256
  215loPI   PO4 3428   3.024  10.661   9.548  0.1569  0.2394  0.2511
  215loPI   GL1 3429   2.999  10.843   9.221 -0.1919 -0.5180  0.1474
  215loPI   GL2 3430   3.075  10.564   9.043 -0.0014 -0.2841  0.2212
  215loPI   C1A 3431   3.236  11.001   8.859 -0.1048 -0.0988  0.2623
  215loPI   C2A 3432   3.048  11.111   8.434 -0.1685 -0.4386 -0.0716
  215loPI   C3A 3433   3.036  11.027   8.018  0.0030  0.2347 -0.1403
  215loPI   C4A 3434   3.129  10.908   7.544  0.2488 -0.1226  0.2060
  215loPI   C5A 3435   3.164  10.893   7.133 -0.4010 -0.3318 -0.0992
  215loPI   C6A 3436   3.139  10.896   6.674 -0.1508 -0.0503  0.2586
  215loPI   C1B 3437   3.336  10.601   8.624  0.4633 -0.1235 -0.1086
  215loPI   C2B 3438   3.244  10.580   8.207  0.2378  0.2073 -0.1936
  215loPI   C3B 3439   3.229  10.523   7.810 -0.1834 -0.0708 -0.3995
  215loPI   C4B 3440   3.129  10.330   7.503  0.1878 -0.1206  0.1221
  216loPI    C1 3441   0.999  19.879   9.763  0.2334  0.3304 -0.3682
  216loPI    C2 3442   1.365  19.777   9.887  0.0843  0.0750 -0.1283
  216loPI    C3 3443   1.153  20.048  10.091  0.0259  0.0062 -0.0971
  216loPI   PO4 3444   0.915  19.578   9.702  0.2877  0.3918  0.3624
  216loPI   GL1 3445   0.897  19.400   9.312 -0.3085 -0.3074  0.3479
  216loPI   GL2 3446   1.250  19.404   9.379  0.2563 -0.2644 -0.0180
  216loPI   C1A 3447   0.916  19.362   8.841 -0.3086  0.1478  0.0106
  216loPI   C2A 3448   1.073  19.502   8.396  0.3105 -0.0062 -0.0476
  216loPI   C3A 3449   0.920  19.497   7.963 -0.1256 -0.1548  0.1808
  216loPI   C4A 3450   1.037  19.369   7.551 -0.3232 -0.0418 -0.0092
  216loPI   C5A 3451   1.391  19.268   7.227  0.3106  0.4029 -0.2397
  216loPI   C6A 3452   1.763  19.419   7.319 -0.0064 -0.0368 -0.4583
  216loPI   C1B 3453   1.418  19.145   8.970 -0.0403 -0.0433  0.3356
  216loPI   C2B 3454   1.306  19.103   8.577 -0.0616 -0.2652 -0.1732
  216loPI   C3B 3455   1.479  19.306   8.199  0.0538 -0.1832 -0.2954
  216loPI   C4B 3456   1.557  19.318   7.769  0.1962 -0.0475 -0.0437
  217loPI    C1 3457  14.391  18.665   9.176 -0.0540 -0.4368 -0.0361
  217loPI    C2 3458  14.187  18.722   9.516 -0.0434  0.0137 -0.0996
  217loPI    C3 3459  14.587  18.715   9.521 -0.0458 -0.1516 -0.0798
  217loPI   PO4 3460  14.315  18.890   8.965 -0.0968 -0.1681 -0.1837
  217loPI   GL1 3461  14.289  19.064   8.554  0.0143 -0.0509 -0.3552
  217loPI   GL2 3462  14.242  18.659   8.514 -0.1653  0.1400  0.0667
  217loPI   C1A 3463  14.304  19.332   8.149  0.1403 -0.0627  0.1411
  217loPI   C2A 3464  14.370  19.522   7.737 -0.3625  0.1198 -0.3316
  217loPI   C3A 3465  14.458  19.245   7.504  0.0333  0.1754  0.1636
  217loPI   C4A 3466  14.408  18.929   7.152 -0.1622  0.1205  0.0828
  217loPI   C5A 3467  14.448  19.024   6.729  0.1093  0.0825  0.0057
  217loPI   C6A 3468  14.323  18.887   6.320 -0.0474  0.0201  0.2361
  217loPI   C1B 3469  14.333  18.756   8.084  0.0033 -0.1292  0.2887
  217loPI   C2B 3470  14.697  18.937   7.819 -0.0466 -0.0651  0.0694
  217loPI   C3B 3471  14.889  19.027   7.459 -0.1720  0.1020 -0.1332
  217loPI   C4B 3472  14.846  19.124   7.041  0.0713  0.1120  0.3074
  218loPI    C1 3473  12.441   0.161   9.567 -0.3669  0.4334 -0.0966
  218loPI    C2 3474  12.799   0.252   9.721 -0.4177  0.3767  0.0575
  218loPI    C3 3475  12.546   0.021   9.927 -0.3053 -0.0912 -0.3095
  218loPI   PO4 3476  12.462   0.181   9.241  0.1977 -0.1023 -0.2073
  218loPI   GL1 3477  12.666   0.195   8.743 -0.0236  0.0711 -0.2262
  218loPI   GL2 3478  12.948  -0.037   8.602  0.2445  0.1729  0.0986
  218loPI   C1A 3479  12.537   0.054   8.451 -0.4033  0.0083 -0.0133
  218loPI   C2A 3480  12.652   0.044   8.042 -0.0448  0.0612 -0.1386
  218loPI   C3A 3481  12.603   0.422   7.792  0.4260 -0.2003  0.1718
  218loPI   C4A 3482  12.259   0.619   7.619 -0.1504 -0.1634 -0.1421
  218loPI   C5A 3483  11.896   0.860   7.771  0.0290  0.0383  0.1191
  218loPI   C6A 3484  11.655   1.191   7.996  0.0336  0.3158 -0.1243
  218loPI   C1B 3485  13.182   0.106   8.216 -0.0014  0.0269  0.3804
  218loPI   C2B 3486  13.060   0.234   7.742 -0.2908 -0.0092  0.0362
  218loPI   C3B 3487  13.074   0.570   7.521 -0.3114 -0.1116  0.0608
  218loPI   C4B 3488  13.081   0.747   7.027  0.1889  0.1043  0.0409
  219loPI    C1 3489   4.962  12.559   9.740 -0.2440  0.0853  0.0654
  219loPI    C2 3490   5.261  12.738   9.935  0.0606 -0.1554 -0.1699
  219loPI    C3 3491   4.939  12.949   9.825  0.0863  0.0803  0.1893
  219loPI   PO4 3492   5.168  12.389   9.561  0.2448 -0.0901  0.0548
  219loPI   GL1 3493   5.471  12.381   9.257 -0.0091 -0.3261  0.2386
  219loPI   GL2 3494   5.775  12.513   9.226  0.3287 -0.1408 -0.3009
  219loPI   C1A 3495   5.456  12.479   8.779 -0.1743  0.0208  0.2290
  219loPI   C2A 3496   5.432  12.518   8.258  0.1259 -0.3036 -0.2122
  219loPI   C3A 3497   5.621  12.549   7.794 -0.3576  0.0377  0.2502
  219loPI   C4A 3498   5.531  12.684   7.341  0.1877 -0.1159  0.2012
  219loPI   C5A 3499   5.690  13.057   7.103  0.1355 -0.1473  0.1227
  219loPI   C6A 3500   6.043  13.116   6.854  0.3060 -0.0954  0.2421
  219loPI   C1B 3501   6.105  12.683   8.868  0.5510  0.2669  0.0013
  219loPI   C2B 3502   6.317  12.719   8.523 -0.0958  0.0532 -0.0505
  219loPI   C3B 3503   6.274  13.126   8.215 -0.2650  0.0368 -0.1109
  219loPI   C4B 3504   6.187  13.632   8.181  0.1857  0.2619 -0.0132
  220loPI    C1 3505   6.572  13.438   9.585 -0.1577 -0.0186 -0.1229
  220loPI    C2 3506   6.321  13.516   9.283  0.0501  0.2644 -0.2274
  220loPI    C3 3507   6.284  13.713   9.629 -0.2330 -0.1106 -0.0371
  220loPI   PO4 3508   6.856  13.579   9.545  0.2001 -0.0625  0.0925
  220loPI   GL1 3509   7.137  13.883   9.421  0.0723 -0.4355 -0.6717
  220loPI   GL2 3510   7.068  14.284   9.319  0.0871 -0.1435 -0.1452
  220loPI   C1A 3511   7.192  13.946   8.942 -0.1580 -0.2155 -0.1651
  220loPI   C2A 3512   7.183  14.081   8.397  0.2379  0.3549 -0.0181
  220loPI   C3A 3513   7.196  14.033   7.937 -0.4580 -0.0729  0.3281
  220loPI   C4A 3514   6.950  13.752   7.668 -0.0219 -0.0981 -0.0813
  220loPI   C5A 3515   6.943  13.683   7.191 -0.1952  0.2747  0.1008
  220loPI   C6A 3516   6.952  13.471   6.764  0.0947  0.0237 -0.1626
  220loPI   C1B 3517   7.207  14.430   8.823  0.2021 -0.1990  0.0751
  220loPI   C2B 3518   7.320  14.600   8.473 -0.4380  0.0758 -0.0747
  220loPI   C3B 3519   7.407  14.487   8.016  0.2126 -0.3428 -0.0388
  220loPI   C4B 3520   7.461  14.329   7.664 -0.1594  0.0151  0.2283
  221loPI    C1 3521  16.099   8.556   9.149  0.3030  0.0891  0.0240
  221loPI    C2 3522  16.054   8.413   9.520  0.1788  0.1904  0.0483
  221loPI    C3 3523  15.959   8.793   9.439 -0.1088  0.0776 -0.1594
  221loPI   PO4 3524  16.004   8.480   8.977 -0.2411 -0.0939 -0.1062
  221loPI   GL1 3525  15.676   8.474   8.593  0.1791 -0.2616  0.1664
  221loPI   GL2 3526  15.880   8.402   8.371 -0.2710 -0.0592 -0.1353
  221loPI   C1A 3527  15.517   8.812   8.257  0.3704  0.3039 -0.0744
  221loPI   C2A 3528  15.599   9.030   7.972  0.0404  0.4572 -0.0314
  221loPI   C3A 3529  15.461   9.149   7.519 -0.1517  0.0285  0.2039
  221loPI   C4A 3530  15.297   9.507   7.266 -0.1653  0.1752  0.0848
  221loPI   C5A 3531  15.362   9.667   6.833 -0.0592  0.1024  0.1563
  221loPI   C6A 3532  15.236   9.876   6.466 -0.2648 -0.1413 -0.2949
  221loPI   C1B 3533  15.878   8.586   7.978 -0.0147  0.2277 -0.1836
  221loPI   C2B 3534  15.644   8.616   7.595  0.1349 -0.0613 -0.2103
  221loPI   C3B 3535  15.248   8.669   7.414  0.1440  0.3305 -0.4040
  221loPI   C4B 3536  15.068   9.065   7.161  0.3700  0.0612  0.3550
  222loPI    C1 3537  18.113   4.662   9.475  0.0730  0.1146 -0.0335
  222loPI    C2 3538  18.214   4.425   9.781  0.2270  0.1485 -0.0568
  222loPI    C3 3539  17.941   4.713   9.832  0.2663  0.1664  0.0539
  222loPI   PO4 3540  18.100   4.529   9.304  0.2083  0.2156  0.0922
  222loPI   GL1 3541  18.148   4.256   8.908 -0.1515  0.0575 -0.0884
  222loPI   GL2 3542  18.503   4.204   8.825  0.1366 -0.0596  0.0762
  222loPI   C1A 3543  17.869   4.369   8.573  0.0209 -0.0290  0.3131
  222loPI   C2A 3544  17.586   4.218   8.251 -0.4970  0.1154 -0.3039
  222loPI   C3A 3545  17.597   3.996   7.746  0.0343 -0.0014 -0.2502
  222loPI   C4A 3546  17.789   4.087   7.266 -0.1506  0.2983 -0.2749
  222loPI   C5A 3547  17.855   4.195   6.887 -0.1029 -0.2212 -0.2654
  222loPI   C6A 3548  17.706   4.397   6.495  0.0045 -0.1717 -0.0394
  222loPI   C1B 3549  18.489   4.539   8.498  0.3329  0.0778  0.2747
  222loPI   C2B 3550  18.393   4.655   7.990  0.6340  0.1920 -0.2072
  222loPI   C3B 3551  18.475   4.867   7.659 -0.1796  0.0400 -0.0427
  222loPI   C4B 3552  18.143   4.914   7.337  0.0603  0.1956 -0.1592
  223loPI    C1 3553  19.130  18.706   9.819  0.4170 -0.1061  0.3006
  223loPI    C2 3554  18.865  18.447   9.969  0.1179 -0.1359 -0.2534
  223loPI    C3 3555  18.809  18.840  10.016  0.1538 -0.1499 -0.0879
  223loPI   PO4 3556  19.177  18.629   9.609 -0.3426 -0.0138 -0.1222
  223loPI   GL1 3557  19.536  18.821   9.317 -0.0650  0.3530  0.2696
  223loPI   GL2 3558  19.689  18.959   9.335 -0.2546 -0.2342  0.2030
  223loPI   C1A 3559  19.424  18.722   8.922  0.0368  0.2232 -0.2038
  223loPI   C2A 3560  19.410  18.858   8.556 -0.3380  0.3129  0.1599
  223loPI   C3A 3561  19.499  18.708   8.131 -0.1864  0.1622 -0.0530
  223loPI   C4A 3562  19.606  18.414   7.767  0.0642 -0.0657 -0.2261
  223loPI   C5A 3563  19.480  18.097   7.436  0.0981  0.1892  0.0239
  223loPI   C6A 3564  19.477  17.909   7.089  0.3130 -0.0218 -0.0673
  223loPI   C1B 3565  19.927  18.981   8.902 -0.1343  0.2290  0.2978
  223loPI   C2B 3566  19.893  18.949   8.406 -0.0548  0.0228 -0.0150
  223loPI   C3B 3567  19.980  18.717   8.021  0.0098  0.0525 -0.0737
  223loPI   C4B 3568  20.055  18.484   7.620 -0.2523  0.2888  0.0072
  224loPI    C1 3569  19.885  14.353   9.356  0.2416  0.0902 -0.0455
  224loPI    C2 3570  20.045  14.012   9.220 -0.1292 -0.1138  0.0152
  224loPI    C3 3571  19.848  14.016   9.568  0.1410  0.2357  0.1709
  224loPI   PO4 3572  19.830  14.460   9.128  0.1075  0.0813  0.3466
  224loPI   GL1 3573  19.874  14.204   8.751  0.0926  0.3239 -0.1853
  224loPI   GL2 3574  20.223  14.233   8.847 -0.0699 -0.1673 -0.0316
  224loPI   C1A 3575  20.112  14.248   8.390  0.0166  0.0249  0.1519
  224loPI   C2A 3576  20.302  14.531   8.127 -0.0332  0.0978  0.0776
  224loPI   C3A 3577  20.435  14.611   7.645 -0.1983 -0.1619 -0.3828
  224loPI   C4A 3578  20.548  14.893   7.411  0.0279 -0.0381 -0.0767
  224loPI   C5A 3579  20.490  15.196   7.085 -0.1992 -0.0856  0.1396
  224loPI   C6A 3580  20.391  15.668   6.906  0.3143 -0.0703 -0.2095
  224loPI   C1B 3581  20.436  14.554   8.597  0.3612  0.0864 -0.0901
  224loPI   C2B 3582  20.650  14.900   8.399  0.1819 -0.1687 -0.1065
  224loPI   C3B 3583  20.601  15.000   7.963  0.1604  0.3343  0.1824
  224loPI   C4B 3584  20.717  15.247   7.610 -0.1841 -0.2837  0.1495
  225loPI    C1 3585  19.097   9.472   9.416  0.1864 -0.1668  0.2222
  225loPI    C2 3586  19.243   9.840   9.358  0.1912 -0.2170 -0.1031
  225loPI    C3 3587  19.087   9.740   9.712  0.2473  0.0775  0.0073
  225loPI   PO4 3588  19.003   9.300   9.160  0.2984  0.0158  0.0176
  225loPI   GL1 3589  18.854   9.275   8.736 -0.2641 -0.2426 -0.1493
  225loPI   GL2 3590  18.640   9.163   8.731 -0.0243 -0.0403 -0.0162
  225loPI   C1A 3591  19.077   9.285   8.405 -0.1814  0.1476 -0.1498
  225loPI   C2A 3592  19.143   9.074   8.104 -0.0202 -0.2247  0.1289
  225loPI   C3A 3593  19.231   8.742   7.863 -0.3025 -0.2213 -0.0715
  225loPI   C4A 3594  19.549   8.597   7.656 -0.1645 -0.1533 -0.1264
  225loPI   C5A 3595  19.702   8.262   7.350  0.0123  0.0929 -0.0190
  225loPI   C6A 3596  19.542   8.067   6.937  0.0371 -0.1376  0.0069
  225loPI   C1B 3597  18.435   9.055   8.441 -0.0249 -0.0562  0.0457
  225loPI   C2B 3598  18.439   9.096   7.964 -0.0292  0.1366  0.0382
  225loPI   C3B 3599  18.180   8.998   7.528 -0.1965 -0.0783 -0.0077
  225loPI   C4B 3600  18.017   9.027   6.974  0.0127  0.1093 -0.0920
  226loPI    C1 3601   2.336   9.960   9.499  0.1335 -0.1502 -0.1033
  226loPI    C2 3602   2.239   9.891   9.881 -0.1388  0.2511 -0.0947
  226loPI    C3 3603   2.623   9.926   9.775 -0.0605  0.1060  0.1354
  226loPI   PO4 3604   2.129  10.101   9.376 -0.2936  0.0739 -0.0164
  226loPI   GL1 3605   2.198   9.783   8.964  0.0575 -0.1341 -0.0881
  226loPI   GL2 3606   2.350  10.055   8.930 -0.0843  0.0832 -0.2330
  226loPI   C1A 3607   2.056   9.813   8.494 -0.2212  0.0247 -0.0553
  226loPI   C2A 3608   1.945   9.712   8.025 -0.2618  0.0243 -0.0224
  226loPI   C3A 3609   1.933   9.595   7.577  0.0495  0.0787  0.0819
  226loPI   C4A 3610   1.899   9.439   7.207 -0.1422  0.1982  0.1055
  226loPI   C5A 3611   2.101   8.896   7.213 -0.0101  0.0389 -0.0347
  226loPI   C6A 3612   2.034   8.634   7.560  0.4837  0.3260  0.0185
  226loPI   C1B 3613   2.454  10.210   8.455  0.1201 -0.0072  0.2628
  226loPI   C2B 3614   2.839  10.177   8.182  0.2128  0.0952 -0.2039
  226loPI   C3B 3615   2.850  10.168   7.877  0.1604 -0.1589  0.0504
  226loPI   C4B 3616   2.811   9.940   7.519  0.1552 -0.0594 -0.1261
  227loPI    C1 3617   9.330   6.778   9.927 -0.0318  0.0168 -0.0144
  227loPI    C2 3618   9.295   6.592  10.279  0.0249  0.0128 -0.0108
  227loPI    C3 3619   9.210   6.982  10.250 -0.0273  0.0021 -0.0034
  227loPI   PO4 3620   9.560   6.603   9.741  0.0015 -0.1323  0.1770
  227loPI   GL1 3621   9.514   6.610   9.316 -0.0674  0.0334 -0.0245
  227loPI   GL2 3622   9.434   6.297   9.402  0.0071  0.0998 -0.0896
  227loPI   C1A 3623   9.637   6.516   8.909 -0.3016 -0.0686 -0.2817
  227loPI   C2A 3624   9.547   6.324   8.552 -0.0514  0.1148  0.1464
  227loPI   C3A 3625   9.283   6.150   8.173 -0.0442  0.1467  0.0508
  227loPI   C4A 3626   9.271   5.795   7.897 -0.0888 -0.1009 -0.1413
  227loPI   C5A 3627   9.335   5.581   7.522 -0.0216 -0.0542  0.1395
  227loPI   C6A 3628   9.378   5.430   7.038  0.1089 -0.1808 -0.3198
  227loPI   C1B 3629   9.158   6.300   8.981  0.1934 -0.4699 -0.2636
  227loPI   C2B 3630   9.040   6.353   8.588 -0.0018 -0.1052  0.1631
  227loPI   C3B 3631   8.851   6.393   8.098  0.1614  0.2324  0.0070
  227loPI   C4B 3632   8.623   6.751   7.802 -0.0318 -0.1187 -0.3055
  228loPI    C1 3633  14.477  12.761   9.181  0.0690 -0.1305  0.1458
  228loPI    C2 3634  14.617  12.748   8.806  0.1728  0.1515  0.1725
  228loPI    C3 3635  14.798  12.537   9.095  0.2880  0.1844  0.1251
  228loPI   PO4 3636  14.141  12.695   9.062  0.1796  0.1986  0.1124
  228loPI   GL1 3637  13.948  12.414   8.755 -0.2884 -0.1562 -0.4597
  228loPI   GL2 3638  13.945  12.748   8.557  0.2617 -0.2856 -0.0884
  228loPI   C1A 3639  13.936  12.152   8.451  0.0635  0.0376 -0.2698
  228loPI   C2A 3640  13.863  11.926   8.131 -0.1601 -0.1674  0.1666
  228loPI   C3A 3641  13.788  11.974   7.735 -0.1132  0.0968  0.1356
  228loPI   C4A 3642  13.714  11.783   7.437  0.0038  0.5143 -0.2577
  228loPI   C5A 3643  13.358  11.551   7.234  0.2296  0.0009  0.0720
  228loPI   C6A 3644  13.513  11.381   6.865  0.1134  0.0706  0.5000
  228loPI   C1B 3645  14.300  12.549   8.359 -0.2503 -0.1494  0.0788
  228loPI   C2B 3646  14.561  12.519   8.101 -0.0836  0.2615  0.1913
  228loPI   C3B 3647  14.779  12.451   7.733  0.0222 -0.1769 -0.1398
  228loPI   C4B 3648  14.853  12.494   7.289  0.2064 -0.1368  0.0356
  229loPI    C1 3649   3.534  19.775  10.200 -0.0385  0.1340  0.1440
  229loPI    C2 3650   3.384  20.082  10.408 -0.1986 -0.1250  0.4173
  229loPI    C3 3651   3.696  19.876  10.551  0.0321  0.0270  0.1429
  229loPI   PO4 3652   3.542  19.877   9.931 -0.1528  0.0536  0.2045
  229loPI   GL1 3653   3.836  19.964   9.551  0.1091 -0.0615  0.0420
  229loPI   GL2 3654   3.755  19.518   9.582 -0.0709 -0.2997 -0.1830
  229loPI   C1A 3655   3.905  19.923   9.167  0.2275  0.0205 -0.0071
  229loPI   C2A 3656   3.711  19.897   8.782  0.0249  0.1420  0.1249
  229loPI   C3A 3657   3.752  19.785   8.416 -0.0741  0.2647 -0.3957
  229loPI   C4A 3658   4.039  19.655   8.156  0.2394  0.0026  0.2864
  229loPI   C5A 3659   4.064  19.903   7.807  0.0825 -0.1595 -0.2191
  229loPI   C6A 3660   4.135  19.862   7.367 -0.0524 -0.3160 -0.0859
  229loPI   C1B 3661   3.641  19.460   9.046 -0.0626 -0.1104 -0.0300
  229loPI   C2B 3662   3.924  19.424   8.757  0.1895  0.0503 -0.0739
  229loPI   C3B 3663   4.316  19.350   8.550  0.0649 -0.0394 -0.0192
  229loPI   C4B 3664   4.623  19.508   8.215  0.0838  0.2195  0.0623
  230loPI    C1 3665  10.105   7.652   9.800 -0.1363  0.0075 -0.1303
  230loPI    C2 3666  10.149   7.286   9.956  0.1015  0.0816 -0.0179
  230loPI    C3 3667   9.916   7.555  10.139  0.1325  0.0688  0.0405
  230loPI   PO4 3668  10.176   7.566   9.520  0.2488  0.2972 -0.0864
  230loPI   GL1 3669   9.954   7.582   9.229  0.1817  0.1017  0.2704
  230loPI   GL2 3670  10.117   7.442   8.928  0.1962 -0.1579 -0.4388
  230loPI   C1A 3671   9.733   7.765   8.902 -0.0535 -0.1204 -0.0364
  230loPI   C2A 3672   9.765   7.685   8.398  0.1787  0.0340  0.2200
  230loPI   C3A 3673   9.616   7.698   7.993  0.0382 -0.2486  0.1969
  230loPI   C4A 3674   9.457   7.694   7.514 -0.4812 -0.2560  0.2864
  230loPI   C5A 3675   9.168   7.465   7.240 -0.3070  0.2556  0.0061
  230loPI   C6A 3676   8.905   7.217   6.977 -0.2383  0.2725  0.0209
  230loPI   C1B 3677  10.095   7.340   8.553 -0.2306 -0.0249  0.1645
  230loPI   C2B 3678  10.098   7.329   8.050  0.0322 -0.1023 -0.0406
  230loPI   C3B 3679  10.195   7.150   7.661 -0.2262  0.1124  0.2322
  230loPI   C4B 3680  10.558   6.874   7.479 -0.4141 -0.2440 -0.0035
  231loPI    C1 3681   8.177   5.185   9.800 -0.0995 -0.1715 -0.1508
  231loPI    C2 3682   7.898   4.940   9.949 -0.0766 -0.0310  0.1309
  231loPI    C3 3683   8.043   5.238  10.173 -0.1120  0.2495 -0.2097
  231loPI   PO4 3684   8.111   5.076   9.520 -0.1207 -0.1768 -0.1601
  231loPI   GL1 3685   7.818   4.978   9.150  0.1642 -0.0643 -0.3027
  231loPI   GL2 3686   7.920   5.324   9.045  0.1782  0.0124 -0.0936
  231loPI   C1A 3687   8.007   4.915   8.808  0.1130 -0.0828  0.1805
  231loPI   C2A 3688   8.185   4.812   8.403  0.0955  0.3114 -0.0255
  231loPI   C3A 3689   8.078   4.516   7.990 -0.1040  0.1262 -0.0899
  231loPI   C4A 3690   7.875   4.431   7.610 -0.2114  0.0470 -0.1960
  231loPI   C5A 3691   7.887   4.198   7.230 -0.0119 -0.0872  0.1690
  231loPI   C6A 3692   7.798   4.028   6.774  0.3008  0.2430  0.5512
  231loPI   C1B 3693   7.598   5.342   8.757  0.2091  0.1289 -0.1533
  231loPI   C2B 3694   7.275   5.564   8.518 -0.0045  0.1068  0.0676
  231loPI   C3B 3695   7.145   5.558   8.200 -0.0052 -0.2776 -0.0673
  231loPI   C4B 3696   7.071   5.143   7.881  0.0898 -0.3548  0.0060
  232loPI    C1 3697  18.600  17.804   9.471  0.1599  0.0700  0.1311
  232loPI    C2 3698  18.289  17.576   9.367  0.2233  0.0786 -0.0826
  232loPI    C3 3699  18.233  17.895   9.602  0.1582 -0.2454  0.3543
  232loPI   PO4 3700  18.676  17.863   9.269  0.1714 -0.1322 -0.1415
  232loPI   GL1 3701  19.033  18.074   9.043  0.1373  0.3342 -0.1254
  232loPI   GL2 3702  18.696  18.127   8.825  0.1977  0.0172 -0.2531
  232loPI   C1A 3703  19.414  18.214   8.879  0.1783  0.1850  0.1377
  232loPI   C2A 3704  19.371  18.372   8.554  0.0646 -0.2797  0.0738
  232loPI   C3A 3705  19.020  18.304   8.216 -0.4378  0.0464 -0.1098
  232loPI   C4A 3706  18.709  18.266   7.945 -0.0011  0.1447  0.1637
  232loPI   C5A 3707  18.560  18.552   7.587  0.0281 -0.1874  0.0279
  232loPI   C6A 3708  18.295  18.835   7.263  0.3466  0.2267  0.1590
  232loPI   C1B 3709  18.927  17.992   8.552  0.0450 -0.0892  0.1469
  232loPI   C2B 3710  18.882  17.666   8.234  0.2637  0.0928  0.1000
  232loPI   C3B 3711  19.114  17.514   7.880  0.1599 -0.2851 -0.2056
  232loPI   C4B 3712  18.898  17.499   7.446 -0.0991 -0.1157 -0.4031
  233loPI    C1 3713   1.987  19.779  10.046  0.0099 -0.0313  0.0977
  233loPI    C2 3714   1.804  19.699  10.392  0.0292 -0.1127  0.0893
  233loPI    C3 3715   2.150  19.898  10.392 -0.0704  0.0630  0.1038
  233loPI   PO4 3716   1.858  19.646   9.903 -0.0218 -0.0183  0.1020
  233loPI   GL1 3717   1.675  19.638   9.526  0.0247 -0.3679 -0.0476
  233loPI   GL2 3718   1.816  19.347   9.362 -0.1020 -0.0030 -0.0708
  233loPI   C1A 3719   1.566  19.685   9.111 -0.3260  0.0545  0.1099
  233loPI   C2A 3720   1.417  19.614   8.728  0.0784  0.0526  0.0163
  233loPI   C3A 3721   1.470  19.806   8.290  0.1418 -0.1352  0.1810
  233loPI   C4A 3722   1.410  19.761   7.869  0.0579 -0.3957  0.0403
  233loPI   C5A 3723   1.376  19.923   7.506 -0.2314  0.0415 -0.1382
  233loPI   C6A 3724   1.161  19.683   7.216  0.0548  0.2090  0.1431
  233loPI   C1B 3725   1.925  19.206   8.943  0.2648 -0.2207  0.2926
  233loPI   C2B 3726   1.911  19.373   8.529 -0.2420  0.0471 -0.1491
  233loPI   C3B 3727   1.977  19.439   8.115  0.1382 -0.2876 -0.3780
  233loPI   C4B 3728   1.936  19.750   7.817 -0.1846  0.1964 -0.0363
  234loPI    C1 3729  16.443   7.988   8.953  0.0710  0.1772  0.1497
  234loPI    C2 3730  16.452   8.178   9.305 -0.1662  0.0754  0.2126
  234loPI    C3 3731  16.133   7.958   9.204  0.0042 -0.0959  0.0386
  234loPI   PO4 3732  16.408   8.185   8.784 -0.0655  0.2379 -0.0528
  234loPI   GL1 3733  16.367   8.130   8.400 -0.1483  0.2004  0.1357
  234loPI   GL2 3734  16.234   7.821   8.429 -0.0605 -0.1407  0.3064
  234loPI   C1A 3735  16.173   8.152   8.049  0.1349  0.0027 -0.1319
  234loPI   C2A 3736  16.088   8.101   7.653 -0.0871 -0.0660  0.3164
  234loPI   C3A 3737  15.740   8.132   7.493  0.0826 -0.2856  0.0457
  234loPI   C4A 3738  15.560   8.332   7.191 -0.0196 -0.0698  0.3117
  234loPI   C5A 3739  15.560   8.681   6.999  0.1327 -0.1583  0.0007
  234loPI   C6A 3740  15.644   8.839   6.467  0.0700 -0.0780  0.0009
  234loPI   C1B 3741  16.251   7.661   7.998  0.1968 -0.1242 -0.0691
  234loPI   C2B 3742  16.343   7.666   7.592  0.1805 -0.0227 -0.1766
  234loPI   C3B 3743  16.027   7.873   7.179  0.1783 -0.1712  0.0599
  234loPI   C4B 3744  15.880   7.978   6.888 -0.0797  0.0112  0.0089
  235loPI    C1 3745  14.276  14.883   9.448 -0.1826 -0.0662 -0.1068
  235loPI    C2 3746  14.194  15.207   9.666  0.0447 -0.1501  0.1078
  235loPI    C3 3747  14.263  14.857   9.847 -0.2203 -0.3253 -0.1229
  235loPI   PO4 3748  14.456  14.920   9.217 -0.2530 -0.1106  0.3107
  235loPI   GL1 3749  14.297  14.892   8.834  0.0707  0.4049  0.3528
  235loPI   GL2 3750  14.674  14.768   8.765  0.2039 -0.2276  0.0898
  235loPI   C1A 3751  14.152  15.142   8.517 -0.1603  0.3702  0.0717
  235loPI   C2A 3752  14.326  15.550   8.457 -0.1163  0.0096  0.0300
  235loPI   C3A 3753  14.417  15.989   8.116  0.0690  0.1262  0.5453
  235loPI   C4A 3754  14.154  16.363   7.886  0.0480  0.1736 -0.0775
  235loPI   C5A 3755  14.069  16.307   7.400 -0.6802 -0.1375  0.1477
  235loPI   C6A 3756  14.047  15.975   7.049  0.2151 -0.1653  0.0534
  235loPI   C1B 3757  14.511  14.769   8.381 -0.3250 -0.0986 -0.2249
  235loPI   C2B 3758  14.260  14.944   8.011 -0.0414  0.3472  0.0724
  235loPI   C3B 3759  14.202  14.796   7.620 -0.1819 -0.1581  0.1643
  235loPI   C4B 3760  14.155  14.585   7.256  0.0575 -0.2225 -0.4299
  236loPI    C1 3761  16.765   5.295   9.293 -0.0690  0.2637 -0.0447
  236loPI    C2 3762  16.439   5.150   9.473 -0.1771  0.2068 -0.2820
  236loPI    C3 3763  16.569   5.517   9.562 -0.0268  0.0526  0.1635
  236loPI   PO4 3764  16.701   5.071   9.087  0.0051 -0.3146 -0.0973
  236loPI   GL1 3765  16.641   4.758   8.759  0.1025 -0.1444  0.2895
  236loPI   GL2 3766  16.778   4.469   8.705 -0.1689  0.2323  0.0261
  236loPI   C1A 3767  16.256   4.692   8.566  0.1674 -0.0552  0.3069
  236loPI   C2A 3768  16.079   4.885   8.117 -0.1149  0.2988 -0.0585
  236loPI   C3A 3769  16.050   5.079   7.715 -0.0349  0.2256  0.0109
  236loPI   C4A 3770  15.986   4.992   7.324 -0.1390  0.0575 -0.3879
  236loPI   C5A 3771  16.026   4.691   6.985  0.0216  0.2212  0.2391
  236loPI   C6A 3772  16.086   4.579   6.611  0.1549 -0.2026 -0.1819
  236loPI   C1B 3773  16.663   4.576   8.264 -0.2514 -0.0507  0.0268
  236loPI   C2B 3774  16.502   4.826   7.945 -0.0112 -0.0269  0.2606
  236loPI   C3B 3775  16.586   5.070   7.501 -0.0548 -0.0663  0.1777
  236loPI   C4B 3776  16.731   5.292   7.174 -0.0756 -0.1705 -0.0576
  237loPI    C1 3777  16.064  13.517   9.177 -0.0260 -0.0823  0.0399
  237loPI    C2 3778  16.280  13.824   9.318 -0.0067  0.0410 -0.2506
  237loPI    C3 3779  15.883  13.857   9.285 -0.0127  0.0075 -0.2144
  237loPI   PO4 3780  16.187  13.493   8.962 -0.0067  0.0398  0.0167
  237loPI   GL1 3781  16.229  13.487   8.576  0.1284 -0.2017 -0.2954
  237loPI   GL2 3782  16.328  13.782   8.343  0.1046  0.2777 -0.0235
  237loPI   C1A 3783  15.907  13.449   8.276  0.2905  0.0040 -0.1005
  237loPI   C2A 3784  15.790  13.575   7.813  0.2662 -0.1688 -0.0448
  237loPI   C3A 3785  16.044  13.447   7.437 -0.1330  0.1284  0.3520
  237loPI   C4A 3786  15.982  13.376   7.003  0.0657  0.2707  0.0290
  237loPI   C5A 3787  15.838  13.278   6.567 -0.0145  0.1995 -0.0841
  237loPI   C6A 3788  16.075  13.276   6.277 -0.2428 -0.1132 -0.1131
  237loPI   C1B 3789  16.494  13.841   7.875 -0.1556  0.3771  0.0947
  237loPI   C2B 3790  16.547  13.928   7.466  0.0505  0.0008  0.1273
  237loPI   C3B 3791  16.759  14.109   7.051 -0.0606 -0.1249  0.1797
  237loPI   C4B 3792  16.828  14.352   6.568  0.1146 -0.1257 -0.0155
  238loPI    C1 3793  14.518  11.012   9.344  0.2716  0.0581  0.0720
  238loPI    C2 3794  14.594  10.730   9.617  0.1532  0.0960  0.1449
  238loPI    C3 3795  14.494  11.100   9.733 -0.2886  0.0095  0.0570
  238loPI   PO4 3796  14.348  10.893   9.252  0.1012  0.2618  0.1726
  238loPI   GL1 3797  14.362  10.639   8.903  0.2750 -0.1050  0.1172
  238loPI   GL2 3798  14.176  10.884   8.725 -0.1038  0.0275  0.2881
  238loPI   C1A 3799  14.231  10.334   8.608  0.0716  0.0115  0.0898
  238loPI   C2A 3800  14.363  10.144   8.313  0.4063 -0.0634  0.4010
  238loPI   C3A 3801  14.592  10.183   7.943  0.1562 -0.0454  0.2589
  238loPI   C4A 3802  14.646  10.343   7.515 -0.0794  0.0196  0.3355
  238loPI   C5A 3803  14.600  10.495   7.036 -0.0845 -0.1918 -0.1336
  238loPI   C6A 3804  14.382  10.699   6.680  0.0079 -0.0122  0.0578
  238loPI   C1B 3805  14.135  10.886   8.355 -0.0601 -0.1088 -0.2335
  238loPI   C2B 3806  14.037  10.947   7.959 -0.0638 -0.0373 -0.0434
  238loPI   C3B 3807  14.006  11.156   7.558  0.3326  0.0661 -0.3163
  238loPI   C4B 3808  13.968  11.323   7.235  0.2521  0.0234 -0.0524
  239loPI    C1 3809   6.777   4.651   9.890  0.0377 -0.1578  0.2192
  239loPI    C2 3810   6.709   4.950  10.147 -0.1364 -0.0177  0.0143
  239loPI    C3 3811   6.540   4.593  10.207 -0.2359  0.0358  0.0556
  239loPI   PO4 3812   6.926   4.799   9.632 -0.0627 -0.1404  0.0615
  239loPI   GL1 3813   6.833   4.629   9.170  0.3611 -0.0414 -0.0784
  239loPI   GL2 3814   7.108   4.534   9.205  0.0688 -0.3287 -0.0323
  239loPI   C1A 3815   6.688   4.280   8.938 -0.1398  0.0088 -0.0559
  239loPI   C2A 3816   6.824   4.045   8.518 -0.1859  0.1981 -0.2778
  239loPI   C3A 3817   6.837   3.968   8.107 -0.0029  0.0881 -0.2898
  239loPI   C4A 3818   6.870   3.969   7.829  0.0216 -0.0253  0.4624
  239loPI   C5A 3819   6.501   4.003   7.596 -0.2575  0.1271 -0.0953
  239loPI   C6A 3820   6.210   4.123   7.378  0.1646 -0.0758 -0.0288
  239loPI   C1B 3821   7.036   4.526   8.709  0.1949 -0.0608  0.2870
  239loPI   C2B 3822   7.176   4.398   8.277 -0.1580 -0.0490 -0.1855
  239loPI   C3B 3823   7.315   4.193   7.914  0.2777 -0.0510  0.0912
  239loPI   C4B 3824   7.441   4.106   7.511  0.0111  0.0107  0.0039
  240loPI    C1 3825   3.568  14.732   9.725  0.3046  0.1421 -0.0631
  240loPI    C2 3826   3.391  14.777  10.081  0.1988 -0.1155 -0.0813
  240loPI    C3 3827   3.362  15.066   9.806 -0.0374 -0.0755 -0.0169
  240loPI   PO4 3828   3.580  14.551   9.555  0.0093 -0.3635 -0.2242
  240loPI   GL1 3829   3.522  14.509   9.164 -0.2394  0.2484 -0.1302
  240loPI   GL2 3830   3.620  14.203   9.133 -0.1283  0.2175 -0.3533
  240loPI   C1A 3831   3.290  14.751   8.704  0.2633  0.0693  0.0284
  240loPI   C2A 3832   3.483  14.670   8.248  0.3294  0.1060 -0.1814
  240loPI   C3A 3833   3.555  14.712   7.811  0.4798  0.0109  0.1534
  240loPI   C4A 3834   3.585  14.684   7.340 -0.1804 -0.1570  0.2483
  240loPI   C5A 3835   3.870  14.787   7.025  0.1176  0.2651  0.0694
  240loPI   C6A 3836   4.123  14.514   6.747 -0.0562  0.2827 -0.0294
  240loPI   C1B 3837   3.732  14.334   8.670 -0.2579 -0.0782  0.0673
  240loPI   C2B 3838   3.896  14.334   8.355 -0.1147 -0.1267  0.0031
  240loPI   C3B 3839   3.949  14.425   7.926  0.0858  0.2548  0.2250
  240loPI   C4B 3840   3.962  14.418   7.495  0.2306 -0.0560  0.0942
  241loPI    C1 3841   6.072   8.716  10.071  0.0746 -0.0442  0.0743
  241loPI    C2 3842   6.112   8.325  10.143 -0.2158 -0.0811  0.0474
  241loPI    C3 3843   6.313   8.591  10.364  0.3130 -0.2552 -0.2054
  241loPI   PO4 3844   6.062   8.736   9.786  0.1958  0.1431  0.0979
  241loPI   GL1 3845   6.300   8.676   9.368 -0.1180 -0.0076 -0.1232
  241loPI   GL2 3846   6.184   8.972   9.386  0.1805  0.2005 -0.1232
  241loPI   C1A 3847   6.252   8.592   8.980 -0.0932  0.0128  0.1174
  241loPI   C2A 3848   6.239   8.724   8.528 -0.0013 -0.0493  0.3832
  241loPI   C3A 3849   6.267   8.544   8.140 -0.1691  0.0430  0.1053
  241loPI   C4A 3850   6.229   8.504   7.864 -0.1363  0.2097  0.3530
  241loPI   C5A 3851   5.966   8.597   7.389 -0.3344  0.1341 -0.0154
  241loPI   C6A 3852   5.855   8.610   6.994  0.1873  0.1987  0.0743
  241loPI   C1B 3853   6.060   8.996   8.855  0.5882 -0.3213 -0.1089
  241loPI   C2B 3854   5.982   9.086   8.387 -0.1115 -0.0031 -0.0977
  241loPI   C3B 3855   5.689   9.236   8.147  0.2226  0.2106 -0.1172
  241loPI   C4B 3856   5.478   9.255   7.768  0.4466 -0.1760 -0.1422
  242loPI    C1 3857  15.391  17.889   8.939 -0.0560 -0.0909 -0.0710
  242loPI    C2 3858  15.296  17.500   8.946  0.2466 -0.1640  0.2506
  242loPI    C3 3859  15.225  17.729   9.266  0.1141  0.0376  0.0798
  242loPI   PO4 3860  15.691  17.898   8.862  0.0920  0.0491  0.1775
  242loPI   GL1 3861  15.752  17.648   8.493 -0.2777 -0.1485  0.2126
  242loPI   GL2 3862  15.719  17.356   8.503 -0.0367  0.0186  0.0522
  242loPI   C1A 3863  16.121  17.598   8.206  0.1568 -0.2646 -0.2675
  242loPI   C2A 3864  16.175  17.619   7.735 -0.1292  0.0683 -0.0280
  242loPI   C3A 3865  16.181  17.462   7.419  0.0547  0.0903  0.2718
  242loPI   C4A 3866  15.850  17.459   7.091 -0.1051  0.1102  0.0062
  242loPI   C5A 3867  15.695  17.711   6.720  0.1795  0.1304  0.3890
  242loPI   C6A 3868  16.116  17.698   6.332  0.0311  0.0607 -0.0835
  242loPI   C1B 3869  15.740  17.269   8.149 -0.1130  0.2427  0.1905
  242loPI   C2B 3870  15.654  17.442   7.760 -0.0266  0.1023  0.0611
  242loPI   C3B 3871  15.787  17.842   7.475 -0.4204 -0.0232 -0.1677
  242loPI   C4B 3872  15.642  17.986   7.123  0.2691  0.0972 -0.0068
  243loPI    C1 3873  18.483   6.878   9.450 -0.3513 -0.3135 -0.0314
  243loPI    C2 3874  18.340   7.089   9.141  0.1910  0.0946 -0.0173
  243loPI    C3 3875  18.189   7.143   9.508 -0.1448 -0.0587 -0.1296
  243loPI   PO4 3876  18.671   6.680   9.318  0.0807 -0.4046  0.0155
  243loPI   GL1 3877  18.701   6.672   8.885  0.0673 -0.0331 -0.1288
  243loPI   GL2 3878  18.963   6.583   8.851  0.1740 -0.0136  0.2492
  243loPI   C1A 3879  18.476   6.643   8.527  0.1013 -0.0064  0.2150
  243loPI   C2A 3880  18.500   6.722   8.050 -0.2062  0.1925  0.2419
  243loPI   C3A 3881  18.479   6.912   7.650 -0.3481  0.1494  0.3803
  243loPI   C4A 3882  18.508   6.914   7.206  0.1360 -0.0881 -0.1121
  243loPI   C5A 3883  18.758   7.214   6.870  0.0614 -0.0924 -0.0338
  243loPI   C6A 3884  18.716   7.608   7.094  0.1522  0.0216 -0.3503
  243loPI   C1B 3885  19.037   6.553   8.448 -0.0005 -0.3535 -0.0406
  243loPI   C2B 3886  19.301   6.499   8.034 -0.1229 -0.1257  0.0656
  243loPI   C3B 3887  19.683   6.503   7.894 -0.1208  0.0178  0.1861
  243loPI   C4B 3888  19.852   6.664   7.533 -0.3884  0.0881 -0.3369
  244loPI    C1 3889   5.902   4.926   9.970 -0.2634 -0.1807  0.1577
  244loPI    C2 3890   5.821   4.543  10.053  0.0175 -0.2018  0.3485
  244loPI    C3 3891   6.072   4.749  10.286 -0.0267  0.0604  0.1687
  244loPI   PO4 3892   5.908   4.962   9.727  0.0402  0.0263 -0.1429
  244loPI   GL1 3893   5.789   4.953   9.304 -0.2026 -0.0761 -0.1778
  244loPI   GL2 3894   5.993   5.159   9.050 -0.3503  0.1284  0.0327
  244loPI   C1A 3895   5.483   5.109   9.114 -0.0822 -0.0923  0.0281
  244loPI   C2A 3896   5.519   5.043   8.718 -0.0686  0.1405  0.0450
  244loPI   C3A 3897   5.669   4.796   8.547  0.0713 -0.0399  0.2973
  244loPI   C4A 3898   6.000   4.559   8.260  0.0848  0.2786  0.1403
  244loPI   C5A 3899   6.026   4.244   7.908 -0.0521 -0.1240  0.1139
  244loPI   C6A 3900   5.758   3.964   7.606 -0.1230 -0.4239  0.1354
  244loPI   C1B 3901   6.131   5.003   8.584  0.1553 -0.0099  0.2055
  244loPI   C2B 3902   6.223   5.047   8.095  0.1582  0.0845  0.0301
  244loPI   C3B 3903   6.135   4.699   7.750 -0.2246  0.1405  0.0431
  244loPI   C4B 3904   6.010   4.710   7.321  0.1065  0.1678  0.1776
  245loPI    C1 3905   6.457   4.830   9.505  0.0681  0.1024  0.1128
  245loPI    C2 3906   6.462   4.430   9.526  0.0326  0.0969  0.0237
  245loPI    C3 3907   6.280   4.644   9.811  0.0390  0.0490  0.0638
  245loPI   PO4 3908   6.379   4.845   9.247 -0.3442 -0.2139  0.2479
  245loPI   GL1 3909   6.267   4.657   8.907  0.1320  0.1831 -0.0807
  245loPI   GL2 3910   5.929   4.593   8.898  0.2318 -0.1261  0.1884
  245loPI   C1A 3911   6.541   4.690   8.577 -0.1153  0.0871 -0.0959
  245loPI   C2A 3912   6.768   4.671   8.210  0.1566 -0.0407  0.0094
  245loPI   C3A 3913   7.065   4.660   7.875 -0.3586  0.2074  0.2877
  245loPI   C4A 3914   7.018   4.365   7.561  0.2133 -0.2038 -0.1800
  245loPI   C5A 3915   6.952   4.060   7.204 -0.1886  0.0295  0.2216
  245loPI   C6A 3916   6.784   4.051   6.861  0.0056  0.1271  0.0606
  245loPI   C1B 3917   5.655   4.366   8.752 -0.0956 -0.0857  0.1516
  245loPI   C2B 3918   5.484   4.105   8.479 -0.1341  0.1176 -0.3085
  245loPI   C3B 3919   5.541   4.476   8.156  0.1079 -0.3030  0.1950
  245loPI   C4B 3920   5.179   4.521   7.817 -0.2470  0.2088 -0.4095
  246loPI    C1 3921  11.979   6.913   9.749  0.1624 -0.0212 -0.3104
  246loPI    C2 3922  12.085   7.222   9.519  0.1935  0.2074  0.0049
  246loPI    C3 3923  12.356   7.046   9.753  0.2016 -0.1328 -0.2532
  246loPI   PO4 3924  11.853   6.747   9.516  0.0122  0.0640 -0.1086
  246loPI   GL1 3925  12.045   6.694   9.160 -0.0647 -0.0923 -0.2219
  246loPI   GL2 3926  11.751   6.512   8.964 -0.0806  0.1113 -0.2009
  246loPI   C1A 3927  12.133   6.848   8.706  0.0464  0.0521  0.0621
  246loPI   C2A 3928  12.382   6.968   8.195  0.2017 -0.0481 -0.4862
  246loPI   C3A 3929  12.328   7.129   7.833 -0.1090  0.0593  0.0603
  246loPI   C4A 3930  12.386   6.890   7.378 -0.1756  0.2417 -0.0067
  246loPI   C5A 3931  12.594   6.876   6.922  0.4307 -0.0277 -0.0448
  246loPI   C6A 3932  13.011   6.939   6.831  0.1644  0.1302  0.2528
  246loPI   C1B 3933  11.448   6.783   8.694  0.2074 -0.0197 -0.1050
  246loPI   C2B 3934  11.213   6.807   8.328 -0.1123  0.1275  0.2589
  246loPI   C3B 3935  10.746   6.827   8.394 -0.1600 -0.1069  0.1233
  246loPI   C4B 3936  10.589   7.041   8.057  0.0541 -0.3131 -0.1831
  247loPI    C1 3937  13.256  13.186   9.490 -0.0960 -0.0957 -0.0902
  247loPI    C2 3938  13.222  12.804   9.377  0.0065 -0.0937 -0.1291
  247loPI    C3 3939  13.254  12.895   9.765 -0.4134 -0.0958 -0.0899
  247loPI   PO4 3940  13.493  13.273   9.304  0.2545 -0.0599  0.2688
  247loPI   GL1 3941  13.667  13.136   8.829  0.1954 -0.2332  0.1272
  247loPI   GL2 3942  13.270  13.037   8.875 -0.3229 -0.0197 -0.0163
  247loPI   C1A 3943  13.698  13.155   8.315 -0.2711 -0.1311  0.3546
  247loPI   C2A 3944  13.737  12.823   7.930  0.0143 -0.1328  0.1347
  247loPI   C3A 3945  13.737  12.724   7.527 -0.3271  0.1365 -0.2114
  247loPI   C4A 3946  13.542  12.710   7.203 -0.0950  0.1555 -0.2965
  247loPI   C5A 3947  13.145  12.639   6.914  0.4012  0.1457 -0.2633
  247loPI   C6A 3948  13.186  12.243   6.681  0.0521  0.1286  0.0322
  247loPI   C1B 3949  13.174  13.287   8.553 -0.1796  0.0186 -0.0601
  247loPI   C2B 3950  13.287  13.494   8.331 -0.0191  0.1708  0.1033
  247loPI   C3B 3951  13.177  13.500   7.782  0.1636  0.0124  0.0894
  247loPI   C4B 3952  13.567  13.210   7.551 -0.2633  0.2605  0.0123
  248loPI    C1 3953  19.973   6.392   9.521 -0.1977  0.0385 -0.0566
  248loPI    C2 3954  19.687   6.589   9.720 -0.1894 -0.0793  0.0739
  248loPI    C3 3955  19.986   6.414   9.920 -0.0249  0.0419 -0.0617
  248loPI   PO4 3956  20.119   6.500   9.305  0.0872 -0.0968  0.0822
  248loPI   GL1 3957  20.448   6.229   9.121 -0.0781 -0.5544  0.2805
  248loPI   GL2 3958  20.425   5.874   9.097 -0.1371 -0.0864  0.0017
  248loPI   C1A 3959  20.517   6.334   8.698 -0.2726 -0.2482 -0.3027
  248loPI   C2A 3960  20.601   6.190   8.359  0.0605  0.0663  0.1893
  248loPI   C3A 3961  20.716   6.209   7.971 -0.1060  0.1619 -0.1289
  248loPI   C4A 3962  20.820   5.899   7.622  0.2453  0.0885  0.2945
  248loPI   C5A 3963  21.053   5.913   7.286  0.2514  0.2147 -0.3273
  248loPI   C6A 3964  21.144   5.912   6.942  0.1577 -0.1343  0.1841
  248loPI   C1B 3965  20.620   5.600   8.881  0.2796  0.0540  0.2007
  248loPI   C2B 3966  20.829   5.321   8.477  0.2551 -0.0453 -0.0243
  248loPI   C3B 3967  20.997   5.046   8.103 -0.2527 -0.0769  0.1415
  248loPI   C4B 3968  21.217   4.920   7.682  0.0082 -0.0413 -0.1578
  249loPI    C1 3969  10.909  13.433  10.219 -0.3275 -0.0866  0.2848
  249loPI    C2 3970  10.706  13.115  10.351  0.1069 -0.4142  0.1877
  249loPI    C3 3971  10.994  13.275  10.577  0.0665 -0.2503  0.1246
  249loPI   PO4 3972  11.084  13.417   9.963 -0.2259  0.3256 -0.0570
  249loPI   GL1 3973  11.037  13.400   9.477  0.0693 -0.0201 -0.0891
  249loPI   GL2 3974  11.310  13.494   9.501 -0.2073  0.2339 -0.2476
  249loPI   C1A 3975  10.970  13.720   9.064 -0.1554 -0.1938  0.0663
  249loPI   C2A 3976  10.993  13.710   8.629 -0.0412 -0.0084 -0.4319
  249loPI   C3A 3977  10.951  13.673   8.129 -0.0590 -0.3681 -0.1046
  249loPI   C4A 3978  10.749  13.351   7.862 -0.0183 -0.4810 -0.2995
  249loPI   C5A 3979  10.776  13.405   7.472  0.0509  0.5244 -0.0921
  249loPI   C6A 3980  10.719  13.230   7.004 -0.0184  0.0539  0.0603
  249loPI   C1B 3981  11.391  13.362   9.042 -0.2499 -0.0359 -0.0546
  249loPI   C2B 3982  11.219  13.225   8.623  0.3800 -0.1065  0.3776
  249loPI   C3B 3983  10.953  13.171   8.314  0.2156 -0.0896 -0.0272
  249loPI   C4B 3984  10.946  12.934   7.865 -0.3105 -0.2994  0.1180
  250loPI    C1 3985   9.517  14.041  10.182 -0.5072  0.5121  0.0850
  250loPI    C2 3986   9.746  14.365  10.234  0.0421  0.1423  0.0466
  250loPI    C3 3987   9.644  14.140  10.548  0.2553 -0.0343 -0.0078
  250loPI   PO4 3988   9.398  14.157   9.903  0.1253 -0.2906  0.0209
  250loPI   GL1 3989   9.179  14.023   9.547  0.0844  0.3310 -0.1051
  250loPI   GL2 3990   9.308  13.693   9.261 -0.0122  0.1181 -0.1618
  250loPI   C1A 3991   9.391  14.261   9.193  0.0061  0.1217 -0.2727
  250loPI   C2A 3992   9.227  14.421   8.792  0.1890  0.2278 -0.1265
  250loPI   C3A 3993   9.361  14.435   8.247  0.1260  0.2104 -0.0742
  250loPI   C4A 3994   9.250  14.397   7.857 -0.0596 -0.0871  0.0471
  250loPI   C5A 3995   9.296  14.202   7.413 -0.2696 -0.2430  0.2704
  250loPI   C6A 3996   9.271  14.453   6.946 -0.0766  0.0144 -0.1445
  250loPI   C1B 3997   9.171  13.907   8.910  0.3864 -0.2622  0.0180
  250loPI   C2B 3998   9.100  13.889   8.485  0.1089  0.1652  0.1679
  250loPI   C3B 3999   9.202  13.894   8.098 -0.0866 -0.2107 -0.1346
  250loPI   C4B 4000   9.537  13.713   7.847  0.1852 -0.2042  0.1134
  251loPI    C1 4001   2.460  13.812   9.795  0.3013 -0.0466  0.0526
  251loPI    C2 4002   2.840  13.884   9.692  0.2670  0.1665  0.0689
  251loPI    C3 4003   2.758  13.685  10.030  0.3726 -0.2738 -0.1561
  251loPI   PO4 4004   2.403  13.940   9.529 -0.2509 -0.1224 -0.2960
  251loPI   GL1 4005   2.643  13.958   9.112 -0.2974  0.2804 -0.1911
  251loPI   GL2 4006   2.447  14.305   8.990  0.2720  0.1072 -0.4328
  251loPI   C1A 4007   2.601  13.811   8.671 -0.0110 -0.2703 -0.1790
  251loPI   C2A 4008   2.600  13.513   8.401  0.3303 -0.0334  0.4176
  251loPI   C3A 4009   2.614  13.243   8.122  0.2315 -0.0488 -0.0205
  251loPI   C4A 4010   2.685  13.239   7.699  0.0017  0.3101 -0.0254
  251loPI   C5A 4011   2.475  13.091   7.319 -0.1489  0.0702  0.1255
  251loPI   C6A 4012   2.162  12.836   7.142 -0.2707 -0.1994 -0.2998
  251loPI   C1B 4013   2.570  14.331   8.578  0.2204  0.0810 -0.0163
  251loPI   C2B 4014   2.635  14.084   8.247  0.0429 -0.2608 -0.2131
  251loPI   C3B 4015   3.043  13.855   8.349 -0.1002 -0.2348  0.1718
  251loPI   C4B 4016   3.431  13.659   8.504  0.2593 -0.0284 -0.0273
  252loPI    C1 4017   2.990  16.237   9.824 -0.1457 -0.1816  0.3125
  252loPI    C2 4018   3.326  16.452   9.800 -0.2795 -0.0135 -0.1719
  252loPI    C3 4019   3.284  16.178  10.089  0.0735  0.2973  0.1864
  252loPI   PO4 4020   2.807  16.408   9.824 -0.0610 -0.0479 -0.1512
  252loPI   GL1 4021   2.804  16.637   9.489 -0.1910  0.0930  0.1160
  252loPI   GL2 4022   2.591  16.819   9.572 -0.0237  0.0308 -0.2199
  252loPI   C1A 4023   2.757  16.294   9.132  0.3559  0.3979  0.0419
  252loPI   C2A 4024   2.987  16.151   8.775 -0.0961  0.0471 -0.1085
  252loPI   C3A 4025   2.847  16.032   8.432 -0.1344 -0.0487 -0.0047
  252loPI   C4A 4026   3.088  16.116   8.021  0.1427  0.0479  0.1241
  252loPI   C5A 4027   3.118  16.095   7.598 -0.0438 -0.0625 -0.3875
  252loPI   C6A 4028   3.234  16.176   7.202 -0.1926  0.3170  0.1632
  252loPI   C1B 4029   2.356  16.779   9.167 -0.1659  0.1528  0.1015
  252loPI   C2B 4030   2.226  16.678   8.865 -0.1971 -0.2808 -0.2655
  252loPI   C3B 4031   2.249  16.730   8.510  0.2205  0.1980 -0.3107
  252loPI   C4B 4032   2.228  16.708   8.128  0.0532  0.0077  0.4073
  253loPI    C1 4033  11.003   7.222   9.418  0.0032  0.0970 -0.0105
  253loPI    C2 4034  10.912   6.858   9.280  0.2931  0.0662 -0.1280
  253loPI    C3 4035  10.924   6.925   9.674 -0.2160  0.0706 -0.1068
  253loPI   PO4 4036  11.237   7.257   9.293 -0.4241 -0.1409  0.0335
  253loPI   GL1 4037  11.210   7.279   8.854  0.1463 -0.0660  0.0872
  253loPI   GL2 4038  11.017   7.045   8.838  0.0296  0.0001 -0.0892
  253loPI   C1A 4039  11.380   7.261   8.399  0.3150 -0.3821  0.2231
  253loPI   C2A 4040  11.399   7.113   7.943 -0.0528  0.2464  0.1490
  253loPI   C3A 4041  11.015   6.896   7.879 -0.1366  0.1408 -0.0594
  253loPI   C4A 4042  10.701   6.584   7.851 -0.1558 -0.2922  0.0436
  253loPI   C5A 4043  10.347   6.407   7.845 -0.0981 -0.2017 -0.2956
  253loPI   C6A 4044  10.156   6.595   7.424 -0.0594 -0.1525 -0.1050
  253loPI   C1B 4045  10.856   7.284   8.511  0.3055 -0.0091  0.0375
  253loPI   C2B 4046  10.989   7.377   8.069  0.1755 -0.1731 -0.1310
  253loPI   C3B 4047  10.859   7.364   7.615 -0.1535 -0.0834  0.3732
  253loPI   C4B 4048  10.823   7.226   7.180  0.0228 -0.0890 -0.2872
  254loPI    C1 4049  16.327   2.176   9.059 -0.0794 -0.1990 -0.0093
  254loPI    C2 4050  15.992   2.376   9.150  0.1328  0.1328  0.0635
  254loPI    C3 4051  16.148   2.117   9.412  0.1122  0.2235  0.1657
  254loPI   PO4 4052  16.585   2.353   9.021 -0.1652  0.2541 -0.2986
  254loPI   GL1 4053  16.535   2.580   8.691 -0.3091  0.0431 -0.1287
  254loPI   GL2 4054  16.807   2.424   8.548 -0.0715  0.1652  0.0401
  254loPI   C1A 4055  16.442   2.687   8.172  0.0361  0.1828  0.1746
  254loPI   C2A 4056  16.572   2.607   7.704  0.1105 -0.0705  0.1864
  254loPI   C3A 4057  16.557   2.308   7.463 -0.0218 -0.2192  0.0111
  254loPI   C4A 4058  16.837   1.955   7.189  0.1148 -0.0371  0.2317
  254loPI   C5A 4059  17.249   1.628   6.942 -0.0380  0.1258 -0.2565
  254loPI   C6A 4060  17.565   1.324   6.879 -0.3307  0.1632  0.1564
  254loPI   C1B 4061  16.914   2.516   8.118  0.0063  0.0336 -0.2372
  254loPI   C2B 4062  17.043   2.677   7.650 -0.0810  0.1736  0.0199
  254loPI   C3B 4063  17.209   2.899   7.367  0.0868  0.2732 -0.0328
  254loPI   C4B 4064  17.500   2.790   7.113 -0.1687  0.0583  0.0847
  255loPI    C1 4065   2.894  18.599  10.224 -0.0685 -0.2627  0.1555
  255loPI    C2 4066   2.762  18.336  10.494  0.1252 -0.1511  0.3617
  255loPI    C3 4067   3.155  18.377  10.430  0.0869 -0.0651  0.1750
  255loPI   PO4 4068   2.814  18.556   9.888 -0.1109  0.0566  0.0984
  255loPI   GL1 4069   2.574  18.606   9.511 -0.0960  0.0854 -0.0943
  255loPI   GL2 4070   2.401  18.442   9.370  0.2266 -0.2288  0.1404
  255loPI   C1A 4071   2.620  18.846   9.147  0.1012  0.0039 -0.0470
  255loPI   C2A 4072   2.739  18.791   8.730  0.0823  0.0654  0.3781
  255loPI   C3A 4073   2.828  18.762   8.271 -0.0111 -0.1705 -0.0682
  255loPI   C4A 4074   2.668  18.547   7.910 -0.2217 -0.1815 -0.2254
  255loPI   C5A 4075   2.412  18.635   7.539  0.4244  0.0212  0.1198
  255loPI   C6A 4076   2.000  18.783   7.472 -0.0475 -0.0713  0.4256
  255loPI   C1B 4077   2.322  18.247   9.026 -0.0657 -0.0233 -0.1172
  255loPI   C2B 4078   2.180  18.058   8.605 -0.2465  0.0370 -0.0298
  255loPI   C3B 4079   2.426  18.086   8.211  0.1747  0.1553  0.1801
  255loPI   C4B 4080   2.340  18.151   7.770  0.1694  0.1146  0.0304
  256loPI    C1 4081  19.116  17.039   9.467 -0.0651 -0.3138 -0.2041
  256loPI    C2 4082  19.464  16.934   9.633 -0.0414 -0.1025 -0.1171
  256loPI    C3 4083  19.131  16.942   9.855 -0.0412  0.0137 -0.1206
  256loPI   PO4 4084  19.225  17.178   9.198  0.0718 -0.2381  0.2500
  256loPI   GL1 4085  19.376  17.248   8.820  0.1155  0.4233  0.1280
  256loPI   GL2 4086  19.311  16.878   8.756 -0.1056  0.0421  0.0626
  256loPI   C1A 4087  19.665  17.461   8.643 -0.1344 -0.0437  0.0415
  256loPI   C2A 4088  19.736  17.624   8.226  0.0402 -0.0927  0.1354
  256loPI   C3A 4089  19.563  17.657   7.837  0.2622  0.0875 -0.1227
  256loPI   C4A 4090  19.389  17.570   7.455  0.1463 -0.1272  0.1074
  256loPI   C5A 4091  19.246  17.441   7.076 -0.1115  0.0884 -0.0379
  256loPI   C6A 4092  19.383  17.267   6.675  0.0639 -0.0963 -0.2175
  256loPI   C1B 4093  19.163  16.861   8.459  0.1828 -0.2002 -0.1570
  256loPI   C2B 4094  19.367  16.739   8.058  0.2644 -0.0470 -0.2781
  256loPI   C3B 4095  19.446  16.417   7.928 -0.3294  0.0573 -0.3769
  256loPI   C4B 4096  19.738  16.246   7.689  0.1294  0.0358 -0.0126
  257loPI    C1 4097  17.375   0.488   9.249 -0.3059  0.0418 -0.3343
  257loPI    C2 4098  17.300   0.855   9.389  0.0328 -0.0425  0.0871
  257loPI    C3 4099  17.181   0.534   9.596  0.1268 -0.1710 -0.0562
  257loPI   PO4 4100  17.334   0.514   9.009 -0.1383 -0.1308 -0.2826
  257loPI   GL1 4101  17.133   0.560   8.630 -0.0797 -0.1462  0.2324
  257loPI   GL2 4102  16.810   0.529   8.691 -0.0182 -0.5563  0.2562
  257loPI   C1A 4103  17.514   0.549   8.318 -0.0829 -0.0433  0.0429
  257loPI   C2A 4104  17.702   0.365   7.996  0.2029 -0.0651 -0.0212
  257loPI   C3A 4105  17.775   0.150   7.558  0.1009 -0.5649  0.1232
  257loPI   C4A 4106  17.994   0.144   7.149  0.0438 -0.0776 -0.1185
  257loPI   C5A 4107  18.244   0.411   6.747  0.0446 -0.0221 -0.3259
  257loPI   C6A 4108  18.549   0.504   6.365 -0.2628  0.2547  0.0007
  257loPI   C1B 4109  16.919   0.700   8.254 -0.0402  0.1298 -0.1128
  257loPI   C2B 4110  17.197   0.792   7.963  0.2693  0.1215 -0.0503
  257loPI   C3B 4111  17.599   0.790   7.842  0.0075  0.1142 -0.0069
  257loPI   C4B 4112  17.902   0.672   7.513 -0.0254  0.0077 -0.1890
  258loPI    C1 4113   8.904  18.865   9.858  0.1009 -0.0542  0.0568
  258loPI    C2 4114   8.904  18.661  10.202  0.0131  0.2254  0.2264
  258loPI    C3 4115   8.741  19.026  10.186  0.0810  0.2453 -0.0962
  258loPI   PO4 4116   8.769  18.654   9.630 -0.3969 -0.0712  0.2572
  258loPI   GL1 4117   8.631  18.521   9.246  0.1508 -0.1871  0.2553
  258loPI   GL2 4118   8.451  18.214   9.195 -0.1347  0.1117  0.0724
  258loPI   C1A 4119   8.898  18.549   8.834  0.0384  0.3268 -0.0233
  258loPI   C2A 4120   8.973  18.585   8.438  0.2232  0.1069  0.0302
  258loPI   C3A 4121   8.994  18.895   8.179  0.3128 -0.2430 -0.5600
  258loPI   C4A 4122   9.160  18.749   7.771 -0.0345 -0.1308 -0.2584
  258loPI   C5A 4123   9.208  18.604   7.397 -0.2313  0.2368  0.4214
  258loPI   C6A 4124   9.035  18.098   7.239  0.1484 -0.0863 -0.0084
  258loPI   C1B 4125   8.527  18.112   8.830 -0.0244  0.1441 -0.2329
  258loPI   C2B 4126   8.624  18.246   8.450 -0.1034  0.2559 -0.2469
  258loPI   C3B 4127   8.458  18.144   8.097 -0.0893  0.0121  0.3829
  258loPI   C4B 4128   8.618  17.928   7.704  0.2179 -0.1372  0.1438
  259loPI    C1 4129  16.037   5.327   9.668 -0.0952  0.2360 -0.1135
  259loPI    C2 4130  15.785   5.062   9.830  0.1069  0.1079 -0.0042
  259loPI    C3 4131  15.875   5.398  10.027  0.0945  0.1096 -0.0014
  259loPI   PO4 4132  15.959   5.263   9.416  0.0774  0.1235 -0.0703
  259loPI   GL1 4133  15.859   5.345   8.916  0.0429  0.0326 -0.1170
  259loPI   GL2 4134  15.492   5.377   8.757  0.2668  0.1397  0.0170
  259loPI   C1A 4135  15.783   5.069   8.578  0.0304  0.0292  0.1717
  259loPI   C2A 4136  15.585   5.146   8.161 -0.1276  0.0432 -0.1177
  259loPI   C3A 4137  15.542   5.154   7.765 -0.1440  0.0005  0.2857
  259loPI   C4A 4138  15.589   5.404   7.381 -0.0716  0.1037 -0.2532
  259loPI   C5A 4139  15.715   5.526   7.100 -0.3876 -0.3530 -0.0347
  259loPI   C6A 4140  15.901   5.467   6.694 -0.1267 -0.1120 -0.1171
  259loPI   C1B 4141  15.521   5.607   8.347  0.0689 -0.0092  0.0821
  259loPI   C2B 4142  15.435   5.610   7.947 -0.0800  0.2905 -0.0334
  259loPI   C3B 4143  15.139   5.519   7.578 -0.0464 -0.3051 -0.1318
  259loPI   C4B 4144  15.138   5.755   7.171  0.2168 -0.2316 -0.0545
  260loPI    C1 4145  13.861  10.311   9.512  0.1070  0.0047  0.2940
  260loPI    C2 4146  14.212  10.429   9.360 -0.1836  0.1466 -0.2958
  260loPI    C3 4147  14.012  10.668   9.611  0.0769  0.1191 -0.0578
  260loPI   PO4 4148  13.740  10.195   9.326 -0.0449  0.0469  0.2182
  260loPI   GL1 4149  13.852  10.264   8.958  0.3095 -0.2637  0.2637
  260loPI   GL2 4150  13.559  10.029   8.898 -0.1933  0.3156 -0.1262
  260loPI   C1A 4151  13.855  10.050   8.490  0.2003 -0.4267  0.0221
  260loPI   C2A 4152  13.554  10.005   8.145  0.1578  0.0642 -0.1749
  260loPI   C3A 4153  13.200  10.051   7.781 -0.1146  0.0724 -0.1485
  260loPI   C4A 4154  13.275  10.031   7.331  0.2375 -0.0011  0.3305
  260loPI   C5A 4155  12.999  10.091   6.904 -0.2692  0.4227 -0.1875
  260loPI   C6A 4156  13.187  10.389   6.574 -0.0425 -0.0077  0.0919
  260loPI   C1B 4157  13.348  10.145   8.569  0.1900  0.3513 -0.1998
  260loPI   C2B 4158  13.085   9.834   8.430  0.2492  0.1069  0.1849
  260loPI   C3B 4159  12.860   9.455   8.537  0.1607 -0.1427 -0.1048
  260loPI   C4B 4160  12.832   9.078   8.875  0.0700  0.0122 -0.1047
  261loPI    C1 4161   0.270   4.922   9.592 -0.1361  0.1133 -0.1873
  261loPI    C2 4162   0.095   5.282   9.599  0.1668  0.2601  0.1480
  261loPI    C3 4163   0.006   5.010   9.879  0.0027  0.1014 -0.0547
  261loPI   PO4 4164   0.153   4.834   9.391 -0.2813 -0.1103 -0.1050
  261loPI   GL1 4165   0.095   4.975   9.035 -0.0991 -0.0357 -0.2922
  261loPI   GL2 4166   0.250   5.293   9.128  0.2681  0.0628  0.0902
  261loPI   C1A 4167  -0.036   5.004   8.568 -0.4481 -0.0216 -0.2413
  261loPI   C2A 4168   0.028   4.896   8.165  0.2566  0.0570 -0.2801
  261loPI   C3A 4169  -0.061   4.855   7.685  0.0254 -0.1126 -0.2741
  261loPI   C4A 4170  -0.039   4.924   7.283  0.3748 -0.0626  0.1682
  261loPI   C5A 4171   0.009   5.235   6.951 -0.1005  0.3965 -0.1902
  261loPI   C6A 4172   0.312   5.496   6.857 -0.0129 -0.3132  0.0258
  261loPI   C1B 4173   0.397   5.151   8.717  0.0655 -0.3061  0.1566
  261loPI   C2B 4174   0.370   5.218   8.333  0.1793 -0.0941 -0.0208
  261loPI   C3B 4175   0.152   5.385   7.878 -0.3152 -0.2183 -0.1798
  261loPI   C4B 4176   0.261   5.367   7.404 -0.2250  0.2382 -0.0132
  262loPI    C1 4177   0.318  16.800   9.375  0.1999 -0.1191 -0.0522
  262loPI    C2 4178   0.146  17.161   9.378 -0.0869 -0.2514 -0.2049
  262loPI    C3 4179   0.161  16.944   9.714  0.1641 -0.0638 -0.0922
  262loPI   PO4 4180   0.238  16.655   9.191 -0.0710  0.1805 -0.1153
  262loPI   GL1 4181   0.279  16.798   8.756  0.0446  0.2889 -0.1489
  262loPI   GL2 4182   0.005  16.675   8.746  0.3674 -0.2652 -0.3241
  262loPI   C1A 4183   0.466  17.175   8.635 -0.2157 -0.0808  0.0012
  262loPI   C2A 4184   0.672  17.310   8.247  0.1252 -0.1156 -0.3252
  262loPI   C3A 4185   0.709  17.217   7.776 -0.0444 -0.2157 -0.3438
  262loPI   C4A 4186   0.759  17.000   7.469  0.4898  0.0341 -0.1413
  262loPI   C5A 4187   0.568  16.766   7.088  0.0656 -0.0122 -0.0658
  262loPI   C6A 4188   0.635  16.521   6.749 -0.2769 -0.2205  0.0459
  262loPI   C1B 4189   0.145  16.626   8.318 -0.1697 -0.1423  0.0494
  262loPI   C2B 4190  -0.046  16.831   7.973 -0.1950 -0.1350 -0.3600
  262loPI   C3B 4191  -0.310  17.192   8.009 -0.2120 -0.0588 -0.1666
  262loPI   C4B 4192  -0.600  17.289   8.310  0.0057 -0.1499  0.1192
  263loPI    C1 4193   2.095  10.571   9.547  0.0653 -0.0986 -0.0545
  263loPI    C2 4194   2.324  10.362   9.799  0.0237  0.0923  0.1441
  263loPI    C3 4195   1.931  10.290   9.779  0.0753 -0.1371 -0.0939
  263loPI   PO4 4196   2.282  10.619   9.309  0.1169 -0.5019 -0.2533
  263loPI   GL1 4197   2.457  10.793   8.868 -0.2139 -0.1726  0.0988
  263loPI   GL2 4198   2.618  10.448   8.958  0.0663 -0.1248  0.1017
  263loPI   C1A 4199   2.548  11.052   8.531  0.0123  0.0358  0.0663
  263loPI   C2A 4200   2.492  11.171   8.105  0.2500  0.2797  0.2934
  263loPI   C3A 4201   2.642  11.206   7.677 -0.2121  0.1770  0.1250
  263loPI   C4A 4202   2.662  11.071   7.219 -0.2059  0.1402 -0.1449
  263loPI   C5A 4203   2.674  10.918   6.924  0.2442  0.0360 -0.1372
  263loPI   C6A 4204   2.622  10.865   6.478  0.2223  0.0480 -0.0573
  263loPI   C1B 4205   2.843  10.652   8.538 -0.2323 -0.3803  0.2376
  263loPI   C2B 4206   2.707  10.638   8.205  0.1144 -0.0472 -0.1688
  263loPI   C3B 4207   2.735  10.692   7.804 -0.3070  0.0745  0.0351
  263loPI   C4B 4208   2.722  10.592   7.363  0.1289  0.3018  0.1179
  264loPI    C1 4209  17.493   7.157   9.297 -0.2516 -0.2337  0.1368
  264loPI    C2 4210  17.697   7.372   9.565 -0.0430 -0.1126 -0.1155
  264loPI    C3 4211  17.375   7.165   9.680 -0.0910  0.1195  0.1829
  264loPI   PO4 4212  17.697   7.104   9.174  0.1448  0.3216  0.1448
  264loPI   GL1 4213  17.944   7.348   8.972  0.1553  0.0962  0.0092
  264loPI   GL2 4214  18.027   7.554   9.189  0.0298 -0.2929  0.0634
  264loPI   C1A 4215  17.875   7.406   8.548  0.0001  0.0552  0.0397
  264loPI   C2A 4216  17.971   7.417   8.160 -0.1796 -0.0342  0.2843
  264loPI   C3A 4217  17.978   7.503   7.729 -0.1520  0.1029 -0.0877
  264loPI   C4A 4218  18.203   7.313   7.549  0.3057 -0.2418  0.2844
  264loPI   C5A 4219  18.245   7.440   7.062 -0.1969  0.0336 -0.1387
  264loPI   C6A 4220  18.082   7.619   6.722 -0.1939  0.2178 -0.0873
  264loPI   C1B 4221  18.184   7.729   8.760 -0.3161 -0.1825  0.2596
  264loPI   C2B 4222  18.232   7.782   8.362  0.0274  0.3154  0.0599
  264loPI   C3B 4223  18.354   7.749   7.948  0.5116  0.1800  0.0051
  264loPI   C4B 4224  18.465   7.732   7.519 -0.0327  0.2083  0.0435
  265loPI    C1 4225  15.586  12.919   9.218  0.0629  0.3645 -0.0153
  265loPI    C2 4226  15.312  12.655   9.343  0.1702  0.2163 -0.0898
  265loPI    C3 4227  15.362  13.001   9.539 -0.0117  0.2072 -0.0263
  265loPI   PO4 4228  15.674  12.708   8.979 -0.1159  0.2706  0.0269
  265loPI   GL1 4229  15.898  12.634   8.610 -0.1107  0.0510  0.1893
  265loPI   GL2 4230  15.609  12.611   8.496 -0.1369 -0.1529 -0.0272
  265loPI   C1A 4231  16.085  12.527   8.239 -0.2524  0.2197  0.2423
  265loPI   C2A 4232  16.107  12.478   7.818 -0.1636  0.0220 -0.0160
  265loPI   C3A 4233  16.043  12.289   7.446  0.0479  0.1214  0.0244
  265loPI   C4A 4234  15.847  11.947   7.209 -0.0074  0.1618 -0.1442
  265loPI   C5A 4235  15.603  11.942   6.920 -0.2153 -0.0200  0.2178
  265loPI   C6A 4236  15.356  11.671   6.581  0.0826 -0.3245 -0.2721
  265loPI   C1B 4237  15.704  12.849   8.081  0.2233  0.0888  0.0863
  265loPI   C2B 4238  15.808  13.062   7.735  0.0228  0.1505  0.1939
  265loPI   C3B 4239  15.784  12.984   7.304 -0.1105  0.0181  0.2374
  265loPI   C4B 4240  15.786  12.880   6.884  0.0469  0.1217  0.1256
  266loPI    C1 4241   1.351   7.015   9.363  0.1693  0.2149  0.1769
  266loPI    C2 4242   1.543   7.129   9.696 -0.0825  0.1234  0.3564
  266loPI    C3 4243   1.150   7.055   9.707 -0.0219 -0.2622  0.1282
  266loPI   PO4 4244   1.576   6.802   9.287  0.1720 -0.0033  0.0510
  266loPI   GL1 4245   1.687   6.799   8.878  0.1113 -0.2380  0.1005
  266loPI   GL2 4246   1.796   6.452   8.857 -0.0615  0.2536 -0.2180
  266loPI   C1A 4247   1.447   6.824   8.471  0.0412 -0.0659  0.1363
  266loPI   C2A 4248   1.548   6.530   8.255 -0.1619 -0.3401 -0.0797
  266loPI   C3A 4249   1.772   6.278   7.965  0.4545 -0.1166 -0.0997
  266loPI   C4A 4250   1.984   6.184   7.596  0.0013 -0.0363  0.0282
  266loPI   C5A 4251   2.072   6.331   7.267  0.0178 -0.1060  0.3038
  266loPI   C6A 4252   2.554   6.298   7.090  0.0155  0.1446 -0.2530
  266loPI   C1B 4253   1.895   6.394   8.571  0.1050  0.2048  0.1903
  266loPI   C2B 4254   1.798   6.015   8.372  0.0011 -0.1330 -0.1356
  266loPI   C3B 4255   1.719   5.757   8.009 -0.1702 -0.1068  0.1958
  266loPI   C4B 4256   1.710   5.654   7.586  0.0402  0.1585 -0.0625
  267loPI    C1 4257   3.685   6.390   9.926  0.0329 -0.0744  0.1375
  267loPI    C2 4258   3.627   6.780   9.860 -0.0069 -0.0994  0.0224
  267loPI    C3 4259   3.679   6.646  10.234 -0.1643 -0.0067  0.0790
  267loPI   PO4 4260   3.841   6.275   9.699 -0.3531  0.2233 -0.1315
  267loPI   GL1 4261   3.918   5.961   9.366 -0.0592 -0.1164 -0.0443
  267loPI   GL2 4262   3.777   6.141   9.124  0.3656 -0.0936 -0.1658
  267loPI   C1A 4263   4.174   5.730   9.101  0.0539  0.3622  0.0508
  267loPI   C2A 4264   4.361   5.871   8.797 -0.0242  0.1492  0.2550
  267loPI   C3A 4265   4.472   6.053   8.337  0.1309 -0.2226 -0.1724
  267loPI   C4A 4266   4.602   6.042   7.863 -0.0689  0.1219 -0.0553
  267loPI   C5A 4267   4.783   6.258   7.452 -0.2911  0.3431  0.3593
  267loPI   C6A 4268   4.897   6.298   7.015 -0.0952  0.2387  0.1049
  267loPI   C1B 4269   3.796   5.864   8.801 -0.1639 -0.0243  0.0946
  267loPI   C2B 4270   3.582   5.730   8.347 -0.2115 -0.5523 -0.1196
  267loPI   C3B 4271   3.160   5.814   8.203 -0.2631 -0.0167  0.1071
  267loPI   C4B 4272   2.904   5.577   8.495  0.0639  0.2425  0.4158
  268loPI    C1 4273  19.975  13.549   9.246 -0.2717 -0.1120 -0.3678
  268loPI    C2 4274  19.721  13.280   9.095 -0.2405 -0.1467 -0.3581
  268loPI    C3 4275  19.629  13.473   9.433 -0.1688 -0.2988 -0.2507
  268loPI   PO4 4276  20.147  13.536   9.018 -0.1260  0.0130 -0.1742
  268loPI   GL1 4277  20.308  13.495   8.568  0.3423 -0.0137 -0.0756
  268loPI   GL2 4278  20.085  13.755   8.514 -0.0540 -0.0548 -0.0294
  268loPI   C1A 4279  20.490  13.463   8.217  0.0272 -0.0994 -0.1616
  268loPI   C2A 4280  20.551  13.624   7.874  0.0941 -0.2543  0.0369
  268loPI   C3A 4281  20.647  13.656   7.535 -0.2107 -0.0501 -0.2242
  268loPI   C4A 4282  20.554  14.001   7.264  0.0642  0.0065 -0.1667
  268loPI   C5A 4283  20.308  14.347   7.254  0.2022  0.1481  0.1016
  268loPI   C6A 4284  19.956  14.370   7.449 -0.0729  0.0573 -0.2557
  268loPI   C1B 4285  19.783  13.798   8.214 -0.0878 -0.3681  0.1634
  268loPI   C2B 4286  19.499  13.899   7.946 -0.1456 -0.2194 -0.2616
  268loPI   C3B 4287  19.160  13.992   7.581 -0.0552  0.2551 -0.1342
  268loPI   C4B 4288  18.961  14.386   7.508  0.0793  0.3996 -0.0672
  269loPI    C1 4289   6.815  10.321   9.827  0.1467 -0.0344 -0.0625
  269loPI    C2 4290   6.944  10.645  10.023 -0.0656  0.1051 -0.1501
  269loPI    C3 4291   6.908  10.296  10.215 -0.1891  0.2199  0.0388
  269loPI   PO4 4292   6.895  10.316   9.610  0.2774  0.0555 -0.1625
  269loPI   GL1 4293   6.598  10.504   9.381  0.2972  0.1178  0.5090
  269loPI   GL2 4294   6.544  10.182   9.190 -0.1992  0.0901 -0.1996
  269loPI   C1A 4295   6.641  10.726   9.022 -0.1451 -0.1558 -0.1137
  269loPI   C2A 4296   6.579  11.065   8.654 -0.1208  0.3574  0.2076
  269loPI   C3A 4297   6.717  11.272   8.277 -0.0515 -0.0082 -0.0130
  269loPI   C4A 4298   6.801  11.490   7.845 -0.3074 -0.1837 -0.0906
  269loPI   C5A 4299   7.080  11.462   7.634  0.0949 -0.1079  0.1523
  269loPI   C6A 4300   7.272  11.674   7.232 -0.2233  0.1985 -0.0308
  269loPI   C1B 4301   6.815  10.026   8.831  0.0392  0.1567  0.1337
  269loPI   C2B 4302   6.883  10.080   8.282 -0.0930 -0.1129  0.2327
  269loPI   C3B 4303   6.910  10.030   7.908  0.1242  0.0158  0.0897
  269loPI   C4B 4304   6.796   9.876   7.485  0.0608 -0.0110 -0.0559
  270loPI    C1 4305  13.888   3.586   9.391  0.2804 -0.0904  0.0160
  270loPI    C2 4306  13.990   3.720   9.754 -0.0262  0.0144  0.0670
  270loPI    C3 4307  13.879   3.339   9.705 -0.4220  0.1116  0.1737
  270loPI   PO4 4308  14.057   3.714   9.233 -0.3479  0.2522  0.0669
  270loPI   GL1 4309  14.089   4.087   8.955 -0.0278 -0.3665 -0.2287
  270loPI   GL2 4310  13.858   4.320   9.013 -0.0729  0.0294  0.3936
  270loPI   C1A 4311  14.263   4.154   8.661 -0.0177 -0.1115  0.0768
  270loPI   C2A 4312  14.202   4.468   8.256  0.4002  0.2824 -0.1501
  270loPI   C3A 4313  14.063   4.458   7.878  0.0557  0.1177  0.4858
  270loPI   C4A 4314  14.002   4.335   7.490 -0.1256 -0.0743 -0.1640
  270loPI   C5A 4315  13.867   3.888   7.241  0.1630  0.1154 -0.1935
  270loPI   C6A 4316  14.110   3.820   6.884 -0.0015 -0.0778 -0.0503
  270loPI   C1B 4317  13.856   4.518   8.567  0.2172  0.1404 -0.1727
  270loPI   C2B 4318  13.626   4.412   8.177  0.0038  0.0134  0.0646
  270loPI   C3B 4319  13.642   4.040   7.782  0.0944  0.0990 -0.2026
  270loPI   C4B 4320  13.413   3.898   7.481  0.0693  0.1758 -0.2173
  271loPI    C1 4321   8.954  19.778   9.589  0.0087  0.0152  0.0893
  271loPI    C2 4322   8.783  20.090   9.770  0.0024  0.0140  0.0857
  271loPI    C3 4323   8.883  19.767   9.982 -0.2935 -0.1147  0.0341
  271loPI   PO4 4324   8.906  19.839   9.311 -0.4407  0.3070 -0.0004
  271loPI   GL1 4325   8.909  20.171   9.064 -0.0646  0.1507  0.1956
  271loPI   GL2 4326   8.532  20.175   9.231  0.1592 -0.0261  0.0543
  271loPI   C1A 4327   8.859  20.040   8.692  0.4339  0.0485  0.0194
  271loPI   C2A 4328   8.977  19.986   8.218 -0.4636 -0.1585 -0.1847
  271loPI   C3A 4329   8.944  19.790   7.793  0.1180  0.0983 -0.1682
  271loPI   C4A 4330   9.086  19.754   7.329 -0.3231 -0.2232  0.0852
  271loPI   C5A 4331   8.995  19.560   6.890  0.1044  0.1395 -0.3014
  271loPI   C6A 4332   9.236  19.648   6.527 -0.2885 -0.0071  0.0331
  271loPI   C1B 4333   8.561  20.400   8.812  0.0231  0.2038 -0.4064
  271loPI   C2B 4334   8.644  20.389   8.304  0.6686  0.2106 -0.1155
  271loPI   C3B 4335   8.688  20.211   7.897 -0.2941 -0.1069 -0.0087
  271loPI   C4B 4336   8.595  20.088   7.536 -0.1154  0.2278 -0.0266
  272loPI    C1 4337   3.726  16.081   9.777 -0.3589  0.2441  0.1649
  272loPI    C2 4338   3.858  16.349  10.044 -0.1538  0.0679  0.2432
  272loPI    C3 4339   3.719  15.995  10.168 -0.2307  0.0571  0.1272
  272loPI   PO4 4340   3.878  16.012   9.663 -0.0045  0.0913 -0.1483
  272loPI   GL1 4341   4.227  16.195   9.549  0.1522 -0.0601  0.1543
  272loPI   GL2 4342   4.364  15.974   9.568  0.0959  0.0490 -0.0410
  272loPI   C1A 4343   4.104  16.253   9.141 -0.0669 -0.0633 -0.0872
  272loPI   C2A 4344   4.172  16.301   8.781 -0.2290  0.1377  0.3973
  272loPI   C3A 4345   4.174  16.538   8.397  0.0038  0.0211  0.3230
  272loPI   C4A 4346   4.158  16.906   8.145 -0.0392 -0.1457 -0.0032
  272loPI   C5A 4347   4.139  17.097   7.844  0.1264  0.1383 -0.0950
  272loPI   C6A 4348   4.188  17.507   7.690 -0.0307  0.0975  0.0101
  272loPI   C1B 4349   4.560  16.086   9.128 -0.0719 -0.2076 -0.1068
  272loPI   C2B 4350   4.490  15.932   8.749  0.0876  0.1446 -0.1878
  272loPI   C3B 4351   4.456  16.135   8.396  0.0614 -0.0863 -0.2102
  272loPI   C4B 4352   4.539  16.136   7.961  0.0988 -0.0053  0.1806
  273loPI    C1 4353   1.931   6.824   9.737  0.0831 -0.3077 -0.2539
  273loPI    C2 4354   2.275   6.625   9.779  0.1451 -0.1205  0.1786
  273loPI    C3 4355   1.930   6.453   9.886  0.1411 -0.1829  0.0663
  273loPI   PO4 4356   2.033   6.970   9.506  0.1853  0.0955  0.0942
  273loPI   GL1 4357   2.157   6.879   9.025  0.1171 -0.1744 -0.2557
  273loPI   GL2 4358   2.340   6.593   8.954 -0.2023  0.2807  0.2520
  273loPI   C1A 4359   2.134   6.869   8.643  0.2018  0.0330  0.0959
  273loPI   C2A 4360   2.096   6.680   8.179 -0.0259  0.0217  0.1170
  273loPI   C3A 4361   2.163   6.601   7.783  0.2213  0.0724  0.0030
  273loPI   C4A 4362   2.328   6.746   7.384 -0.0768 -0.1297  0.0276
  273loPI   C5A 4363   2.398   6.716   6.957  0.0205  0.0620 -0.3198
  273loPI   C6A 4364   2.482   6.908   6.587  0.0469  0.1890  0.4177
  273loPI   C1B 4365   2.592   6.546   8.514 -0.3024  0.0160  0.3357
  273loPI   C2B 4366   2.836   6.791   8.213  0.0536  0.1065 -0.0570
  273loPI   C3B 4367   2.813   6.698   7.767  0.0585 -0.0160  0.4714
  273loPI   C4B 4368   2.919   6.508   7.367  0.1511 -0.1072 -0.0259
  274loPI    C1 4369   1.509  18.538   9.764 -0.0011  0.1422 -0.3449
  274loPI    C2 4370   1.125  18.510   9.658 -0.0682  0.1681 -0.1145
  274loPI    C3 4371   1.237  18.776   9.935  0.0737 -0.0213  0.0125
  274loPI   PO4 4372   1.651  18.655   9.533  0.0978  0.1371  0.0700
  274loPI   GL1 4373   1.716  18.830   9.161  0.1712 -0.2206  0.0437
  274loPI   GL2 4374   2.133  18.922   9.330  0.0396 -0.2756  0.1526
  274loPI   C1A 4375   1.742  18.836   8.698  0.2178 -0.2220 -0.1676
  274loPI   C2A 4376   1.871  18.774   8.339 -0.0656  0.0562  0.0656
  274loPI   C3A 4377   1.825  18.956   7.967  0.0508 -0.1396  0.4509
  274loPI   C4A 4378   2.100  19.200   7.678  0.3730 -0.0536  0.1825
  274loPI   C5A 4379   2.474  19.449   7.552 -0.1181 -0.0938  0.1221
  274loPI   C6A 4380   2.936  19.569   7.674  0.2579  0.2684 -0.0839
  274loPI   C1B 4381   2.229  18.748   8.920  0.0254  0.1895  0.0355
  274loPI   C2B 4382   2.292  19.000   8.511  0.0311  0.2112  0.1889
  274loPI   C3B 4383   2.430  19.128   8.175 -0.1861 -0.0468 -0.3179
  274loPI   C4B 4384   2.593  19.055   7.825  0.1566  0.2469  0.1390
  275loPI    C1 4385  14.620  11.459   9.137 -0.0052  0.0772 -0.0975
  275loPI    C2 4386  14.386  11.782   9.167  0.2339  0.2335  0.1310
  275loPI    C3 4387  14.503  11.589   9.497 -0.0459 -0.1927 -0.0113
  275loPI   PO4 4388  14.756  11.596   8.820  0.0284  0.2265  0.0473
  275loPI   GL1 4389  14.535  11.721   8.541 -0.0080 -0.0381 -0.0911
  275loPI   GL2 4390  14.287  11.808   8.472  0.0226 -0.1243  0.0901
  275loPI   C1A 4391  14.678  11.629   8.190  0.3390  0.2274  0.0705
  275loPI   C2A 4392  14.593  11.618   7.854 -0.1550 -0.0607 -0.0061
  275loPI   C3A 4393  14.756  11.811   7.479 -0.0984 -0.1546  0.3350
  275loPI   C4A 4394  14.585  12.136   7.039  0.1195  0.2512 -0.1384
  275loPI   C5A 4395  14.803  12.332   6.833 -0.1882 -0.2177 -0.1810
  275loPI   C6A 4396  15.009  12.779   6.589  0.4144  0.4607 -0.3065
  275loPI   C1B 4397  14.324  12.066   8.138 -0.0149  0.3101  0.0733
  275loPI   C2B 4398  14.414  12.117   7.708  0.0741  0.1382 -0.1248
  275loPI   C3B 4399  14.099  12.353   7.389  0.1772  0.0790 -0.3379
  275loPI   C4B 4400  13.775  12.270   7.282  0.0402  0.3937 -0.4008
  276loPI    C1 4401   7.642  19.436   9.292 -0.0822  0.0772  0.0279
  276loPI    C2 4402   7.485  19.711   9.047 -0.1006  0.1429  0.1133
  276loPI    C3 4403   7.391  19.712   9.436 -0.2014 -0.0628  0.0907
  276loPI   PO4 4404   7.680  19.274   9.099 -0.3754  0.0036  0.0010
  276loPI   GL1 4405   7.584  19.234   8.650  0.0180  0.3189 -0.1749
  276loPI   GL2 4406   7.431  18.920   8.697 -0.0557 -0.3373  0.0655
  276loPI   C1A 4407   7.610  19.246   8.210  0.1294  0.1618 -0.0908
  276loPI   C2A 4408   7.681  19.154   7.837 -0.0648  0.2889 -0.0588
  276loPI   C3A 4409   7.928  19.025   7.567 -0.0251  0.5359 -0.0050
  276loPI   C4A 4410   8.162  19.238   7.282  0.0328  0.0159  0.2593
  276loPI   C5A 4411   8.658  19.234   7.124  0.1443  0.2792 -0.0778
  276loPI   C6A 4412   9.106  19.006   7.041 -0.0963 -0.2617  0.1604
  276loPI   C1B 4413   7.580  18.739   8.266  0.3122  0.1388 -0.1097
  276loPI   C2B 4414   7.733  18.593   7.779 -0.2973 -0.2139  0.0708
  276loPI   C3B 4415   7.698  18.255   7.502 -0.0897  0.5389 -0.0150
  276loPI   C4B 4416   7.373  18.039   7.300  0.0479 -0.2228  0.0835
  277loPI    C1 4417   4.098   8.503   9.874 -0.0764  0.1070  0.1147
  277loPI    C2 4418   3.857   8.492   9.554 -0.1070 -0.2048  0.1452
  277loPI    C3 4419   3.715   8.612   9.908 -0.1195 -0.0319  0.0824
  277loPI   PO4 4420   4.312   8.532   9.731 -0.1236 -0.0338 -0.0964
  277loPI   GL1 4421   4.420   8.468   9.349  0.1860  0.0006  0.0267
  277loPI   GL2 4422   4.679   8.596   9.385  0.0309  0.2609 -0.0176
  277loPI   C1A 4423   4.389   8.649   8.919 -0.0513 -0.0579  0.2475
  277loPI   C2A 4424   4.330   8.977   8.610 -0.0033 -0.0037 -0.2443
  277loPI   C3A 4425   4.284   9.288   8.321  0.2482 -0.1370  0.0287
  277loPI   C4A 4426   4.006   9.600   8.253 -0.1761 -0.2026 -0.1543
  277loPI   C5A 4427   3.752   9.711   7.908 -0.0648  0.0751  0.1336
  277loPI   C6A 4428   3.686   9.528   7.462 -0.0588 -0.0582  0.1288
  277loPI   C1B 4429   4.755   8.906   9.124 -0.3416 -0.0877 -0.1321
  277loPI   C2B 4430   4.965   8.988   8.670  0.1027 -0.0104  0.0264
  277loPI   C3B 4431   4.792   8.837   8.385  0.0568  0.1431 -0.1757
  277loPI   C4B 4432   4.908   8.514   8.065 -0.3958  0.0323  0.2976
  278loPI    C1 4433  19.344   2.551   9.281  0.0190 -0.0709  0.0919
  278loPI    C2 4434  19.121   2.527   8.949  0.2306 -0.1411 -0.0472
  278loPI    C3 4435  19.306   2.870   9.042  0.0596 -0.0802  0.0729
  278loPI   PO4 4436  19.502   2.415   9.315  0.1898 -0.2859 -0.3680
  278loPI   GL1 4437  19.764   2.113   9.124  0.2332  0.0165 -0.0435
  278loPI   GL2 4438  20.006   2.015   8.944  0.0644  0.2999 -0.0609
  278loPI   C1A 4439  19.580   2.038   8.703 -0.0026 -0.0178  0.0206
  278loPI   C2A 4440  19.177   2.164   8.550 -0.0190  0.3957  0.0587
  278loPI   C3A 4441  19.030   2.111   8.299 -0.0651  0.0965 -0.1264
  278loPI   C4A 4442  18.637   1.931   8.150  0.1729  0.1318 -0.0966
  278loPI   C5A 4443  18.396   1.842   7.740 -0.2757 -0.0234 -0.0823
  278loPI   C6A 4444  18.504   1.548   7.451 -0.3553 -0.0331 -0.1220
  278loPI   C1B 4445  20.044   2.320   8.590 -0.1596  0.2165 -0.2834
  278loPI   C2B 4446  19.998   2.541   8.244 -0.1476  0.1576 -0.1718
  278loPI   C3B 4447  20.101   2.639   7.784  0.2030  0.2663 -0.1504
  278loPI   C4B 4448  20.009   2.619   7.428 -0.0274 -0.1877  0.2578
  279loPI    C1 4449   3.731   2.495   9.910  0.0377  0.1331 -0.1187
  279loPI    C2 4450   3.851   2.799  10.140 -0.0085  0.1082 -0.0613
  279loPI    C3 4451   3.743   2.452  10.308  0.2742 -0.0210 -0.1404
  279loPI   PO4 4452   3.516   2.563   9.803  0.0659  0.1143 -0.0538
  279loPI   GL1 4453   3.258   2.506   9.431 -0.3486  0.1168 -0.2347
  279loPI   GL2 4454   3.476   2.705   9.297 -0.1482  0.1711  0.0795
  279loPI   C1A 4455   2.983   2.463   9.058 -0.0079 -0.0059 -0.3796
  279loPI   C2A 4456   2.872   2.440   8.619 -0.1415  0.0076 -0.2993
  279loPI   C3A 4457   2.735   2.220   8.246 -0.0089 -0.1756 -0.0105
  279loPI   C4A 4458   2.684   2.184   7.808  0.0142  0.1055 -0.1861
  279loPI   C5A 4459   2.758   2.232   7.370  0.1997  0.2253  0.1881
  279loPI   C6A 4460   2.925   2.068   7.016  0.3457 -0.2076 -0.1209
  279loPI   C1B 4461   3.590   2.756   8.844  0.1693  0.0382  0.0994
  279loPI   C2B 4462   3.399   2.696   8.422 -0.3274 -0.0803 -0.2226
  279loPI   C3B 4463   3.204   2.378   8.138 -0.0162  0.0669  0.1647
  279loPI   C4B 4464   3.353   2.286   7.739  0.1248  0.2035  0.2314
  280loPI    C1 4465   1.304   3.373   9.671 -0.0302  0.2837  0.0882
  280loPI    C2 4466   1.421   3.032   9.843 -0.0374  0.1540 -0.1595
  280loPI    C3 4467   1.625   3.369   9.911  0.0649  0.0694 -0.0396
  280loPI   PO4 4468   1.165   3.267   9.358 -0.3113 -0.1449  0.2758
  280loPI   GL1 4469   0.952   3.237   8.998 -0.1139 -0.0461  0.0965
  280loPI   GL2 4470   0.612   3.007   8.944 -0.3207  0.0229 -0.0301
  280loPI   C1A 4471   1.091   3.263   8.520 -0.0777  0.0676  0.1224
  280loPI   C2A 4472   0.997   3.168   8.028 -0.0398  0.1035 -0.0278
  280loPI   C3A 4473   0.838   3.226   7.580  0.1483 -0.2450  0.1616
  280loPI   C4A 4474   0.730   3.201   7.160  0.0949 -0.2368 -0.1623
  280loPI   C5A 4475   0.333   3.064   6.990 -0.1075 -0.1640  0.2920
  280loPI   C6A 4476  -0.138   3.011   7.070 -0.1241  0.1410  0.1039
  280loPI   C1B 4477   0.589   3.335   8.673  0.2077  0.0426 -0.0492
  280loPI   C2B 4478   0.679   3.559   8.231 -0.3048 -0.0773  0.4911
  280loPI   C3B 4479   0.757   3.806   7.845 -0.1731  0.3784 -0.0358
  280loPI   C4B 4480   0.884   3.676   7.375 -0.0227 -0.0506 -0.0432
  281loPI    C1 4481   7.954   9.673   9.814 -0.2433  0.1315 -0.0222
  281loPI    C2 4482   7.890  10.012   9.611 -0.2385  0.0567 -0.1490
  281loPI    C3 4483   8.149  10.008   9.915  0.0075  0.0908 -0.3544
  281loPI   PO4 4484   8.020   9.445   9.654 -0.2293 -0.0804  0.0203
  281loPI   GL1 4485   8.114   9.164   9.298  0.0995 -0.1001 -0.1177
  281loPI   GL2 4486   8.412   9.280   9.075 -0.1523 -0.0917  0.2409
  281loPI   C1A 4487   7.955   9.437   8.895 -0.3246  0.0915  0.0403
  281loPI   C2A 4488   7.666   9.795   8.694 -0.1135  0.0929 -0.0963
  281loPI   C3A 4489   7.560  10.083   8.297 -0.0939  0.0142 -0.0642
  281loPI   C4A 4490   7.629  10.365   7.906 -0.1518  0.5318  0.0356
  281loPI   C5A 4491   7.602  10.484   7.435 -0.0598  0.0068  0.0597
  281loPI   C6A 4492   7.530  10.917   7.322  0.0515 -0.2351 -0.1062
  281loPI   C1B 4493   8.544   9.239   8.660 -0.2043 -0.0392  0.1419
  281loPI   C2B 4494   8.728   9.220   8.201 -0.0189  0.0413 -0.0583
  281loPI   C3B 4495   8.701   9.260   7.796  0.1606  0.3869  0.1293
  281loPI   C4B 4496   8.763   9.070   7.385 -0.2578 -0.0985 -0.0541
  282loPI    C1 4497   2.988  17.540   9.943 -0.0240 -0.0824 -0.1280
  282loPI    C2 4498   2.657  17.718  10.080 -0.0662 -0.1644 -0.1229
  282loPI    C3 4499   2.969  17.662  10.324  0.0906  0.2410 -0.2231
  282loPI   PO4 4500   2.974  17.686   9.717 -0.2956  0.4580  0.1274
  282loPI   GL1 4501   3.249  17.748   9.375 -0.1294 -0.1980 -0.2687
  282loPI   GL2 4502   3.203  17.482   9.300 -0.1486 -0.0652  0.3161
  282loPI   C1A 4503   3.482  17.780   8.998 -0.0463  0.0408 -0.0077
  282loPI   C2A 4504   3.488  18.057   8.704  0.3341 -0.2209 -0.0012
  282loPI   C3A 4505   3.302  18.263   8.354  0.0835  0.0373 -0.1633
  282loPI   C4A 4506   3.217  18.557   7.993  0.3188 -0.1746 -0.0632
  282loPI   C5A 4507   3.505  18.634   7.532  0.0661 -0.0805 -0.0325
  282loPI   C6A 4508   3.648  18.531   7.199 -0.1062 -0.0941 -0.4618
  282loPI   C1B 4509   3.043  17.512   9.027  0.0499 -0.1736 -0.0390
  282loPI   C2B 4510   3.286  17.613   8.587 -0.0448  0.0890 -0.0721
  282loPI   C3B 4511   3.491  17.803   8.244  0.1163  0.1410 -0.1073
  282loPI   C4B 4512   3.549  18.188   7.921 -0.0947 -0.1173  0.0492
  283loPI    C1 4513   5.020   6.927   9.886 -0.0620  0.0089 -0.1422
  283loPI    C2 4514   5.129   7.210  10.147 -0.0026  0.0504 -0.2117
  283loPI    C3 4515   4.780   7.240   9.954  0.0834  0.1683 -0.3509
  283loPI   PO4 4516   5.244   6.911   9.721  0.1026 -0.0145 -0.2531
  283loPI   GL1 4517   5.433   7.190   9.410 -0.0130 -0.0797 -0.3872
  283loPI   GL2 4518   5.430   7.408   9.210  0.1413  0.2738 -0.1551
  283loPI   C1A 4519   5.437   6.952   8.935 -0.2599  0.1126  0.1587
  283loPI   C2A 4520   5.486   6.751   8.581 -0.0427 -0.0486 -0.0433
  283loPI   C3A 4521   5.400   6.668   8.191 -0.0475  0.3075  0.1143
  283loPI   C4A 4522   5.253   6.768   7.885 -0.1140 -0.0444  0.0514
  283loPI   C5A 4523   5.196   7.119   7.641 -0.0263 -0.2241 -0.1351
  283loPI   C6A 4524   5.171   7.507   7.345  0.1553  0.0527 -0.1906
  283loPI   C1B 4525   5.557   7.611   8.884 -0.0717 -0.1207 -0.2145
  283loPI   C2B 4526   5.378   7.690   8.502  0.2710  0.0804 -0.1076
  283loPI   C3B 4527   4.951   7.569   8.334 -0.1057  0.0896  0.0918
  283loPI   C4B 4528   4.596   7.344   8.580 -0.1468  0.2366  0.0149
  284loPI    C1 4529  18.551   1.130   9.368  0.1116  0.0732 -0.0627
  284loPI    C2 4530  18.224   1.289   9.534  0.1783  0.0437  0.0987
  284loPI    C3 4531  18.279   0.893   9.542  0.1206  0.0302 -0.1067
  284loPI   PO4 4532  18.663   1.375   9.334 -0.3789 -0.0263  0.0841
  284loPI   GL1 4533  18.915   1.578   9.010  0.0067 -0.0284  0.2051
  284loPI   GL2 4534  18.638   1.487   8.775  0.4027  0.2456  0.0264
  284loPI   C1A 4535  19.055   1.686   8.601  0.0907 -0.3439 -0.2144
  284loPI   C2A 4536  19.244   1.690   8.157 -0.0682  0.2574 -0.1965
  284loPI   C3A 4537  19.481   1.849   7.728  0.4029 -0.3629  0.0523
  284loPI   C4A 4538  19.694   2.154   7.401  0.1616 -0.2138 -0.1028
  284loPI   C5A 4539  20.119   2.163   7.223  0.2554  0.1178  0.0123
  284loPI   C6A 4540  20.554   1.971   7.047 -0.3531 -0.2420 -0.1352
  284loPI   C1B 4541  18.664   1.404   8.258 -0.0064  0.1779 -0.0091
  284loPI   C2B 4542  18.804   1.532   7.861  0.1815  0.0379  0.1215
  284loPI   C3B 4543  18.974   1.754   7.687  0.2784 -0.0364 -0.1257
  284loPI   C4B 4544  19.306   1.520   7.405  0.0893 -0.0969  0.0901
  285loPI    C1 4545   1.605   3.787   9.574  0.1657 -0.2609 -0.0247
  285loPI    C2 4546   1.627   4.151   9.740  0.2603 -0.3058  0.0627
  285loPI    C3 4547   1.444   3.853   9.935  0.1464 -0.2954 -0.0269
  285loPI   PO4 4548   1.553   3.865   9.283 -0.0889  0.0466  0.1883
  285loPI   GL1 4549   1.294   3.662   9.000  0.3000  0.1624 -0.1160
  285loPI   GL2 4550   1.537   3.442   8.792  0.1085  0.1305  0.2101
  285loPI   C1A 4551   1.506   4.050   8.582 -0.1197 -0.0022  0.0174
  285loPI   C2A 4552   1.585   4.166   8.166  0.0468 -0.2047 -0.2347
  285loPI   C3A 4553   1.647   4.090   7.744  0.0456 -0.0733  0.1025
  285loPI   C4A 4554   1.661   4.111   7.230  0.1825  0.0352 -0.1042
  285loPI   C5A 4555   1.555   4.042   6.892 -0.3943 -0.2279 -0.0852
  285loPI   C6A 4556   1.447   3.608   6.698 -0.3399 -0.1689  0.0052
  285loPI   C1B 4557   1.620   3.178   8.545 -0.0584 -0.0801 -0.0687
  285loPI   C2B 4558   1.986   3.138   8.215  0.3521 -0.2746  0.0031
  285loPI   C3B 4559   1.927   3.016   7.791  0.0069 -0.2235  0.2633
  285loPI   C4B 4560   1.958   2.925   7.361 -0.0743  0.3634  0.0636
  286loPI    C1 4561  11.794   9.670   9.734 -0.0238 -0.0319  0.0834
  286loPI    C2 4562  11.684   9.402  10.010  0.1541 -0.3351 -0.1343
  286loPI    C3 4563  11.944   9.691  10.104 -0.0869 -0.1961  0.1194
  286loPI   PO4 4564  11.572   9.778   9.585 -0.2116  0.2501  0.0883
  286loPI   GL1 4565  11.561   9.725   9.133 -0.2589 -0.1908  0.7048
  286loPI   GL2 4566  11.586   9.365   9.172 -0.0870 -0.0863  0.2614
  286loPI   C1A 4567  11.513   9.737   8.705  0.0339  0.0012 -0.0351
  286loPI   C2A 4568  11.463   9.754   8.225  0.3091 -0.0901  0.2593
  286loPI   C3A 4569  11.463   9.599   7.736 -0.1072 -0.0454  0.2360
  286loPI   C4A 4570  11.745   9.278   7.524  0.0189  0.0479  0.0518
  286loPI   C5A 4571  11.730   9.255   7.074 -0.1322  0.1050 -0.3780
  286loPI   C6A 4572  11.408   9.393   6.779 -0.1234  0.0128  0.2330
  286loPI   C1B 4573  11.616   9.276   8.774  0.0399 -0.1036 -0.1778
  286loPI   C2B 4574  11.925   9.062   8.561 -0.0483  0.2691  0.2324
  286loPI   C3B 4575  11.986   8.926   8.193  0.0094  0.0276  0.0669
  286loPI   C4B 4576  12.324   9.036   7.856  0.0774 -0.0186 -0.0715
  287loPI    C1 4577   4.052   4.783   9.748  0.1463 -0.0109 -0.0318
  287loPI    C2 4578   3.715   4.933   9.903  0.0908  0.0992 -0.2542
  287loPI    C3 4579   3.966   4.724  10.134 -0.1684 -0.0543 -0.1057
  287loPI   PO4 4580   4.026   4.912   9.510  0.0222 -0.2178 -0.0182
  287loPI   GL1 4581   4.179   5.192   9.228  0.2341  0.2310 -0.1195
  287loPI   GL2 4582   4.430   5.178   9.023  0.0171 -0.2885 -0.2325
  287loPI   C1A 4583   3.958   5.232   8.900  0.0282 -0.1305  0.2912
  287loPI   C2A 4584   4.114   5.473   8.630  0.1419  0.1455  0.0056
  287loPI   C3A 4585   4.138   5.752   8.203  0.1920  0.1543  0.4368
  287loPI   C4A 4586   4.169   5.751   7.751  0.0069  0.2081  0.0999
  287loPI   C5A 4587   3.991   5.786   7.340 -0.2914 -0.0803 -0.3122
  287loPI   C6A 4588   3.768   5.927   6.967 -0.1053 -0.2600  0.1730
  287loPI   C1B 4589   4.603   5.423   8.830 -0.3176 -0.2697  0.2458
  287loPI   C2B 4590   4.576   5.538   8.466  0.2115  0.1622  0.0500
  287loPI   C3B 4591   4.639   5.584   8.031 -0.0844  0.0904  0.1327
  287loPI   C4B 4592   4.488   5.339   7.552 -0.0402 -0.2381  0.1472
  288loPI    C1 4593   8.707  15.432   9.713  0.2149 -0.0741  0.1828
  288loPI    C2 4594   8.363  15.485   9.911  0.1423  0.0321  0.0300
  288loPI    C3 4595   8.710  15.579  10.086  0.0685  0.2678  0.0534
  288loPI   PO4 4596   8.726  15.674   9.521  0.1293 -0.3031 -0.0785
  288loPI   GL1 4597   8.560  15.707   9.119 -0.2768 -0.0404 -0.2434
  288loPI   GL2 4598   8.870  15.937   9.100  0.2156 -0.2584  0.1101
  288loPI   C1A 4599   8.483  15.841   8.662 -0.1364  0.0084  0.0552
  288loPI   C2A 4600   8.327  15.766   8.325  0.1108  0.2209 -0.2892
  288loPI   C3A 4601   7.918  15.847   8.105  0.1667 -0.0771  0.0180
  288loPI   C4A 4602   7.689  15.802   7.652 -0.0576 -0.1291 -0.2178
  288loPI   C5A 4603   7.486  15.482   7.413 -0.1658  0.3822  0.0702
  288loPI   C6A 4604   7.265  15.160   7.220 -0.0601  0.3790  0.0088
  288loPI   C1B 4605   9.005  15.725   8.809  0.0144  0.0704  0.0846
  288loPI   C2B 4606   9.043  15.810   8.372  0.1126  0.1617 -0.0282
  288loPI   C3B 4607   8.728  15.609   8.056  0.0219  0.0034 -0.3528
  288loPI   C4B 4608   8.452  15.863   7.706  0.1234  0.1848 -0.2142
  289loPI    C1 4609   5.787  16.913   9.672  0.0815 -0.1677 -0.0045
  289loPI    C2 4610   5.730  16.619   9.937  0.2141 -0.1708  0.0209
  289loPI    C3 4611   5.729  17.000  10.059 -0.0681 -0.1535 -0.0295
  289loPI   PO4 4612   5.998  16.773   9.529 -0.0942  0.2476  0.0014
  289loPI   GL1 4613   6.168  16.862   9.176 -0.1013 -0.2744  0.1017
  289loPI   GL2 4614   5.922  17.027   9.078 -0.0495 -0.3387 -0.0037
  289loPI   C1A 4615   6.478  16.545   8.985  0.2946 -0.2036  0.3509
  289loPI   C2A 4616   6.519  16.269   8.570  0.0469  0.4254  0.0298
  289loPI   C3A 4617   6.560  16.151   8.202  0.0901 -0.0695 -0.2451
  289loPI   C4A 4618   6.372  16.236   7.876 -0.2279  0.0932  0.0649
  289loPI   C5A 4619   6.235  16.149   7.448 -0.3776  0.0615 -0.2630
  289loPI   C6A 4620   5.845  16.072   7.206 -0.0753  0.0567 -0.3636
  289loPI   C1B 4621   6.100  17.166   8.744 -0.0737 -0.1831  0.0068
  289loPI   C2B 4622   6.235  17.313   8.352  0.1154 -0.0724  0.2483
  289loPI   C3B 4623   6.371  17.144   7.941 -0.0197  0.1666 -0.0004
  289loPI   C4B 4624   6.684  17.152   7.621 -0.0860  0.2276 -0.1078
  290loPI    C1 4625   1.706  14.550   9.803  0.0585 -0.1022 -0.2447
  290loPI    C2 4626   1.369  14.619  10.007 -0.0874 -0.0662 -0.4946
  290loPI    C3 4627   1.699  14.504  10.200 -0.1648  0.1736 -0.2137
  290loPI   PO4 4628   1.654  14.353   9.576  0.0162 -0.0374  0.3412
  290loPI   GL1 4629   1.938  14.353   9.128 -0.1731 -0.2249 -0.0216
  290loPI   GL2 4630   1.671  14.606   8.921  0.1419  0.0692 -0.1131
  290loPI   C1A 4631   2.097  13.974   8.893  0.0605  0.0565  0.1178
  290loPI   C2A 4632   2.137  13.984   8.460 -0.0186 -0.2250 -0.2624
  290loPI   C3A 4633   2.239  13.749   8.111 -0.2732  0.1459  0.2854
  290loPI   C4A 4634   2.338  13.714   7.705  0.2233 -0.1046 -0.1342
  290loPI   C5A 4635   2.589  13.711   7.477  0.0392  0.1828 -0.2055
  290loPI   C6A 4636   2.627  13.492   7.020 -0.0859  0.0471 -0.1367
  290loPI   C1B 4637   1.527  14.584   8.404 -0.0473  0.1396  0.0220
  290loPI   C2B 4638   1.556  14.701   7.941  0.0624  0.1412  0.2692
  290loPI   C3B 4639   1.844  14.903   7.622  0.0374 -0.1343 -0.4192
  290loPI   C4B 4640   2.118  14.953   7.314 -0.0956 -0.0248  0.0692
  291loPI    C1 4641   1.300  15.049   9.196 -0.1888  0.0381  0.1088
  291loPI    C2 4642   1.239  14.663   9.107 -0.0219 -0.0063  0.1823
  291loPI    C3 4643   1.324  14.771   9.483  0.2695  0.0608  0.0994
  291loPI   PO4 4644   1.516  15.130   9.042 -0.2167  0.1534  0.2398
  291loPI   GL1 4645   1.634  15.353   8.785 -0.4188 -0.0134  0.0443
  291loPI   GL2 4646   1.522  15.603   8.598  0.1114 -0.2974  0.1943
  291loPI   C1A 4647   1.692  15.018   8.380 -0.1130  0.0923  0.2577
  291loPI   C2A 4648   1.981  14.927   8.174  0.1715  0.0209 -0.0380
  291loPI   C3A 4649   2.274  14.830   7.851  0.2574  0.3378  0.0173
  291loPI   C4A 4650   2.703  14.783   7.607  0.2180 -0.1235  0.2421
  291loPI   C5A 4651   2.942  14.584   7.249 -0.1323 -0.2034  0.4118
  291loPI   C6A 4652   3.320  14.820   6.904  0.1746 -0.2614  0.1746
  291loPI   C1B 4653   1.200  15.689   8.339  0.0459 -0.0981 -0.0684
  291loPI   C2B 4654   1.062  15.586   7.920  0.1494 -0.0257 -0.4619
  291loPI   C3B 4655   1.180  15.713   7.482 -0.2184  0.0931 -0.1975
  291loPI   C4B 4656   1.400  15.557   7.242  0.1136  0.2610  0.3021
  292loPI    C1 4657  11.618   1.807   9.316 -0.0112  0.1585 -0.0857
  292loPI    C2 4658  11.367   2.085   9.177 -0.0814  0.1248 -0.0273
  292loPI    C3 4659  11.345   1.969   9.560 -0.1751 -0.0937 -0.0974
  292loPI   PO4 4660  11.581   1.581   9.178 -0.0516 -0.0782 -0.1294
  292loPI   GL1 4661  11.784   1.368   8.820 -0.0558  0.0362  0.1686
  292loPI   GL2 4662  11.919   1.594   8.761 -0.1537 -0.0755  0.0287
  292loPI   C1A 4663  11.915   1.102   8.481  0.0573  0.0513 -0.0329
  292loPI   C2A 4664  12.194   0.840   8.173  0.2966 -0.1672 -0.3134
  292loPI   C3A 4665  12.220   0.365   8.128 -0.4512  0.0375 -0.2628
  292loPI   C4A 4666  12.186   0.141   7.812  0.0196 -0.0386 -0.2340
  292loPI   C5A 4667  12.406   0.177   7.365 -0.1205  0.1163  0.0212
  292loPI   C6A 4668  12.151   0.150   6.998 -0.0165 -0.2217 -0.0792
  292loPI   C1B 4669  11.936   1.714   8.299 -0.1663 -0.0267  0.3877
  292loPI   C2B 4670  11.952   1.612   7.846  0.0216  0.1870 -0.1067
  292loPI   C3B 4671  11.920   1.449   7.411 -0.1196  0.0081 -0.4847
  292loPI   C4B 4672  11.530   1.531   7.184  0.1864 -0.2569  0.0043
  293loPI    C1 4673  11.725  19.710   9.709  0.0535 -0.0816  0.0305
  293loPI    C2 4674  12.106  19.784   9.805  0.0557 -0.3115  0.2083
  293loPI    C3 4675  11.812  19.984   9.988  0.0950  0.0562 -0.1162
  293loPI   PO4 4676  11.725  19.677   9.500 -0.0877 -0.0068  0.5603
  293loPI   GL1 4677  11.397  19.523   9.121 -0.3101 -0.0083 -0.1625
  293loPI   GL2 4678  11.659  19.543   9.051  0.2328  0.1402  0.0248
  293loPI   C1A 4679  11.327  19.417   8.721 -0.2148 -0.0432  0.0915
  293loPI   C2A 4680  11.323  19.116   8.461  0.0051 -0.0264  0.0915
  293loPI   C3A 4681  11.203  19.075   7.904 -0.3226  0.2973 -0.0083
  293loPI   C4A 4682  11.148  19.137   7.446 -0.0521 -0.0367  0.1692
  293loPI   C5A 4683  10.894  18.939   7.125  0.0959 -0.3043  0.2262
  293loPI   C6A 4684  10.520  18.840   6.812  0.1231 -0.0788  0.0999
  293loPI   C1B 4685  11.553  19.860   8.774  0.1646  0.0323 -0.0978
  293loPI   C2B 4686  11.294  19.805   8.422  0.1888 -0.0037 -0.0752
  293loPI   C3B 4687  11.260  19.627   8.036  0.3552 -0.0962 -0.0023
  293loPI   C4B 4688  11.296  19.578   7.611 -0.1288 -0.0619  0.1432
  294loPI    C1 4689  10.797   7.653   9.908  0.1480  0.0616  0.0277
  294loPI    C2 4690  11.122   7.426   9.854  0.1355  0.0574 -0.0304
  294loPI    C3 4691  10.970   7.474  10.221 -0.1118 -0.3752 -0.0697
  294loPI   PO4 4692  10.642   7.555   9.700 -0.0745  0.1798 -0.2105
  294loPI   GL1 4693  10.598   7.527   9.246  0.0338  0.0720 -0.1517
  294loPI   GL2 4694  10.619   7.231   9.108  0.1398  0.0005  0.1211
  294loPI   C1A 4695  10.585   7.592   8.807 -0.0620 -0.3532 -0.0956
  294loPI   C2A 4696  10.503   7.575   8.363  0.1554 -0.1419 -0.0758
  294loPI   C3A 4697  10.460   7.552   7.875 -0.0259  0.1776  0.0580
  294loPI   C4A 4698  10.469   7.604   7.396 -0.1534  0.4588  0.4335
  294loPI   C5A 4699  10.296   7.428   6.992  0.0232  0.3259 -0.0275
  294loPI   C6A 4700  10.343   7.143   6.683  0.3020  0.3186  0.0792
  294loPI   C1B 4701  10.437   7.086   8.751 -0.3759 -0.0692  0.0481
  294loPI   C2B 4702  10.233   6.890   8.359 -0.0150 -0.1114  0.0249
  294loPI   C3B 4703  10.037   6.793   7.915  0.0671  0.0515  0.1702
  294loPI   C4B 4704   9.731   6.774   7.653 -0.1408  0.0477 -0.1091
  295loPI    C1 4705  14.013   2.282   9.031  0.0428 -0.1424 -0.1322
  295loPI    C2 4706  13.875   2.167   9.388 -0.0039  0.0699 -0.0809
  295loPI    C3 4707  14.219   2.371   9.362 -0.0302  0.1055 -0.1516
  295loPI   PO4 4708  13.788   2.324   8.862  0.0012 -0.3025 -0.2073
  295loPI   GL1 4709  13.738   2.338   8.456  0.2135  0.0835 -0.6160
  295loPI   GL2 4710  13.403   2.055   8.595 -0.1644  0.1171  0.3872
  295loPI   C1A 4711  13.622   2.513   8.069 -0.0454  0.2947  0.3720
  295loPI   C2A 4712  13.387   2.697   7.684 -0.0680  0.1626 -0.0243
  295loPI   C3A 4713  12.987   2.945   7.495 -0.0744 -0.0965  0.1332
  295loPI   C4A 4714  12.668   3.184   7.389  0.4567  0.0921  0.0267
  295loPI   C5A 4715  12.456   3.471   7.438  0.0032 -0.1278  0.2723
  295loPI   C6A 4716  12.516   3.813   7.253  0.2444 -0.0972  0.4068
  295loPI   C1B 4717  13.345   2.120   8.167 -0.3805  0.0617  0.3200
  295loPI   C2B 4718  13.431   2.160   7.710  0.2529  0.0796  0.0196
  295loPI   C3B 4719  13.727   2.354   7.475 -0.2003 -0.3468 -0.2753
  295loPI   C4B 4720  14.119   2.063   7.519  0.1995  0.2288  0.1038
  296loPI    C1 4721   4.851   1.697   9.860 -0.1440 -0.1306 -0.2774
  296loPI    C2 4722   4.755   1.968  10.139  0.0132 -0.4052  0.0515
  296loPI    C3 4723   4.987   2.071   9.830 -0.3481 -0.0402 -0.1063
  296loPI   PO4 4724   4.507   1.626   9.832  0.1063  0.0057 -0.2569
  296loPI   GL1 4725   4.156   1.657   9.575  0.1807 -0.2589  0.0351
  296loPI   GL2 4726   4.209   1.870   9.448  0.2722 -0.1300  0.1038
  296loPI   C1A 4727   4.003   1.484   9.242 -0.1316 -0.1059 -0.2876
  296loPI   C2A 4728   3.885   1.239   8.859  0.0855 -0.3754  0.0051
  296loPI   C3A 4729   3.740   0.922   8.471 -0.3466 -0.1558  0.0033
  296loPI   C4A 4730   3.696   0.689   8.091  0.1564 -0.1021 -0.0342
  296loPI   C5A 4731   3.830   0.351   7.814  0.2553 -0.2664 -0.1347
  296loPI   C6A 4732   3.782   0.196   7.428 -0.1322  0.4147 -0.4461
  296loPI   C1B 4733   4.378   1.737   9.021  0.0095 -0.3976 -0.1350
  296loPI   C2B 4734   4.258   1.562   8.689  0.1701  0.0759 -0.0424
  296loPI   C3B 4735   4.013   1.349   8.349 -0.2963 -0.1401 -0.1778
  296loPI   C4B 4736   4.036   1.060   8.070  0.1649  0.0252 -0.0765
  297loPI    C1 4737   4.385  19.852  10.093 -0.1689  0.0067 -0.0055
  297loPI    C2 4738   4.186  19.911  10.435 -0.0260 -0.0983  0.0973
  297loPI    C3 4739   4.585  19.926  10.432 -0.0188 -0.2910 -0.0262
  297loPI   PO4 4740   4.215  20.000   9.936 -0.5712 -0.0664  0.1096
  297loPI   GL1 4741   4.342  20.110   9.644 -0.0726  0.2643  0.1649
  297loPI   GL2 4742   4.138  20.336   9.412  0.0492 -0.1845 -0.0009
  297loPI   C1A 4743   4.337  19.902   9.305 -0.1335  0.1811  0.0887
  297loPI   C2A 4744   4.278  19.804   8.803 -0.2219 -0.1039  0.1390
  297loPI   C3A 4745   4.374  19.969   8.470  0.1484  0.4034  0.0518
  297loPI   C4A 4746   4.474  20.147   7.991 -0.3102 -0.1170  0.0470
  297loPI   C5A 4747   4.375  20.271   7.679 -0.2007 -0.0264  0.2030
  297loPI   C6A 4748   4.123  20.610   7.374 -0.0754  0.1674 -0.1182
  297loPI   C1B 4749   4.051  20.337   8.950 -0.0625  0.0321 -0.1577
  297loPI   C2B 4750   4.083  20.587   8.681  0.3989  0.0188  0.2969
  297loPI   C3B 4751   4.205  20.549   8.285  0.0252  0.1781 -0.0867
  297loPI   C4B 4752   4.341  20.724   7.802  0.0489 -0.1867  0.2609
  298loPI    C1 4753  19.644   9.569   9.268 -0.3792 -0.2394  0.1062
  298loPI    C2 4754  19.540   9.473   9.642 -0.1757  0.0753  0.2481
  298loPI    C3 4755  19.693   9.834   9.564 -0.0794 -0.0399 -0.1159
  298loPI   PO4 4756  19.534   9.387   9.136  0.3152 -0.0250 -0.0496
  298loPI   GL1 4757  19.406   9.151   8.783 -0.0127  0.1349 -0.3559
  298loPI   GL2 4758  19.242   8.897   8.873 -0.0263 -0.0170 -0.0473
  298loPI   C1A 4759  19.588   9.101   8.291  0.1153 -0.2240 -0.2568
  298loPI   C2A 4760  19.670   9.057   7.863 -0.1007  0.1793  0.1043
  298loPI   C3A 4761  19.894   9.224   7.511  0.1820 -0.0815 -0.1670
  298loPI   C4A 4762  20.161   9.319   7.170  0.2827  0.0835  0.0586
  298loPI   C5A 4763  20.316   9.539   6.775  0.0743  0.1232  0.0518
  298loPI   C6A 4764  20.071   9.480   6.421 -0.1462 -0.2060 -0.3963
  298loPI   C1B 4765  19.312   8.724   8.489 -0.0630  0.0855  0.0442
  298loPI   C2B 4766  19.619   8.607   8.159 -0.0490  0.0555 -0.1655
  298loPI   C3B 4767  19.864   8.227   7.916  0.0171 -0.3120  0.0130
  298loPI   C4B 4768  20.009   7.921   7.747 -0.3937 -0.2007  0.2215
  299loPI    C1 4769   9.307   2.471   9.528 -0.1119 -0.0422  0.1160
  299loPI    C2 4770   9.340   2.450   9.926 -0.1059  0.1577  0.1274
  299loPI    C3 4771   9.416   2.794   9.737  0.0436  0.0228 -0.0628
  299loPI   PO4 4772   9.499   2.259   9.487  0.1664  0.3023 -0.2634
  299loPI   GL1 4773   9.682   2.006   9.177 -0.3258  0.4918  0.0536
  299loPI   GL2 4774   9.900   2.215   9.241 -0.0449 -0.2683  0.0182
  299loPI   C1A 4775   9.886   1.869   8.770  0.1714  0.0864 -0.2580
  299loPI   C2A 4776   9.949   1.738   8.336  0.0381  0.2371  0.2690
  299loPI   C3A 4777   9.725   1.776   7.952  0.2983  0.1459 -0.0942
  299loPI   C4A 4778   9.620   1.576   7.552 -0.1639  0.0510  0.3315
  299loPI   C5A 4779   9.640   1.286   7.151  0.1774  0.2348  0.2278
  299loPI   C6A 4780   9.447   0.999   6.983  0.2374  0.1266  0.1386
  299loPI   C1B 4781  10.017   2.347   8.882 -0.0017  0.0394 -0.2288
  299loPI   C2B 4782   9.852   2.396   8.494 -0.3577 -0.1554 -0.0268
  299loPI   C3B 4783   9.980   2.204   8.119  0.1350 -0.1258 -0.6297
  299loPI   C4B 4784   9.892   2.262   7.712  0.0833  0.1644  0.0715
  300loPI    C1 4785   4.695   1.081   9.861 -0.0441  0.0254 -0.0022
  300loPI    C2 4786   4.522   1.245  10.182 -0.1371  0.0505 -0.0648
  300loPI    C3 4787   4.748   0.917  10.222 -0.0059  0.1533  0.0511
  300loPI   PO4 4788   4.970   1.134   9.674 -0.0229 -0.1416 -0.0145
  300loPI   GL1 4789   4.880   1.077   9.316  0.2524 -0.0732  0.0046
  300loPI   GL2 4790   4.635   1.427   9.414  0.0419  0.2061  0.0714
  300loPI   C1A 4791   4.825   0.946   8.866  0.2558  0.1487 -0.3821
  300loPI   C2A 4792   4.996   0.843   8.483 -0.0364  0.0600 -0.0261
  300loPI   C3A 4793   5.064   1.121   8.246  0.0315  0.5148  0.1575
  300loPI   C4A 4794   4.858   1.323   7.911 -0.2260 -0.1786  0.1817
  300loPI   C5A 4795   4.492   1.268   7.675 -0.1860  0.0100  0.1322
  300loPI   C6A 4796   4.021   1.088   7.564  0.0435 -0.2527 -0.2184
  300loPI   C1B 4797   4.409   1.175   9.044 -0.2223  0.1392  0.1765
  300loPI   C2B 4798   4.344   1.048   8.666  0.1473  0.2121  0.0834
  300loPI   C3B 4799   4.517   0.983   8.231 -0.0386 -0.3375 -0.1255
  300loPI   C4B 4800   4.806   0.730   7.925  0.0896 -0.1797 -0.0817
  301loPI    C1 4801  12.315  12.283  10.225  0.1240 -0.1042 -0.0472
  301loPI    C2 4802  12.669  12.434  10.335  0.0698 -0.0210  0.0140
  301loPI    C3 4803  12.334  12.563  10.511 -0.0091  0.0443 -0.1821
  301loPI   PO4 4804  12.301  12.259   9.959  0.1865 -0.1610 -0.1059
  301loPI   GL1 4805  12.203  12.449   9.631  0.0463 -0.1416 -0.1414
  301loPI   GL2 4806  12.216  12.698   9.497 -0.0129  0.0716 -0.4215
  301loPI   C1A 4807  12.411  12.256   9.255 -0.1936  0.2854 -0.3050
  301loPI   C2A 4808  12.440  12.059   8.780  0.0320 -0.0015  0.4441
  301loPI   C3A 4809  12.416  11.855   8.336  0.0520  0.1017 -0.0935
  301loPI   C4A 4810  12.464  11.659   7.902 -0.1418 -0.1656 -0.3446
  301loPI   C5A 4811  12.478  11.302   7.651  0.0685 -0.0648 -0.0029
  301loPI   C6A 4812  12.445  11.252   7.252  0.1492  0.1244  0.2398
  301loPI   C1B 4813  12.241  12.602   8.997  0.0987 -0.0324  0.1256
  301loPI   C2B 4814  12.444  12.545   8.692 -0.0156 -0.0062  0.3041
  301loPI   C3B 4815  12.653  12.457   8.270 -0.0102  0.3366 -0.1130
  301loPI   C4B 4816  12.675  12.718   7.906 -0.1715 -0.0329 -0.3937
  302loPI    C1 4817  16.123  12.992   9.195 -0.3961 -0.1537 -0.1370
  302loPI    C2 4818  16.014  12.670   9.406 -0.1010  0.0129  0.2827
  302loPI    C3 4819  16.076  13.019   9.591  0.2225  0.1518 -0.0723
  302loPI   PO4 4820  16.229  12.861   8.987  0.1536  0.0795 -0.0831
  302loPI   GL1 4821  16.280  12.933   8.600 -0.0707  0.0593 -0.1310
  302loPI   GL2 4822  16.518  13.084   8.615 -0.1680 -0.0358 -0.1592
  302loPI   C1A 4823  16.207  13.116   8.131  0.2314  0.1639  0.0942
  302loPI   C2A 4824  16.271  13.406   7.852  0.1712 -0.0415  0.0144
  302loPI   C3A 4825  16.570  13.433   7.482  0.2229  0.0625  0.3383
  302loPI   C4A 4826  16.505  13.527   7.089 -0.0316 -0.5372  0.0647
  302loPI   C5A 4827  16.466  13.627   6.557 -0.0323 -0.1527 -0.1495
  302loPI   C6A 4828  16.080  13.766   6.411 -0.0488 -0.0760  0.0776
  302loPI   C1B 4829  16.748  13.172   8.198 -0.0382 -0.2535 -0.2926
  302loPI   C2B 4830  16.931  13.083   7.771  0.0856  0.0643 -0.0631
  302loPI   C3B 4831  16.833  12.836   7.443 -0.1196  0.1392 -0.0446
  302loPI   C4B 4832  16.488  12.589   7.146 -0.2023  0.1197 -0.1905
  303loPI    C1 4833   8.393   4.332   9.758  0.0851  0.1964  0.0073
  303loPI    C2 4834   8.133   4.190  10.027  0.1128  0.0186 -0.0582
  303loPI    C3 4835   8.242   4.575  10.037 -0.0232  0.0545  0.0735
  303loPI   PO4 4836   8.364   4.271   9.543  0.1236 -0.0830  0.0593
  303loPI   GL1 4837   8.626   4.160   9.116  0.2478 -0.0277  0.1070
  303loPI   GL2 4838   8.743   4.503   9.151 -0.0952  0.0292 -0.3477
  303loPI   C1A 4839   8.969   4.184   8.824  0.1539 -0.0771  0.0996
  303loPI   C2A 4840   9.237   4.389   8.780 -0.0866  0.2655  0.0904
  303loPI   C3A 4841   9.539   4.411   8.401  0.1931 -0.1157  0.0493
  303loPI   C4A 4842   9.778   4.377   8.065 -0.0774 -0.0049  0.0315
  303loPI   C5A 4843  10.235   4.439   7.881 -0.2699  0.1552 -0.3207
  303loPI   C6A 4844  10.520   4.791   7.726 -0.0213 -0.0158 -0.1230
  303loPI   C1B 4845   8.573   4.407   8.674 -0.2889 -0.0463 -0.0735
  303loPI   C2B 4846   8.501   4.504   8.215 -0.3208 -0.0784  0.2249
  303loPI   C3B 4847   8.478   4.571   7.728  0.1580  0.0602 -0.1076
  303loPI   C4B 4848   8.185   4.720   7.388 -0.1676 -0.3491  0.2087
  304loPI    C1 4849   3.980   3.910  10.010  0.1042  0.0073 -0.0533
  304loPI    C2 4850   4.238   4.215  10.026  0.0011  0.0976 -0.0971
  304loPI    C3 4851   3.864   4.276   9.897 -0.0746 -0.0102  0.0688
  304loPI   PO4 4852   4.205   3.664   9.809 -0.0276  0.2454 -0.1257
  304loPI   GL1 4853   4.316   3.630   9.366 -0.0177  0.2150  0.1639
  304loPI   GL2 4854   4.160   3.931   9.222  0.0211  0.0378 -0.1819
  304loPI   C1A 4855   4.114   3.507   8.918  0.0302 -0.1194 -0.3110
  304loPI   C2A 4856   3.925   3.173   8.620 -0.2959 -0.2802  0.0705
  304loPI   C3A 4857   3.777   2.973   8.270  0.1184 -0.2089 -0.0943
  304loPI   C4A 4858   3.799   3.052   7.838 -0.1196  0.1041 -0.0660
  304loPI   C5A 4859   3.582   3.072   7.373  0.4776 -0.3193 -0.1299
  304loPI   C6A 4860   3.516   2.667   7.223 -0.1354 -0.1220 -0.1577
  304loPI   C1B 4861   3.916   4.083   8.792  0.2597  0.0689 -0.1641
  304loPI   C2B 4862   3.797   4.142   8.351  0.1160 -0.0718 -0.1323
  304loPI   C3B 4863   3.682   4.094   8.016  0.1459 -0.1411 -0.0459
  304loPI   C4B 4864   3.816   3.994   7.638 -0.0464 -0.1413  0.0653
  305loPI    C1 4865   9.780   4.217   9.890  0.0562 -0.2175  0.1369
  305loPI    C2 4866   9.568   3.949  10.100  0.0534 -0.1307  0.2457
  305loPI    C3 4867   9.604   4.325  10.233  0.0554 -0.0758  0.0925
  305loPI   PO4 4868   9.639   4.112   9.602  0.0734  0.1011 -0.2649
  305loPI   GL1 4869   9.615   3.878   9.135  0.3308 -0.1415  0.0430
  305loPI   GL2 4870   9.448   3.788   9.009 -0.3048 -0.1679 -0.1549
  305loPI   C1A 4871   9.900   3.923   8.800 -0.1176 -0.2319  0.3158
  305loPI   C2A 4872   9.867   4.001   8.439 -0.0974  0.3370 -0.2792
  305loPI   C3A 4873   9.770   3.842   8.039  0.1652  0.0612 -0.0763
  305loPI   C4A 4874   9.875   3.516   7.732  0.0685  0.3566  0.3098
  305loPI   C5A 4875   9.788   3.231   7.390 -0.0344  0.0731 -0.1186
  305loPI   C6A 4876   9.942   3.050   6.956  0.1738  0.0016 -0.2644
  305loPI   C1B 4877   9.354   3.950   8.608 -0.0497  0.2136  0.0255
  305loPI   C2B 4878   9.134   4.171   8.318 -0.0771  0.2452  0.0398
  305loPI   C3B 4879   9.340   4.173   7.961 -0.1846  0.0646 -0.1757
  305loPI   C4B 4880   9.327   4.001   7.547 -0.3286  0.1674 -0.1650
  306loPI    C1 4881  10.978  17.230   9.587  0.2007  0.1621  0.1365
  306loPI    C2 4882  10.796  17.480   9.840  0.1719  0.0456  0.2321
  306loPI    C3 4883  11.008  17.172   9.982 -0.1914 -0.2671  0.1129
  306loPI   PO4 4884  10.858  17.197   9.342  0.3344 -0.1518 -0.0749
  306loPI   GL1 4885  10.843  17.422   8.950 -0.0604  0.0578  0.3840
  306loPI   GL2 4886  10.536  17.500   9.004  0.2910  0.1544  0.1108
  306loPI   C1A 4887  10.968  17.402   8.556 -0.2902  0.1139  0.0679
  306loPI   C2A 4888  11.045  17.348   8.015  0.1086 -0.3210 -0.1328
  306loPI   C3A 4889  10.865  17.535   7.719  0.1037  0.1233  0.0254
  306loPI   C4A 4890  10.653  17.590   7.380 -0.1257  0.0263  0.3322
  306loPI   C5A 4891  10.561  17.643   6.991  0.2612 -0.0120 -0.1806
  306loPI   C6A 4892  10.519  17.692   6.611  0.0866  0.2734 -0.1712
  306loPI   C1B 4893  10.331  17.697   8.671  0.0397  0.3368 -0.0738
  306loPI   C2B 4894  10.298  18.029   8.373  0.1172  0.3741  0.0145
  306loPI   C3B 4895  10.513  18.252   8.030 -0.2039  0.0744  0.0948
  306loPI   C4B 4896  10.370  18.487   7.652 -0.1732 -0.2091  0.0603
  307loPI    C1 4897  11.913  12.899   9.933  0.1948 -0.0648 -0.0616
  307loPI    C2 4898  11.898  12.605  10.204 -0.3103 -0.2014 -0.2268
  307loPI    C3 4899  11.735  12.961  10.285 -0.1615 -0.1326 -0.2255
  307loPI   PO4 4900  11.739  12.810   9.657 -0.1221 -0.1707 -0.0061
  307loPI   GL1 4901  11.475  12.995   9.365  0.2701 -0.0257  0.0891
  307loPI   GL2 4902  11.147  12.937   9.449 -0.0724  0.2785 -0.1990
  307loPI   C1A 4903  11.353  12.866   8.933 -0.3011 -0.0396  0.2956
  307loPI   C2A 4904  11.142  12.678   8.625 -0.0043  0.1521 -0.2759
  307loPI   C3A 4905  11.313  12.801   8.258 -0.2062 -0.2078 -0.1627
  307loPI   C4A 4906  11.503  12.984   7.942  0.0437 -0.1701  0.2804
  307loPI   C5A 4907  11.854  12.971   7.761  0.0673 -0.0558  0.3655
  307loPI   C6A 4908  12.168  13.067   7.453 -0.1224  0.0745  0.1877
  307loPI   C1B 4909  10.923  13.060   9.028  0.0283  0.0914 -0.1749
  307loPI   C2B 4910  10.548  12.904   8.908  0.1338  0.2513  0.2732
  307loPI   C3B 4911  10.274  13.074   8.519 -0.1950 -0.0547 -0.2651
  307loPI   C4B 4912  10.059  12.819   8.254 -0.1856  0.1303 -0.1282
  308loPI    C1 4913   4.293   6.994  10.042 -0.2575  0.1897 -0.1667
  308loPI    C2 4914   4.118   6.890  10.386 -0.0399  0.0676 -0.0913
  308loPI    C3 4915   4.283   7.252  10.348 -0.1832  0.1312 -0.1148
  308loPI   PO4 4916   4.161   6.980   9.822  0.4215 -0.0433 -0.2588
  308loPI   GL1 4917   4.355   7.031   9.332 -0.2456 -0.2307  0.2474
  308loPI   GL2 4918   4.405   7.284   9.440 -0.1127  0.3164  0.0420
  308loPI   C1A 4919   4.374   6.902   8.897 -0.0771 -0.4435  0.2278
  308loPI   C2A 4920   4.045   6.958   8.590  0.0128 -0.2171  0.0060
  308loPI   C3A 4921   3.830   7.093   8.218  0.1290 -0.0029 -0.3947
  308loPI   C4A 4922   3.545   7.236   7.935 -0.2979  0.0226 -0.3185
  308loPI   C5A 4923   3.437   7.405   7.516 -0.1279 -0.0860 -0.3531
  308loPI   C6A 4924   3.286   7.191   7.196  0.0475  0.1181  0.0001
  308loPI   C1B 4925   4.629   7.360   9.066 -0.1610 -0.0171 -0.4062
  308loPI   C2B 4926   5.107   7.323   8.856  0.2345 -0.2277 -0.0811
  308loPI   C3B 4927   5.238   7.169   8.501  0.1175 -0.1223  0.2729
  308loPI   C4B 4928   5.367   7.274   8.091 -0.0496  0.2880  0.2103
  309loPI    C1 4929  10.624  18.795   9.629 -0.1567  0.0936  0.0224
  309loPI    C2 4930  10.524  19.177   9.566  0.0788  0.1228 -0.1876
  309loPI    C3 4931  10.717  19.073   9.901 -0.1513  0.1556 -0.0425
  309loPI   PO4 4932  10.721  18.726   9.461 -0.3438  0.0719  0.0546
  309loPI   GL1 4933  10.664  18.730   9.124  0.0273  0.0293 -0.1349
  309loPI   GL2 4934  10.643  18.497   8.917 -0.0874 -0.1132 -0.1055
  309loPI   C1A 4935  10.897  18.908   8.752  0.1481  0.0294 -0.1645
  309loPI   C2A 4936  10.907  18.823   8.226 -0.0571  0.0251  0.2132
  309loPI   C3A 4937  10.749  18.867   7.781 -0.3613  0.2146 -0.0538
  309loPI   C4A 4938  10.454  19.029   7.509  0.2042  0.0088  0.3624
  309loPI   C5A 4939  10.267  19.263   7.110  0.2103 -0.1177  0.0778
  309loPI   C6A 4940   9.909  19.449   7.080  0.0710  0.1741 -0.0277
  309loPI   C1B 4941  10.439  18.553   8.533 -0.0828 -0.1913  0.2360
  309loPI   C2B 4942  10.370  18.726   8.091 -0.0526  0.1402 -0.0127
  309loPI   C3B 4943  10.094  18.843   7.880  0.1487 -0.0116  0.0062
  309loPI   C4B 4944   9.985  19.050   7.486  0.2163  0.3332  0.0124
  310loPI    C1 4945  11.135   5.785   9.519  0.0574  0.1113  0.1769
  310loPI    C2 4946  11.008   5.425   9.637 -0.0595  0.1154  0.0652
  310loPI    C3 4947  11.044   5.722   9.904 -0.4376  0.1589  0.0740
  310loPI   PO4 4948  11.282   5.712   9.314  0.0088 -0.0420  0.0197
  310loPI   GL1 4949  11.238   5.879   9.010  0.1777 -0.0135 -0.0783
  310loPI   GL2 4950  11.355   6.109   8.964  0.0051  0.0027  0.0157
  310loPI   C1A 4951  11.367   5.640   8.584  0.2683  0.1571 -0.1774
  310loPI   C2A 4952  11.383   5.665   8.153  0.0811  0.3574  0.1786
  310loPI   C3A 4953  11.347   5.781   7.691  0.4287  0.0492 -0.1012
  310loPI   C4A 4954  11.517   6.148   7.517 -0.2537 -0.1326  0.0362
  310loPI   C5A 4955  11.534   6.546   7.307 -0.4061  0.2627  0.2503
  310loPI   C6A 4956  11.791   6.952   7.538 -0.1399  0.0240  0.1188
  310loPI   C1B 4957  11.597   6.072   8.628  0.3758  0.2866  0.1050
  310loPI   C2B 4958  11.837   6.479   8.458  0.0453 -0.1303  0.1534
  310loPI   C3B 4959  11.741   6.885   8.209  0.0560  0.0474  0.2227
  310loPI   C4B 4960  11.886   7.264   8.147 -0.1180 -0.1311  0.1196
  311loPI    C1 4961   8.712   1.800   9.676  0.1445 -0.0502  0.0006
  311loPI    C2 4962   8.500   1.653   9.982 -0.0021 -0.1488 -0.1468
  311loPI    C3 4963   8.641   2.027   9.998 -0.1353 -0.1029 -0.0212
  311loPI   PO4 4964   8.689   1.606   9.535 -0.2671 -0.3665 -0.1442
  311loPI   GL1 4965   8.948   1.522   9.148 -0.2328 -0.3069  0.0670
  311loPI   GL2 4966   8.618   1.552   8.987 -0.1770 -0.1196  0.0767
  311loPI   C1A 4967   8.967   1.856   8.743 -0.0809  0.0472  0.1290
  311loPI   C2A 4968   9.320   1.904   8.713 -0.0769  0.1429  0.2412
  311loPI   C3A 4969   9.521   2.040   8.364 -0.1330 -0.2337  0.3113
  311loPI   C4A 4970   9.505   2.260   8.055 -0.0881  0.3205  0.0510
  311loPI   C5A 4971   9.393   2.461   7.779 -0.1031  0.0080 -0.0635
  311loPI   C6A 4972   9.099   2.695   7.523 -0.2348 -0.3062 -0.1463
  311loPI   C1B 4973   8.483   1.636   8.577 -0.1360  0.1327 -0.1501
  311loPI   C2B 4974   8.452   1.437   8.170  0.0304 -0.0724 -0.0053
  311loPI   C3B 4975   8.336   1.299   7.835 -0.1904 -0.1370  0.0062
  311loPI   C4B 4976   8.589   1.145   7.538 -0.0060 -0.0759  0.2386
  312loPI    C1 4977  12.656   7.387   9.462 -0.1004  0.2000 -0.0830
  312loPI    C2 4978  12.410   7.638   9.653  0.0569  0.1629  0.1738
  312loPI    C3 4979  12.802   7.645   9.731  0.0887 -0.0292  0.0385
  312loPI   PO4 4980  12.535   7.441   9.215  0.0788 -0.2888  0.1882
  312loPI   GL1 4981  12.184   7.300   9.022 -0.0494 -0.2456  0.0456
  312loPI   GL2 4982  12.376   7.230   8.730  0.1607  0.0461 -0.3905
  312loPI   C1A 4983  11.899   7.363   8.739 -0.1484 -0.0695 -0.1976
  312loPI   C2A 4984  11.720   7.609   8.537  0.1319 -0.1575 -0.3735
  312loPI   C3A 4985  11.520   7.683   8.143 -0.1186 -0.2374 -0.0698
  312loPI   C4A 4986  11.445   7.551   7.714  0.0300 -0.0085 -0.0051
  312loPI   C5A 4987  11.298   7.177   7.481 -0.2383 -0.0184 -0.1362
  312loPI   C6A 4988  11.045   6.813   7.329 -0.1239 -0.0569 -0.2290
  312loPI   C1B 4989  12.422   7.386   8.413 -0.3555  0.2920 -0.1819
  312loPI   C2B 4990  12.322   7.607   8.013  0.2493  0.1351 -0.0683
  312loPI   C3B 4991  12.173   7.860   7.672  0.0923 -0.0201 -0.0570
  312loPI   C4B 4992  12.248   7.881   7.297 -0.1513 -0.1351 -0.1212
  313loPI    C1 4993  15.174  15.144   9.207  0.0250 -0.2293  0.0996
  313loPI    C2 4994  15.116  15.378   9.526 -0.2411 -0.2983  0.1041
  313loPI    C3 4995  15.352  15.056   9.554  0.1870  0.0044  0.0785
  313loPI   PO4 4996  14.988  15.075   9.111 -0.4113 -0.1877  0.1926
  313loPI   GL1 4997  15.047  15.095   8.689  0.1504  0.1528  0.0813
  313loPI   GL2 4998  15.025  15.440   8.790 -0.2297  0.0674 -0.0220
  313loPI   C1A 4999  14.744  15.188   8.339 -0.0930  0.1536 -0.1398
  313loPI   C2A 5000  14.533  15.429   8.044 -0.3254 -0.1320  0.1036
  313loPI   C3A 5001  14.131  15.514   7.994  0.2922  0.1741  0.0527
  313loPI   C4A 5002  13.959  15.799   8.315  0.3202  0.1986 -0.0079
  313loPI   C5A 5003  14.171  16.099   8.600  0.1033 -0.0435  0.0974
  313loPI   C6A 5004  14.307  16.426   8.429 -0.2773  0.0258  0.1362
  313loPI   C1B 5005  15.274  15.452   8.414  0.0123 -0.0582  0.0296
  313loPI   C2B 5006  15.141  15.326   7.987 -0.1644  0.0005 -0.1877
  313loPI   C3B 5007  15.277  15.185   7.592 -0.0392  0.2616  0.1329
  313loPI   C4B 5008  15.201  15.169   7.158 -0.0539  0.0530 -0.3264
  314loPI    C1 5009  12.132   8.314   9.687  0.1230 -0.1454  0.1339
  314loPI    C2 5010  11.830   8.247   9.940 -0.1195 -0.0855 -0.1342
  314loPI    C3 5011  12.161   8.023   9.960 -0.1046 -0.0353  0.2787
  314loPI   PO4 5012  12.026   8.340   9.415 -0.0102  0.0807 -0.2572
  314loPI   GL1 5013  12.209   8.569   9.120 -0.3731 -0.0196 -0.1011
  314loPI   GL2 5014  12.377   8.810   8.994 -0.1783 -0.2982  0.0396
  314loPI   C1A 5015  11.994   8.553   8.726  0.0214 -0.1751 -0.2300
  314loPI   C2A 5016  12.042   8.414   8.427 -0.1757 -0.2700 -0.0455
  314loPI   C3A 5017  12.153   8.525   7.910  0.1321 -0.6212  0.1443
  314loPI   C4A 5018  11.944   8.836   7.600  0.1759 -0.1172 -0.0510
  314loPI   C5A 5019  12.174   9.076   7.351  0.0719 -0.3413  0.2377
  314loPI   C6A 5020  12.540   9.324   7.140  0.2700 -0.0644  0.0509
  314loPI   C1B 5021  12.471   8.764   8.559 -0.0437  0.1070  0.0467
  314loPI   C2B 5022  12.480   8.630   8.219  0.1705  0.0349 -0.1115
  314loPI   C3B 5023  12.713   8.565   7.820  0.0579 -0.0147  0.3267
  314loPI   C4B 5024  12.933   8.409   7.430 -0.0712  0.1342  0.1428
  315loPI    C1 5025  14.495  14.242   9.752  0.0988  0.0055 -0.0776
  315loPI    C2 5026  14.227  14.388  10.011  0.1396  0.1392 -0.1102
  315loPI    C3 5027  14.517  14.144  10.139  0.2269  0.2941 -0.0094
  315loPI   PO4 5028  14.476  14.425   9.508  0.2168  0.3080  0.2294
  315loPI   GL1 5029  14.430  14.328   8.982  0.0947  0.2637 -0.2146
  315loPI   GL2 5030  14.704  14.298   8.952  0.1367 -0.2806 -0.4246
  315loPI   C1A 5031  14.262  14.363   8.610 -0.1971 -0.1128  0.0247
  315loPI   C2A 5032  14.019  14.592   8.363 -0.0234  0.1322  0.2432
  315loPI   C3A 5033  13.746  14.756   8.003  0.0243  0.2118  0.1139
  315loPI   C4A 5034  13.319  14.760   7.778  0.0388  0.1408  0.0697
  315loPI   C5A 5035  12.868  14.785   7.750  0.0668 -0.3368  0.0962
  315loPI   C6A 5036  12.611  14.770   7.406 -0.3656  0.0628 -0.1108
  315loPI   C1B 5037  14.849  14.426   8.464  0.0506 -0.0572  0.1082
  315loPI   C2B 5038  14.980  14.729   8.282 -0.0096 -0.1241  0.0914
  315loPI   C3B 5039  14.889  14.861   7.915  0.1461 -0.0002 -0.0317
  315loPI   C4B 5040  14.761  14.804   7.472 -0.1138  0.1135 -0.1785
  316loPI    C1 5041   5.390   4.706   9.695 -0.1295  0.0924  0.1602
  316loPI    C2 5042   5.397   5.104   9.656  0.0031  0.0881  0.1362
  316loPI    C3 5043   5.418   4.938  10.020 -0.1542  0.1046  0.1538
  316loPI   PO4 5044   5.560   4.590   9.567 -0.3094  0.0192 -0.0573
  316loPI   GL1 5045   5.523   4.291   9.289 -0.0123 -0.1460 -0.0207
  316loPI   GL2 5046   5.549   4.023   9.383  0.1650 -0.2059 -0.1686
  316loPI   C1A 5047   5.320   4.600   8.936  0.0478  0.1105  0.0574
  316loPI   C2A 5048   5.207   4.573   8.472  0.0894 -0.4310  0.2123
  316loPI   C3A 5049   5.282   4.966   8.182 -0.3009  0.3280 -0.0741
  316loPI   C4A 5050   5.259   5.111   7.766 -0.0459  0.0420  0.2226
  316loPI   C5A 5051   5.314   4.993   7.415 -0.2271  0.2038 -0.1002
  316loPI   C6A 5052   5.495   4.803   7.193 -0.1879  0.0136  0.1073
  316loPI   C1B 5053   5.300   4.047   8.952 -0.0177  0.2110 -0.1095
  316loPI   C2B 5054   4.978   4.171   8.681 -0.2874  0.0426 -0.1685
  316loPI   C3B 5055   5.039   4.181   8.233 -0.3021 -0.0085  0.2714
  316loPI   C4B 5056   4.992   3.768   7.967  0.1481  0.0444  0.0533
  317loPI    C1 5057  14.536  20.111   9.363  0.0477  0.0466  0.0329
  317loPI    C2 5058  14.393  19.740   9.314 -0.0528  0.1054 -0.1261
  317loPI    C3 5059  14.781  19.797   9.391 -0.0136 -0.0265 -0.2245
  317loPI   PO4 5060  14.312  20.238   9.078 -0.2044 -0.3140  0.0583
  317loPI   GL1 5061  14.246  19.898   8.781  0.1504 -0.0007  0.1417
  317loPI   GL2 5062  13.948  20.157   8.652 -0.0723 -0.0958 -0.1616
  317loPI   C1A 5063  14.102  19.715   8.423  0.2720 -0.1653  0.0280
  317loPI   C2A 5064  14.041  19.853   7.946 -0.2000 -0.1272 -0.1504
  317loPI   C3A 5065  14.033  19.938   7.501  0.3469 -0.1344  0.1571
  317loPI   C4A 5066  14.258  20.003   6.996  0.2398  0.1214  0.2642
  317loPI   C5A 5067  14.297  20.186   6.532 -0.1903  0.0768 -0.1047
  317loPI   C6A 5068  14.341  19.939   6.212 -0.0281 -0.0976 -0.0669
  317loPI   C1B 5069  14.072  20.327   8.225  0.0382 -0.2360 -0.2192
  317loPI   C2B 5070  14.040  20.396   7.757 -0.1526  0.0150  0.1355
  317loPI   C3B 5071  14.083  20.760   7.553 -0.0013 -0.2585 -0.2655
  317loPI   C4B 5072  13.900  21.084   7.236  0.1803  0.3462  0.1798
  318loPI    C1 5073  10.316   9.634   9.742  0.1061  0.0114 -0.0766
  318loPI    C2 5074  10.147   9.992   9.803  0.2267  0.0866 -0.1782
  318loPI    C3 5075  10.142   9.716  10.093  0.2823  0.2311 -0.0378
  318loPI   PO4 5076  10.572   9.789   9.697  0.2076  0.0094  0.3598
  318loPI   GL1 5077  10.425   9.916   9.354  0.0919  0.0672  0.0628
  318loPI   GL2 5078  10.399  10.235   9.420 -0.0582  0.1331 -0.0023
  318loPI   C1A 5079  10.200   9.820   8.970  0.0620  0.0432 -0.0731
  318loPI   C2A 5080  10.025  10.054   8.680  0.0759  0.1437 -0.0270
  318loPI   C3A 5081  10.019   9.958   8.232 -0.0416 -0.2969  0.1213
  318loPI   C4A 5082  10.202  10.027   7.728  0.4531  0.1397  0.1460
  318loPI   C5A 5083  10.260  10.111   7.379  0.1181 -0.2416 -0.0252
  318loPI   C6A 5084  10.358   9.940   7.001  0.1861  0.3251 -0.0066
  318loPI   C1B 5085  10.139  10.351   9.049 -0.3433  0.2432 -0.1920
  318loPI   C2B 5086  10.311  10.644   8.751  0.2253  0.0965 -0.0864
  318loPI   C3B 5087  10.250  10.689   8.341 -0.3150 -0.0253  0.0823
  318loPI   C4B 5088  10.315  11.056   8.005 -0.0277  0.1514  0.0315
  319loPI    C1 5089   1.704   2.388   9.611 -0.1237 -0.0460  0.1688
  319loPI    C2 5090   1.850   2.554   9.945 -0.1396  0.2132  0.0494
  319loPI    C3 5091   1.575   2.265   9.969  0.0208  0.0756  0.2643
  319loPI   PO4 5092   1.918   2.308   9.467  0.0320 -0.0409  0.2524
  319loPI   GL1 5093   1.808   2.004   9.127  0.3456 -0.2459 -0.2370
  319loPI   GL2 5094   2.069   2.073   8.994  0.0409 -0.2092 -0.2856
  319loPI   C1A 5095   1.610   2.045   8.753 -0.1991 -0.0175  0.0840
  319loPI   C2A 5096   1.768   2.163   8.345  0.0947 -0.0568 -0.3392
  319loPI   C3A 5097   1.914   2.529   8.125 -0.3382  0.0955  0.0268
  319loPI   C4A 5098   1.917   2.518   7.653 -0.5641 -0.0655 -0.1314
  319loPI   C5A 5099   2.248   2.552   7.318 -0.1232 -0.2277  0.1278
  319loPI   C6A 5100   2.575   2.665   7.033  0.1209 -0.0694  0.1586
  319loPI   C1B 5101   2.133   1.714   8.702  0.0117 -0.0753  0.2253
  319loPI   C2B 5102   2.071   1.683   8.362 -0.2201 -0.0449 -0.1281
  319loPI   C3B 5103   1.826   1.660   7.968  0.0596  0.3148  0.2269
  319loPI   C4B 5104   1.714   2.091   7.750 -0.2309  0.4752  0.0810
  320loPI    C1 5105   1.265   7.561   9.482  0.1923  0.3170 -0.0904
  320loPI    C2 5106   1.589   7.624   9.708  0.1788 -0.0984  0.0532
  320loPI    C3 5107   1.232   7.575   9.880  0.1180 -0.1157 -0.0770
  320loPI   PO4 5108   1.303   7.528   9.261 -0.0793  0.0168 -0.1361
  320loPI   GL1 5109   1.424   7.488   8.841  0.0968 -0.1400  0.1751
  320loPI   GL2 5110   1.384   7.201   8.846  0.0959 -0.2156 -0.0240
  320loPI   C1A 5111   1.187   7.821   8.563 -0.0617 -0.0927 -0.1444
  320loPI   C2A 5112   1.095   8.061   8.204 -0.2781  0.0278  0.0926
  320loPI   C3A 5113   0.954   7.897   7.829  0.1315 -0.1308  0.3004
  320loPI   C4A 5114   0.990   7.891   7.350  0.1528 -0.0594  0.1082
  320loPI   C5A 5115   1.142   7.682   7.007  0.2775  0.1575 -0.2470
  320loPI   C6A 5116   1.083   7.238   6.823  0.1347  0.0124  0.1980
  320loPI   C1B 5117   1.419   7.350   8.380  0.1173  0.0162  0.0291
  320loPI   C2B 5118   1.401   7.684   8.000 -0.1287 -0.3279 -0.4146
  320loPI   C3B 5119   1.535   7.805   7.605 -0.2065  0.1914 -0.0223
  320loPI   C4B 5120   1.669   7.809   7.212  0.0375  0.0359 -0.0473
  321loPI    C1 5121   6.151  19.425   9.838  0.2112  0.0592 -0.2124
  321loPI    C2 5122   5.884  19.128   9.820  0.2199  0.0450 -0.1184
  321loPI    C3 5123   5.828  19.431  10.074  0.2915  0.0440 -0.1012
  321loPI   PO4 5124   6.219  19.666   9.709 -0.0036  0.1228 -0.0421
  321loPI   GL1 5125   6.147  19.708   9.318  0.2190 -0.3237 -0.3911
  321loPI   GL2 5126   6.414  19.798   9.210 -0.2067 -0.2199  0.2024
  321loPI   C1A 5127   5.750  19.616   9.032 -0.1650 -0.2017  0.1386
  321loPI   C2A 5128   5.769  19.650   8.513 -0.0980  0.0483  0.4324
  321loPI   C3A 5129   5.559  19.352   8.202 -0.0545 -0.0411 -0.1588
  321loPI   C4A 5130   5.489  19.170   7.827  0.5814 -0.4051  0.2405
  321loPI   C5A 5131   5.536  19.287   7.320 -0.0314  0.2105 -0.0147
  321loPI   C6A 5132   5.853  19.158   7.062 -0.0298 -0.0454 -0.0293
  321loPI   C1B 5133   6.520  19.841   8.801  0.1009  0.3493 -0.0222
  321loPI   C2B 5134   6.295  19.830   8.461  0.3732 -0.0884  0.2929
  321loPI   C3B 5135   6.012  19.733   8.139 -0.1742  0.1299  0.1310
  321loPI   C4B 5136   5.713  19.732   7.700 -0.0452  0.1334  0.2378
  322loPI    C1 5137   4.495  16.551  10.194 -0.0813  0.1269  0.1320
  322loPI    C2 5138   4.710  16.885  10.246  0.0611  0.0447  0.0785
  322loPI    C3 5139   4.891  16.528  10.246 -0.0700 -0.0230 -0.0112
  322loPI   PO4 5140   4.355  16.602   9.968  0.4838 -0.1881 -0.0959
  322loPI   GL1 5141   4.195  16.719   9.485  0.1058  0.1136  0.0533
  322loPI   GL2 5142   4.505  16.605   9.408 -0.0744 -0.0357 -0.0218
  322loPI   C1A 5143   3.957  16.709   9.061  0.2996 -0.2382 -0.1008
  322loPI   C2A 5144   3.737  16.604   8.668  0.0829  0.1185  0.0796
  322loPI   C3A 5145   3.734  16.748   8.265  0.0597  0.0570  0.0744
  322loPI   C4A 5146   3.759  16.813   7.814 -0.2925 -0.2013  0.2076
  322loPI   C5A 5147   4.097  16.765   7.423  0.0786  0.0764 -0.1384
  322loPI   C6A 5148   4.234  16.911   7.038 -0.2243  0.2866 -0.2371
  322loPI   C1B 5149   4.493  16.698   8.923  0.2717 -0.0900  0.0201
  322loPI   C2B 5150   4.582  16.691   8.597 -0.0403  0.3632  0.3161
  322loPI   C3B 5151   4.652  16.611   8.153  0.1011  0.0724 -0.1860
  322loPI   C4B 5152   4.446  16.600   7.692 -0.1805  0.0718 -0.0041
  323loPI    C1 5153   5.758  12.008  10.069 -0.0690  0.0351 -0.0668
  323loPI    C2 5154   5.861  12.047  10.453 -0.0409  0.1913 -0.0899
  323loPI    C3 5155   5.569  11.795  10.350  0.0391  0.0522  0.0197
  323loPI   PO4 5156   5.922  11.935   9.809  0.3672  0.1031  0.0693
  323loPI   GL1 5157   5.983  12.026   9.363 -0.3664 -0.1282 -0.3977
  323loPI   GL2 5158   6.223  11.710   9.459 -0.0693 -0.3624  0.1793
  323loPI   C1A 5159   5.928  12.176   8.921 -0.4921  0.2543 -0.0406
  323loPI   C2A 5160   5.844  12.316   8.453 -0.5279 -0.0331  0.0128
  323loPI   C3A 5161   5.829  12.192   8.040  0.3092  0.0895 -0.0476
  323loPI   C4A 5162   5.565  12.047   7.658  0.4541  0.1058  0.2713
  323loPI   C5A 5163   5.297  12.245   7.297  0.0235 -0.1404  0.1813
  323loPI   C6A 5164   4.843  12.183   7.163 -0.0144 -0.1522  0.0635
  323loPI   C1B 5165   5.944  11.469   9.119 -0.0468  0.0921  0.0297
  323loPI   C2B 5166   5.751  11.603   8.709 -0.0733  0.1554 -0.3993
  323loPI   C3B 5167   5.811  11.808   8.354 -0.2067  0.0999 -0.3342
  323loPI   C4B 5168   5.960  11.636   7.928  0.0920  0.1032 -0.1913
  324loPI    C1 5169  16.238  14.937   9.295  0.0872  0.0888 -0.2135
  324loPI    C2 5170  16.480  15.050   9.592 -0.0514 -0.1622 -0.0015
  324loPI    C3 5171  16.458  14.664   9.488  0.1801 -0.0466 -0.5050
  324loPI   PO4 5172  16.243  15.034   9.108  0.0042  0.0135  0.0632
  324loPI   GL1 5173  16.298  15.087   8.638 -0.4202 -0.1165  0.0820
  324loPI   GL2 5174  15.999  14.970   8.619  0.0850  0.0553  0.0644
  324loPI   C1A 5175  16.320  15.518   8.351  0.0610  0.0368  0.1416
  324loPI   C2A 5176  16.129  15.695   8.038 -0.0859  0.1551 -0.1689
  324loPI   C3A 5177  15.912  15.820   7.715 -0.0139 -0.3176  0.1214
  324loPI   C4A 5178  15.844  15.927   7.273  0.5236 -0.2234 -0.2388
  324loPI   C5A 5179  16.085  15.718   6.903 -0.2682  0.0090 -0.1443
  324loPI   C6A 5180  16.228  15.576   6.470 -0.0424 -0.1477 -0.0999
  324loPI   C1B 5181  15.843  14.768   8.285 -0.0362  0.3128 -0.0654
  324loPI   C2B 5182  15.514  14.470   8.013  0.2988 -0.2293 -0.1499
  324loPI   C3B 5183  15.172  14.487   7.714 -0.0151  0.1635  0.1142
  324loPI   C4B 5184  15.183  14.651   7.209 -0.1563 -0.0175  0.0672
  325loPI    C1 5185  11.197  15.478   9.237  0.0772  0.0547 -0.2703
  325loPI    C2 5186  11.146  15.254   8.909 -0.0047  0.1939 -0.3541
  325loPI    C3 5187  11.507  15.406   8.993  0.1633 -0.3427 -0.0516
  325loPI   PO4 5188  10.979  15.644   9.236 -0.1648 -0.2292 -0.1848
  325loPI   GL1 5189  10.738  15.632   8.949  0.1238 -0.0546  0.0669
  325loPI   GL2 5190  10.547  15.853   8.808 -0.1782  0.0089 -0.0781
  325loPI   C1A 5191  10.751  15.209   8.629  0.1693  0.0529  0.3467
  325loPI   C2A 5192  10.713  15.003   8.323  0.0020  0.1740 -0.0115
  325loPI   C3A 5193  10.810  15.044   7.920  0.1608 -0.2340 -0.1704
  325loPI   C4A 5194  10.668  15.122   7.570 -0.0340  0.0420  0.4443
  325loPI   C5A 5195  10.450  15.010   7.204 -0.1736 -0.1691  0.3559
  325loPI   C6A 5196  10.042  14.844   7.034  0.0500  0.1428  0.1536
  325loPI   C1B 5197  10.630  15.722   8.338 -0.4227  0.0019 -0.1868
  325loPI   C2B 5198  11.075  15.553   8.125 -0.1124  0.1887  0.1291
  325loPI   C3B 5199  11.277  15.359   7.824  0.2526 -0.0207 -0.2658
  325loPI   C4B 5200  11.171  15.034   7.529 -0.2945 -0.1675 -0.0572
  326loPI    C1 5201  17.058   6.719   9.483  0.1236 -0.0556 -0.0563
  326loPI    C2 5202  17.205   6.350   9.437  0.3821  0.0484 -0.0792
  326loPI    C3 5203  17.396   6.614   9.670 -0.0393  0.0333  0.2980
  326loPI   PO4 5204  17.029   6.805   9.247 -0.1044 -0.2763  0.2817
  326loPI   GL1 5205  17.129   6.878   8.813 -0.0780  0.4490  0.1136
  326loPI   GL2 5206  16.965   7.168   8.760  0.1909  0.2287  0.2185
  326loPI   C1A 5207  17.371   6.812   8.460  0.0973  0.0382  0.3797
  326loPI   C2A 5208  17.575   6.581   8.086  0.1045  0.0852 -0.2641
  326loPI   C3A 5209  17.731   6.444   7.665 -0.1852  0.2169 -0.1844
  326loPI   C4A 5210  17.796   6.223   7.233 -0.1018  0.0373 -0.0401
  326loPI   C5A 5211  17.586   6.189   6.870  0.0767  0.2219 -0.1661
  326loPI   C6A 5212  17.378   6.007   6.623 -0.1816 -0.0315 -0.2507
  326loPI   C1B 5213  17.107   7.517   8.348 -0.1298 -0.1064 -0.2975
  326loPI   C2B 5214  17.229   7.495   7.957 -0.0788 -0.1817 -0.5364
  326loPI   C3B 5215  17.510   7.370   7.666 -0.4141  0.2444 -0.0089
  326loPI   C4B 5216  17.796   7.417   7.245 -0.0490  0.1029  0.1235
  327loPI    C1 5217   0.666   4.053   9.748  0.1447 -0.0762 -0.2072
  327loPI    C2 5218   0.724   3.665   9.826 -0.4477 -0.0882  0.2472
  327loPI    C3 5219   0.928   3.943  10.029 -0.0412 -0.1526 -0.0611
  327loPI   PO4 5220   0.694   4.091   9.477 -0.1478  0.0933 -0.0834
  327loPI   GL1 5221   0.614   4.327   9.136  0.0481 -0.0364 -0.1607
  327loPI   GL2 5222   0.481   4.619   9.150 -0.1204  0.3526  0.1117
  327loPI   C1A 5223   0.487   4.174   8.674  0.1366  0.3098 -0.1317
  327loPI   C2A 5224   0.632   4.090   8.271 -0.2572  0.1088 -0.0499
  327loPI   C3A 5225   0.299   4.287   7.994 -0.0129 -0.0280  0.4100
  327loPI   C4A 5226   0.228   4.480   7.633  0.3348  0.1979 -0.0463
  327loPI   C5A 5227   0.248   4.457   7.290 -0.0803  0.1025  0.1530
  327loPI   C6A 5228   0.220   4.132   7.159 -0.2527 -0.1687 -0.0573
  327loPI   C1B 5229   0.693   4.833   8.941  0.4112  0.1074  0.1777
  327loPI   C2B 5230   0.823   4.804   8.508  0.1339 -0.1470  0.1196
  327loPI   C3B 5231   0.847   4.485   8.145 -0.0811 -0.1442  0.1866
  327loPI   C4B 5232   0.744   4.513   7.697  0.0799 -0.0741 -0.0562
  328loPI    C1 5233   4.813  11.312  10.163 -0.1840 -0.1363 -0.2135
  328loPI    C2 5234   5.075  11.573  10.317 -0.2536 -0.0458 -0.2477
  328loPI    C3 5235   4.973  11.246  10.524 -0.1709 -0.0428 -0.2020
  328loPI   PO4 5236   4.907  11.262   9.967  0.1532  0.1083  0.0377
  328loPI   GL1 5237   4.770  11.193   9.525  0.2004  0.1695  0.1368
  328loPI   GL2 5238   4.910  11.515   9.460  0.1340  0.2872  0.3470
  328loPI   C1A 5239   4.830  11.045   9.111  0.1905 -0.2935  0.1664
  328loPI   C2A 5240   4.597  10.893   8.786 -0.1116 -0.0028 -0.2598
  328loPI   C3A 5241   4.559  10.867   8.349  0.1885  0.0894 -0.1049
  328loPI   C4A 5242   4.627  10.901   7.903  0.0964  0.1144  0.3396
  328loPI   C5A 5243   4.731  11.074   7.526 -0.0721  0.0278  0.1872
  328loPI   C6A 5244   4.956  11.272   7.276 -0.2020 -0.0594  0.3082
  328loPI   C1B 5245   5.101  11.419   9.047  0.3123  0.1307  0.0380
  328loPI   C2B 5246   5.278  11.414   8.740 -0.0909 -0.1599 -0.0541
  328loPI   C3B 5247   5.284  11.466   8.321 -0.1460  0.0519  0.2061
  328loPI   C4B 5248   5.410  11.640   7.947  0.0040  0.1320  0.0423
  329loPI    C1 5249   3.833  13.603   9.909 -0.1065  0.0990  0.0038
  329loPI    C2 5250   3.753  13.937  10.114 -0.0368 -0.0120  0.2136
  329loPI    C3 5251   4.019  13.674  10.256  0.1025 -0.0326 -0.0796
  329loPI   PO4 5252   3.858  13.582   9.608 -0.2442 -0.2455  0.2423
  329loPI   GL1 5253   4.021  13.251   9.458 -0.0414  0.0213 -0.1117
  329loPI   GL2 5254   4.296  13.431   9.374 -0.1876 -0.0808 -0.2612
  329loPI   C1A 5255   3.841  13.350   9.017 -0.0847  0.0051  0.0711
  329loPI   C2A 5256   3.718  13.257   8.513 -0.0371 -0.0470  0.1469
  329loPI   C3A 5257   3.450  13.363   8.142 -0.1477  0.0412  0.0527
  329loPI   C4A 5258   3.265  13.196   7.709 -0.1635 -0.2100 -0.1695
  329loPI   C5A 5259   3.518  13.400   7.355  0.2178  0.1380 -0.0616
  329loPI   C6A 5260   3.568  13.873   7.207  0.0764 -0.0030  0.1205
  329loPI   C1B 5261   4.393  13.652   8.936  0.2759 -0.2402 -0.0574
  329loPI   C2B 5262   4.421  13.952   8.614 -0.1264  0.2505 -0.2050
  329loPI   C3B 5263   4.232  13.978   8.231  0.0533  0.3496  0.2940
  329loPI   C4B 5264   4.391  14.148   7.867  0.1218  0.0893 -0.0079
  330loPI    C1 5265   8.156  15.034  10.049  0.0143  0.0174 -0.0682
  330loPI    C2 5266   8.279  14.805  10.352  0.1345 -0.0998 -0.2044
  330loPI    C3 5267   8.296  15.203  10.383  0.1813 -0.1116 -0.0720
  330loPI   PO4 5268   8.310  14.953   9.801 -0.0604 -0.1019 -0.0244
  330loPI   GL1 5269   8.252  14.918   9.351 -0.2046  0.0293  0.1940
  330loPI   GL2 5270   8.355  15.308   9.382 -0.2530 -0.1247  0.1583
  330loPI   C1A 5271   8.210  14.692   9.026  0.1173 -0.3581  0.0178
  330loPI   C2A 5272   8.364  14.717   8.565  0.1667  0.2317 -0.2066
  330loPI   C3A 5273   8.242  14.614   8.339  0.1730  0.1102  0.0894
  330loPI   C4A 5274   8.271  14.577   7.875 -0.1787  0.0053  0.0483
  330loPI   C5A 5275   8.264  14.798   7.450 -0.1345  0.0510 -0.2800
  330loPI   C6A 5276   8.317  15.116   7.134 -0.0548 -0.1566 -0.3747
  330loPI   C1B 5277   8.374  15.171   8.947  0.0938  0.0104 -0.1363
  330loPI   C2B 5278   8.489  15.335   8.516 -0.1842  0.0762 -0.0539
  330loPI   C3B 5279   8.582  15.028   8.153  0.1986  0.1787 -0.1655
  330loPI   C4B 5280   8.680  14.771   7.793  0.1054 -0.0511 -0.0694
  331loPI    C1 5281  16.080   9.926   9.211 -0.0219  0.2659 -0.1812
  331loPI    C2 5282  16.358   9.984   8.929 -0.0151 -0.1182 -0.2588
  331loPI    C3 5283  16.441  10.066   9.312  0.0894  0.0858 -0.3238
  331loPI   PO4 5284  16.007   9.667   9.077  0.0398  0.2133  0.0456
  331loPI   GL1 5285  15.725   9.762   8.640  0.3642 -0.3174 -0.3643
  331loPI   GL2 5286  15.665   9.415   8.522  0.3526 -0.2780 -0.1330
  331loPI   C1A 5287  16.121   9.821   8.445 -0.1661 -0.2277 -0.3670
  331loPI   C2A 5288  16.121   9.626   8.098  0.0104  0.0057  0.0850
  331loPI   C3A 5289  16.234   9.660   7.656  0.0289  0.2966  0.0110
  331loPI   C4A 5290  16.260   9.375   7.228  0.0142  0.0518  0.1049
  331loPI   C5A 5291  16.407   9.025   6.991  0.2333  0.1584  0.2839
  331loPI   C6A 5292  16.376   8.659   6.699  0.1438 -0.0433  0.2417
  331loPI   C1B 5293  15.564   9.566   8.190 -0.0138  0.0952 -0.0213
  331loPI   C2B 5294  15.735   9.500   7.740  0.0007  0.0754 -0.1123
  331loPI   C3B 5295  15.805   9.530   7.284  0.3216  0.2150 -0.1458
  331loPI   C4B 5296  15.940   9.663   6.818  0.2188 -0.0635 -0.0547
  332loPI    C1 5297   5.032  13.478  10.274  0.0355 -0.0494 -0.2851
  332loPI    C2 5298   5.099  13.083  10.272 -0.2635 -0.1055 -0.0123
  332loPI    C3 5299   5.304  13.320  10.522 -0.0389 -0.0767 -0.2204
  332loPI   PO4 5300   5.017  13.517   9.984 -0.0125 -0.0926  0.0345
  332loPI   GL1 5301   4.870  13.516   9.546 -0.1258 -0.1915 -0.2545
  332loPI   GL2 5302   5.124  13.320   9.456  0.0465  0.2353 -0.1429
  332loPI   C1A 5303   4.962  13.756   9.115  0.0348 -0.0287 -0.2677
  332loPI   C2A 5304   5.187  13.910   8.793  0.0749  0.1634  0.2834
  332loPI   C3A 5305   5.174  13.996   8.321 -0.1068  0.0905  0.3328
  332loPI   C4A 5306   5.100  13.730   7.921  0.0702 -0.1054  0.0218
  332loPI   C5A 5307   5.336  13.616   7.565  0.2437 -0.1508 -0.1493
  332loPI   C6A 5308   5.690  13.475   7.342  0.2161  0.0611  0.1354
  332loPI   C1B 5309   5.313  13.344   9.119 -0.0515  0.1110  0.3629
  332loPI   C2B 5310   5.371  13.412   8.775  0.1346  0.2847  0.0995
  332loPI   C3B 5311   5.240  13.440   8.312 -0.1771  0.0847 -0.0581
  332loPI   C4B 5312   5.072  13.239   7.920 -0.0433  0.0219  0.0670
  333loPI    C1 5313  13.489  11.276   9.341  0.0662  0.0349 -0.1220
  333loPI    C2 5314  13.691  11.052   9.603 -0.3115 -0.2771 -0.0881
  333loPI    C3 5315  13.430  11.326   9.733 -0.1867 -0.1341 -0.1360
  333loPI   PO4 5316  13.522  11.121   9.145  0.0274 -0.1487  0.1429
  333loPI   GL1 5317  13.639  11.086   8.744 -0.2904 -0.0533 -0.1379
  333loPI   GL2 5318  13.664  11.451   8.781 -0.0036  0.1881 -0.0439
  333loPI   C1A 5319  13.605  11.008   8.302 -0.1333  0.1853 -0.3097
  333loPI   C2A 5320  13.583  10.795   7.925 -0.1473 -0.1658 -0.0717
  333loPI   C3A 5321  13.784  10.672   7.507 -0.3825  0.1157  0.1247
  333loPI   C4A 5322  13.562  10.506   7.150  0.1023 -0.0239  0.0321
  333loPI   C5A 5323  13.608  10.429   6.806  0.1604  0.0572 -0.0441
  333loPI   C6A 5324  13.990  10.392   6.434  0.4385  0.0432  0.0499
  333loPI   C1B 5325  13.569  11.534   8.452  0.1291 -0.1638 -0.0733
  333loPI   C2B 5326  13.694  11.428   8.099  0.1297  0.0301  0.1133
  333loPI   C3B 5327  13.559  11.206   7.723  0.6120  0.0036  0.0774
  333loPI   C4B 5328  13.433  11.022   7.336 -0.1968  0.0419  0.2103
  334loPI    C1 5329   2.613   9.458   9.865  0.2248  0.0457  0.1876
  334loPI    C2 5330   2.726   9.075   9.890 -0.1241 -0.0516  0.3308
  334loPI    C3 5331   2.494   9.234  10.174 -0.2919  0.1598  0.0802
  334loPI   PO4 5332   2.523   9.456   9.629  0.1330 -0.0104 -0.0781
  334loPI   GL1 5333   2.594   9.520   9.156 -0.1524  0.1500  0.2413
  334loPI   GL2 5334   2.884   9.517   9.035 -0.2969 -0.1939 -0.0627
  334loPI   C1A 5335   2.547   9.655   8.690  0.0596  0.0957  0.2062
  334loPI   C2A 5336   2.517   9.501   8.362 -0.1594  0.0117 -0.0362
  334loPI   C3A 5337   2.456   9.758   7.965  0.2080 -0.1111  0.1293
  334loPI   C4A 5338   2.399   9.575   7.637  0.1454  0.1123 -0.4768
  334loPI   C5A 5339   2.425   9.359   7.302 -0.3210  0.0124 -0.1676
  334loPI   C6A 5340   2.777   9.060   7.233  0.1341  0.1836  0.1562
  334loPI   C1B 5341   3.057   9.272   8.680 -0.1332 -0.0558 -0.2004
  334loPI   C2B 5342   3.162   9.294   8.219  0.2430 -0.2515  0.3543
  334loPI   C3B 5343   3.422   9.317   7.812 -0.1795  0.4264 -0.1211
  334loPI   C4B 5344   3.395   9.136   7.352 -0.0893 -0.0756 -0.1513
  335loPI    C1 5345   1.336  15.769   9.390  0.0053 -0.0956 -0.1127
  335loPI    C2 5346   1.109  15.445   9.448 -0.1521  0.0470  0.0831
  335loPI    C3 5347   1.228  15.665   9.760 -0.1446  0.2445 -0.0570
  335loPI   PO4 5348   1.585  15.629   9.209 -0.0493  0.1808 -0.0277
  335loPI   GL1 5349   2.007  15.803   9.053 -0.1637 -0.0664 -0.1399
  335loPI   GL2 5350   2.041  15.658   8.837  0.2604 -0.1831 -0.1761
  335loPI   C1A 5351   2.251  16.185   8.968  0.1306  0.0396 -0.1041
  335loPI   C2A 5352   2.442  16.273   8.648  0.0470  0.0621  0.0462
  335loPI   C3A 5353   2.316  16.261   8.317  0.1887 -0.0787 -0.0653
  335loPI   C4A 5354   1.931  16.288   8.169 -0.0125 -0.0335 -0.2243
  335loPI   C5A 5355   1.995  16.150   7.777  0.2141 -0.1579  0.0292
  335loPI   C6A 5356   2.196  16.342   7.517 -0.1084  0.0448 -0.2016
  335loPI   C1B 5357   1.917  15.930   8.570 -0.0645 -0.0218  0.4240
  335loPI   C2B 5358   1.538  16.149   8.423 -0.3159 -0.0027 -0.1737
  335loPI   C3B 5359   1.450  16.204   8.007 -0.0192  0.3090  0.0486
  335loPI   C4B 5360   1.561  16.345   7.557 -0.1286 -0.1449  0.3133
  336loPI    C1 5361   7.476   1.880   9.533 -0.2968 -0.2520  0.1323
  336loPI    C2 5362   7.526   1.680   9.876  0.0252  0.0058  0.2406
  336loPI    C3 5363   7.795   1.954   9.763 -0.0886 -0.0614 -0.2103
  336loPI   PO4 5364   7.202   1.783   9.423 -0.4934 -0.0614 -0.0970
  336loPI   GL1 5365   6.991   1.692   9.110  0.1448  0.0862 -0.3940
  336loPI   GL2 5366   7.050   2.029   9.001 -0.0278 -0.1426  0.0470
  336loPI   C1A 5367   6.770   1.787   8.708  0.0373 -0.0973  0.0911
  336loPI   C2A 5368   6.331   1.718   8.528 -0.2219  0.2833 -0.0902
  336loPI   C3A 5369   6.272   1.698   8.071 -0.0447 -0.2498  0.2191
  336loPI   C4A 5370   6.124   1.601   7.602  0.3532 -0.1531  0.0086
  336loPI   C5A 5371   5.920   1.245   7.408  0.0995  0.1743 -0.0866
  336loPI   C6A 5372   5.718   1.239   7.046  0.0234 -0.0724 -0.0465
  336loPI   C1B 5373   7.161   2.086   8.518 -0.0861  0.1100 -0.3037
  336loPI   C2B 5374   7.066   2.370   8.134 -0.0797  0.0772 -0.2195
  336loPI   C3B 5375   7.068   2.691   7.725  0.0180  0.1337 -0.1200
  336loPI   C4B 5376   6.847   3.021   7.608  0.0527  0.2590 -0.0822
  337loPI    C1 5377  12.244   2.178   9.031 -0.2332  0.0043 -0.0277
  337loPI    C2 5378  12.572   1.959   9.100 -0.1688  0.0760 -0.1053
  337loPI    C3 5379  12.558   2.341   9.219 -0.3775 -0.0404  0.2580
  337loPI   PO4 5380  12.055   2.031   9.084  0.1680  0.0356  0.1926
  337loPI   GL1 5381  11.671   2.048   8.775  0.2514  0.0871  0.2571
  337loPI   GL2 5382  11.892   2.067   8.622  0.1788  0.0853  0.2190
  337loPI   C1A 5383  11.453   1.785   8.571 -0.0560  0.1676  0.1826
  337loPI   C2A 5384  11.471   1.612   8.125 -0.1983 -0.3228 -0.0798
  337loPI   C3A 5385  11.470   1.513   7.660  0.2721  0.5019 -0.0896
  337loPI   C4A 5386  11.472   1.114   7.524 -0.0512 -0.0581 -0.0027
  337loPI   C5A 5387  11.643   0.765   7.250  0.1996  0.1227  0.2082
  337loPI   C6A 5388  12.128   0.660   7.137  0.0065  0.0687  0.1168
  337loPI   C1B 5389  11.892   2.259   8.163 -0.0139  0.0528 -0.1825
  337loPI   C2B 5390  11.994   2.436   7.832 -0.0335 -0.0369  0.2322
  337loPI   C3B 5391  11.997   2.427   7.316  0.6092 -0.3478  0.2103
  337loPI   C4B 5392  11.649   2.222   7.066  0.0849  0.0243  0.2867
  338loPI    C1 5393  18.752  10.816   9.171  0.0112  0.1577  0.0641
  338loPI    C2 5394  18.355  10.841   9.130 -0.0027 -0.2794 -0.1138
  338loPI    C3 5395  18.525  10.930   9.481 -0.2543 -0.0801 -0.0386
  338loPI   PO4 5396  18.823  10.874   8.980 -0.0769  0.0765  0.0039
  338loPI   GL1 5397  18.736  11.013   8.520  0.0645  0.2600  0.0070
  338loPI   GL2 5398  18.746  10.892   8.281  0.3700  0.2768  0.5169
  338loPI   C1A 5399  18.375  11.157   8.264  0.1151 -0.3110  0.0306
  338loPI   C2A 5400  18.346  11.227   7.938  0.0207  0.1325  0.1338
  338loPI   C3A 5401  18.531  11.018   7.649 -0.2503 -0.2030  0.2566
  338loPI   C4A 5402  18.783  10.706   7.410 -0.1517  0.0309  0.1251
  338loPI   C5A 5403  18.806  10.430   7.089  0.1144  0.0560  0.1967
  338loPI   C6A 5404  18.819   9.956   7.046  0.2207  0.4760 -0.3799
  338loPI   C1B 5405  18.931  10.663   7.859  0.1853  0.0360  0.0092
  338loPI   C2B 5406  18.798  10.320   7.642 -0.3157 -0.0178  0.0600
  338loPI   C3B 5407  18.892   9.951   7.495  0.2881 -0.2870 -0.2030
  338loPI   C4B 5408  19.122   9.617   7.327 -0.3794 -0.0398  0.0380
  339loPI    C1 5409   0.814   9.732   9.480  0.0995 -0.0369 -0.0179
  339loPI    C2 5410   0.573   9.744   9.800  0.0801  0.0436 -0.0353
  339loPI    C3 5411   0.967   9.690   9.848  0.0563 -0.1130 -0.0083
  339loPI   PO4 5412   0.623   9.634   9.165 -0.0806 -0.1780  0.0124
  339loPI   GL1 5413   0.453   9.537   8.758 -0.1470  0.1073 -0.1965
  339loPI   GL2 5414   0.358   9.467   8.524 -0.2724 -0.1751  0.0898
  339loPI   C1A 5415   0.748   9.102   8.676 -0.0480  0.2069  0.1644
  339loPI   C2A 5416   0.691   8.907   8.376 -0.0802  0.3599 -0.5702
  339loPI   C3A 5417   0.596   8.817   7.976  0.1110  0.3118 -0.2162
  339loPI   C4A 5418   0.697   8.652   7.550  0.2047 -0.0337 -0.1349
  339loPI   C5A 5419   0.833   8.436   7.190  0.0329  0.0597  0.0946
  339loPI   C6A 5420   0.579   8.267   6.930  0.1179 -0.1716  0.0696
  339loPI   C1B 5421   0.721   9.464   8.309  0.0981 -0.0619  0.0616
  339loPI   C2B 5422   0.763   9.458   7.945 -0.0684 -0.0854  0.3285
  339loPI   C3B 5423   0.758   9.512   7.500  0.0737 -0.0558 -0.1849
  339loPI   C4B 5424   0.699   9.612   7.119  0.0062  0.1477  0.2925
  340loPI    C1 5425  16.254  17.251   9.412  0.0053  0.1057  0.0416
  340loPI    C2 5426  16.152  16.894   9.562 -0.1516  0.1528  0.0484
  340loPI    C3 5427  16.294  17.180   9.803 -0.0127  0.0911  0.0409
  340loPI   PO4 5428  16.234  17.173   9.096  0.2588 -0.0693  0.1868
  340loPI   GL1 5429  16.232  17.026   8.697  0.2841  0.0215  0.2065
  340loPI   GL2 5430  16.568  17.006   8.663  0.5395 -0.1074  0.1024
  340loPI   C1A 5431  16.200  17.076   8.163 -0.0682  0.2034 -0.0322
  340loPI   C2A 5432  16.083  17.079   7.759  0.2512  0.0312  0.4446
  340loPI   C3A 5433  15.866  17.010   7.343 -0.1922  0.0644  0.1991
  340loPI   C4A 5434  15.891  16.937   6.970  0.0360  0.0493 -0.0408
  340loPI   C5A 5435  15.967  17.143   6.650 -0.0416 -0.0012 -0.0477
  340loPI   C6A 5436  15.912  17.274   6.421 -0.0330 -0.1456  0.1366
  340loPI   C1B 5437  16.717  16.945   8.286 -0.2100  0.1597  0.3261
  340loPI   C2B 5438  16.635  16.918   7.958  0.3378  0.0406  0.2836
  340loPI   C3B 5439  16.564  17.200   7.628  0.0455  0.0625  0.3228
  340loPI   C4B 5440  16.773  17.456   7.387 -0.2706 -0.1777 -0.0803
  341loPI    C1 5441  18.183   2.233   9.259 -0.1892  0.2272 -0.0093
  341loPI    C2 5442  18.045   2.285   9.631  0.0972  0.0484  0.1249
  341loPI    C3 5443  18.439   2.285   9.561  0.0481  0.0005 -0.1669
  341loPI   PO4 5444  18.056   2.351   9.131  0.1693 -0.2094 -0.0492
  341loPI   GL1 5445  17.977   2.483   8.724 -0.0898  0.4998  0.1266
  341loPI   GL2 5446  18.189   2.724   8.892  0.1248  0.4139  0.0895
  341loPI   C1A 5447  17.885   2.503   8.312  0.0809  0.0701 -0.0222
  341loPI   C2A 5448  17.928   2.656   7.897 -0.0562  0.2810 -0.2989
  341loPI   C3A 5449  18.132   2.741   7.514 -0.2740 -0.2515 -0.0505
  341loPI   C4A 5450  18.411   2.990   7.265 -0.2249  0.1921 -0.1571
  341loPI   C5A 5451  18.589   3.307   7.113 -0.2239 -0.0223  0.0654
  341loPI   C6A 5452  18.723   3.660   7.102  0.2698  0.6147 -0.0567
  341loPI   C1B 5453  18.295   2.843   8.422 -0.0296  0.1587 -0.2983
  341loPI   C2B 5454  18.374   2.805   8.004  0.3749  0.1751 -0.0111
  341loPI   C3B 5455  18.799   2.703   7.675 -0.0254  0.1142  0.0472
  341loPI   C4B 5456  19.134   2.521   7.400  0.0908 -0.2695 -0.1346
  342loPI    C1 5457   5.173  18.601  10.016 -0.2416  0.1862 -0.0242
  342loPI    C2 5458   4.865  18.467  10.233 -0.1878  0.1107  0.0062
  342loPI    C3 5459   5.229  18.311  10.286 -0.1579  0.1513 -0.0788
  342loPI   PO4 5460   5.039  18.672   9.762  0.0388  0.3058  0.1523
  342loPI   GL1 5461   4.799  18.540   9.354  0.2100  0.1817  0.2681
  342loPI   GL2 5462   4.595  18.355   9.338 -0.2518  0.0148 -0.0577
  342loPI   C1A 5463   5.019  18.872   9.163  0.0640 -0.1285  0.1978
  342loPI   C2A 5464   5.437  19.058   9.062  0.0824 -0.0301  0.3596
  342loPI   C3A 5465   5.762  19.187   8.755 -0.1501  0.2837  0.1228
  342loPI   C4A 5466   5.877  18.823   8.453  0.1428  0.1088  0.2739
  342loPI   C5A 5467   5.601  18.700   8.144 -0.2140  0.2913  0.1527
  342loPI   C6A 5468   5.524  18.252   7.913 -0.3471  0.0873 -0.0030
  342loPI   C1B 5469   4.595  18.285   8.874  0.0522 -0.3782  0.1015
  342loPI   C2B 5470   4.816  17.970   8.730 -0.0806 -0.0977 -0.1655
  342loPI   C3B 5471   4.939  17.937   8.332 -0.1170 -0.1057  0.2149
  342loPI   C4B 5472   5.001  18.216   7.967  0.1486 -0.0193 -0.0122
  343loPI    C1 5473   8.504   9.017   9.985 -0.1882 -0.2679 -0.0158
  343loPI    C2 5474   8.766   8.762   9.823  0.2391  0.0803  0.1081
  343loPI    C3 5475   8.862   8.965  10.154 -0.1137  0.3631  0.0442
  343loPI   PO4 5476   8.363   9.044   9.731  0.1593 -0.0472 -0.1889
  343loPI   GL1 5477   8.570   8.940   9.387  0.3378  0.1387 -0.1380
  343loPI   GL2 5478   8.586   8.527   9.321  0.0073 -0.0006 -0.0058
  343loPI   C1A 5479   8.763   8.934   8.986  0.1765  0.2089  0.1790
  343loPI   C2A 5480   8.864   8.782   8.537  0.0378 -0.3708  0.3217
  343loPI   C3A 5481   8.820   8.763   8.051 -0.0238 -0.2832 -0.0317
  343loPI   C4A 5482   8.412   8.848   7.800  0.1118  0.0341 -0.0844
  343loPI   C5A 5483   8.315   8.688   7.345  0.1043 -0.1819  0.1238
  343loPI   C6A 5484   8.426   8.401   7.169  0.2027 -0.1532 -0.0885
  343loPI   C1B 5485   8.277   8.716   8.997  0.0339 -0.0459 -0.1294
  343loPI   C2B 5486   8.437   8.612   8.687  0.1610 -0.0195 -0.2065
  343loPI   C3B 5487   8.347   8.904   8.277 -0.2304  0.3832  0.2779
  343loPI   C4B 5488   8.235   9.225   8.085  0.1801 -0.3045 -0.0326
  344loPI    C1 5489   0.046   3.817   9.683 -0.1566 -0.1785  0.1107
  344loPI    C2 5490   0.251   3.705  10.009 -0.0057  0.0940  0.1122
  344loPI    C3 5491   0.052   4.052  10.007 -0.1489  0.0124 -0.0267
  344loPI   PO4 5492   0.287   3.770   9.513 -0.2111  0.2293  0.0759
  344loPI   GL1 5493   0.399   3.508   9.091 -0.0811 -0.0284  0.1288
  344loPI   GL2 5494   0.643   3.504   9.245  0.0540  0.2633 -0.2909
  344loPI   C1A 5495   0.225   3.737   8.794 -0.4027 -0.0644  0.3166
  344loPI   C2A 5496   0.045   3.997   8.449 -0.2025  0.2168 -0.2099
  344loPI   C3A 5497  -0.111   4.293   8.240  0.1680 -0.0475  0.0163
  344loPI   C4A 5498  -0.230   4.220   7.809 -0.1851 -0.0051 -0.1323
  344loPI   C5A 5499  -0.241   4.326   7.425 -0.0519 -0.1442  0.3166
  344loPI   C6A 5500  -0.227   4.387   7.022  0.0314 -0.0643 -0.3438
  344loPI   C1B 5501   0.785   3.765   8.910  0.1106  0.3305  0.0443
  344loPI   C2B 5502   1.047   3.795   8.559 -0.0262  0.0066 -0.0317
  344loPI   C3B 5503   1.369   3.645   8.325  0.1287  0.0206  0.0226
  344loPI   C4B 5504   1.544   3.341   8.089  0.0376 -0.1593  0.0463
  345loPI    C1 5505   2.204   7.733   9.759 -0.1951 -0.1876 -0.1014
  345loPI    C2 5506   1.896   7.988   9.747 -0.0855 -0.0377  0.1723
  345loPI    C3 5507   1.999   7.816  10.093  0.2461  0.0485  0.1197
  345loPI   PO4 5508   2.118   7.561   9.554 -0.2565 -0.0785  0.4094
  345loPI   GL1 5509   2.123   7.538   9.053 -0.2982  0.1051  0.0654
  345loPI   GL2 5510   2.420   7.577   9.018  0.2415  0.3293  0.4523
  345loPI   C1A 5511   1.905   7.342   8.634  0.0374 -0.1281 -0.2762
  345loPI   C2A 5512   1.877   7.179   8.153  0.0578  0.1764 -0.1393
  345loPI   C3A 5513   1.872   7.033   7.728  0.2564  0.3445 -0.2294
  345loPI   C4A 5514   1.661   7.380   7.440 -0.0591 -0.1227 -0.0997
  345loPI   C5A 5515   1.556   7.386   6.975  0.0085  0.1012 -0.0587
  345loPI   C6A 5516   1.599   7.182   6.683  0.2810 -0.0258  0.1533
  345loPI   C1B 5517   2.431   7.228   8.776  0.0797 -0.1139  0.0617
  345loPI   C2B 5518   2.389   7.119   8.292 -0.3482  0.0067 -0.2423
  345loPI   C3B 5519   2.419   6.994   7.958 -0.0945  0.0112 -0.4183
  345loPI   C4B 5520   2.357   7.193   7.589 -0.2687  0.1381  0.3007
  346loPI    C1 5521  11.940   3.699   9.794  0.2586 -0.3642 -0.3165
  346loPI    C2 5522  12.285   3.733   9.994 -0.0689  0.2374  0.1846
  346loPI    C3 5523  12.029   3.439  10.085  0.1937 -0.0601 -0.0174
  346loPI   PO4 5524  12.087   3.790   9.475  0.4476  0.1824 -0.2086
  346loPI   GL1 5525  11.912   3.678   9.007  0.1798 -0.1018 -0.0635
  346loPI   GL2 5526  11.709   3.465   8.798 -0.0060 -0.2903 -0.1129
  346loPI   C1A 5527  12.099   4.015   8.847  0.2714  0.2436  0.3713
  346loPI   C2A 5528  12.243   4.405   8.673  0.0529 -0.3287  0.1620
  346loPI   C3A 5529  12.230   4.659   8.258 -0.0375 -0.1525  0.1601
  346loPI   C4A 5530  12.222   5.053   8.099 -0.2911 -0.0612  0.1616
  346loPI   C5A 5531  12.214   5.407   7.732  0.1697 -0.0674 -0.1915
  346loPI   C6A 5532  12.332   5.702   7.383 -0.1995  0.3464 -0.2353
  346loPI   C1B 5533  11.613   3.227   8.349  0.0384  0.1026 -0.1534
  346loPI   C2B 5534  11.447   3.548   8.146  0.1536  0.0975  0.2569
  346loPI   C3B 5535  11.391   3.825   7.819  0.0381  0.0396 -0.0547
  346loPI   C4B 5536  11.580   4.037   7.481  0.2788 -0.2545 -0.1716
  347loPI    C1 5537  14.271  19.219   9.429  0.1641 -0.1348 -0.1829
  347loPI    C2 5538  14.136  19.379   9.089  0.1111 -0.0106 -0.1039
  347loPI    C3 5539  13.951  19.460   9.434  0.1393 -0.1701 -0.0510
  347loPI   PO4 5540  14.581  19.264   9.396  0.0901 -0.0769  0.0415
  347loPI   GL1 5541  14.655  19.395   8.920 -0.1844  0.0392 -0.0189
  347loPI   GL2 5542  14.965  19.526   8.787  0.3037  0.0066  0.1518
  347loPI   C1A 5543  14.534  19.558   8.542  0.0913 -0.1815 -0.0946
  347loPI   C2A 5544  14.529  19.773   8.147 -0.2234 -0.0843  0.0406
  347loPI   C3A 5545  14.610  19.962   7.742  0.2824  0.0206  0.0631
  347loPI   C4A 5546  14.634  19.831   7.378  0.3178 -0.0042 -0.1750
  347loPI   C5A 5547  14.690  19.766   6.991  0.1289 -0.0594 -0.0068
  347loPI   C6A 5548  14.939  19.495   6.696  0.0155 -0.1181  0.0026
  347loPI   C1B 5549  14.972  19.642   8.387 -0.0987  0.1448  0.3386
  347loPI   C2B 5550  14.989  19.880   8.113  0.2060  0.1890 -0.1354
  347loPI   C3B 5551  15.113  19.932   7.610 -0.0505  0.3476 -0.1084
  347loPI   C4B 5552  15.060  20.071   7.174  0.2550  0.1382 -0.0224
  348loPI    C1 5553   4.400  19.382  10.283  0.0941 -0.2480 -0.0896
  348loPI    C2 5554   4.257  19.051  10.457  0.1959 -0.3065 -0.1165
  348loPI    C3 5555   4.568  19.244  10.620  0.1285 -0.2165 -0.0939
  348loPI   PO4 5556   4.493  19.333  10.078 -0.2712 -0.4318  0.0011
  348loPI   GL1 5557   4.512  19.106   9.643 -0.2472 -0.0918 -0.0308
  348loPI   GL2 5558   4.805  19.110   9.732  0.1659 -0.1505 -0.0064
  348loPI   C1A 5559   4.497  18.983   9.254 -0.0360  0.1582 -0.0056
  348loPI   C2A 5560   4.452  18.981   8.822 -0.1275 -0.3704  0.1395
  348loPI   C3A 5561   4.515  18.882   8.406 -0.2264 -0.0034 -0.2847
  348loPI   C4A 5562   4.627  18.700   8.069 -0.0544  0.1033  0.0805
  348loPI   C5A 5563   4.742  18.515   7.690 -0.3067  0.1267  0.0500
  348loPI   C6A 5564   4.757  18.524   7.241  0.1203  0.1103  0.2637
  348loPI   C1B 5565   5.055  19.263   9.442  0.0167 -0.2223 -0.1069
  348loPI   C2B 5566   5.079  19.704   9.255 -0.2401  0.0792  0.1241
  348loPI   C3B 5567   4.832  20.070   9.298  0.2065 -0.2829  0.2288
  348loPI   C4B 5568   4.930  20.331   9.004 -0.2457 -0.2052 -0.0631
  349loPI    C1 5569   4.124  10.994   9.832 -0.1770 -0.1288 -0.4057
  349loPI    C2 5570   3.850  10.947  10.119 -0.2297  0.0683 -0.4223
  349loPI    C3 5571   4.078  10.638  10.008 -0.1239  0.0204 -0.0827
  349loPI   PO4 5572   3.914  11.116   9.695  0.2745  0.2389  0.0601
  349loPI   GL1 5573   3.785  11.360   9.313  0.0132  0.2982 -0.2083
  349loPI   GL2 5574   4.039  11.560   9.142  0.0992 -0.1638  0.4323
  349loPI   C1A 5575   3.690  11.118   8.901 -0.0796  0.0666  0.3570
  349loPI   C2A 5576   3.561  11.029   8.506  0.1637 -0.0099 -0.1017
  349loPI   C3A 5577   3.490  11.001   8.066 -0.1331  0.0668 -0.1225
  349loPI   C4A 5578   3.625  11.003   7.650  0.0058 -0.1735 -0.3032
  349loPI   C5A 5579   3.849  11.018   7.230  0.3660  0.0018  0.1857
  349loPI   C6A 5580   3.534  11.240   7.007  0.2610 -0.4340  0.0269
  349loPI   C1B 5581   3.707  11.624   8.815 -0.2961 -0.1814 -0.0484
  349loPI   C2B 5582   3.647  11.740   8.437  0.1540  0.2360 -0.0767
  349loPI   C3B 5583   4.009  11.930   8.227  0.0918 -0.1823  0.2912
  349loPI   C4B 5584   4.122  11.858   7.753 -0.0666  0.0118 -0.2294
  350loPI    C1 5585  12.842  13.464   9.649 -0.0296  0.0933  0.0331
  350loPI    C2 5586  12.586  13.548   9.945  0.2241  0.1473  0.2415
  350loPI    C3 5587  12.801  13.212   9.957 -0.0706 -0.0610 -0.0974
  350loPI   PO4 5588  12.690  13.501   9.438  0.2238  0.0375  0.1304
  350loPI   GL1 5589  12.608  13.717   9.091 -0.2137 -0.4244 -0.0374
  350loPI   GL2 5590  12.434  13.926   9.142 -0.1838 -0.5108  0.1584
  350loPI   C1A 5591  12.563  13.580   8.678 -0.0605 -0.2899 -0.1567
  350loPI   C2A 5592  12.760  13.553   8.314  0.1392 -0.0281 -0.0148
  350loPI   C3A 5593  12.794  13.285   8.111 -0.0858  0.1120 -0.1074
  350loPI   C4A 5594  12.791  13.173   7.704 -0.1816  0.1539  0.0536
  350loPI   C5A 5595  13.093  13.133   7.336 -0.2893  0.0839 -0.0335
  350loPI   C6A 5596  13.468  13.143   6.896  0.3987  0.1675  0.0164
  350loPI   C1B 5597  12.224  13.974   8.718  0.1399  0.0364  0.0335
  350loPI   C2B 5598  12.127  13.638   8.457  0.1410  0.0820  0.4166
  350loPI   C3B 5599  11.952  13.541   8.109  0.4556 -0.0113  0.4175
  350loPI   C4B 5600  11.790  13.454   7.609 -0.0189  0.0998  0.3163
  351loPI    C1 5601  17.011  17.381   9.364 -0.0314 -0.0895 -0.1664
  351loPI    C2 5602  16.637  17.524   9.378 -0.0659 -0.1778 -0.1734
  351loPI    C3 5603  16.747  17.228   9.623  0.0867  0.0512  0.0399
  351loPI   PO4 5604  17.087  17.468   9.120  0.2339 -0.0592 -0.1562
  351loPI   GL1 5605  16.957  17.314   8.744  0.0870 -0.0066  0.0535
  351loPI   GL2 5606  16.980  17.674   8.629  0.0077 -0.2534 -0.0425
  351loPI   C1A 5607  17.141  17.186   8.328  0.2911 -0.1877  0.1691
  351loPI   C2A 5608  17.081  17.122   7.881 -0.1312  0.0894  0.0199
  351loPI   C3A 5609  17.035  17.037   7.432  0.0634 -0.1774  0.0370
  351loPI   C4A 5610  17.011  17.146   6.966  0.2978  0.0071 -0.0125
  351loPI   C5A 5611  16.813  17.240   6.649 -0.1601  0.1917 -0.1492
  351loPI   C6A 5612  16.459  17.239   6.449  0.1557  0.0397 -0.1775
  351loPI   C1B 5613  17.063  17.793   8.216  0.1942 -0.2818  0.1398
  351loPI   C2B 5614  17.408  18.093   8.138  0.1899  0.2350  0.0715
  351loPI   C3B 5615  17.793  18.290   8.148  0.1781 -0.0729 -0.2142
  351loPI   C4B 5616  18.105  18.178   8.376 -0.0582  0.2575 -0.0525
  352loPI    C1 5617   8.170   2.601   9.892 -0.0358  0.0045  0.1536
  352loPI    C2 5618   8.151   2.216   9.999  0.1391 -0.0642 -0.0548
  352loPI    C3 5619   8.376   2.470  10.209  0.0533 -0.0827  0.0606
  352loPI   PO4 5620   8.263   2.615   9.641  0.1119  0.0916  0.0103
  352loPI   GL1 5621   8.035   2.685   9.235  0.2047 -0.0150 -0.1189
  352loPI   GL2 5622   7.813   2.866   9.327 -0.3646 -0.0721 -0.1338
  352loPI   C1A 5623   8.228   2.637   8.786  0.0921  0.0400  0.2253
  352loPI   C2A 5624   8.383   2.795   8.414 -0.0875  0.0680 -0.1703
  352loPI   C3A 5625   8.743   2.559   8.095  0.0863 -0.0232 -0.0376
  352loPI   C4A 5626   8.917   2.252   7.849 -0.1864 -0.2592 -0.0203
  352loPI   C5A 5627   8.722   1.999   7.454 -0.3406 -0.0461  0.0436
  352loPI   C6A 5628   8.669   1.674   7.194 -0.0793  0.0683  0.0772
  352loPI   C1B 5629   7.659   2.851   8.879  0.2980  0.0543  0.1510
  352loPI   C2B 5630   7.849   2.795   8.491  0.1332 -0.1812  0.0282
  352loPI   C3B 5631   8.073   2.571   8.069  0.0547  0.1926  0.1543
  352loPI   C4B 5632   8.325   2.382   7.750 -0.5835  0.0787 -0.0195
  353loPI    C1 5633  10.407   2.753   9.610 -0.0209 -0.0168 -0.0548
  353loPI    C2 5634  10.127   2.926   9.838 -0.0342  0.1541 -0.1987
  353loPI    C3 5635  10.510   2.927   9.955 -0.0530  0.1667 -0.1369
  353loPI   PO4 5636  10.324   2.713   9.413 -0.2483  0.2641 -0.1518
  353loPI   GL1 5637  10.177   2.823   9.093 -0.0847 -0.0330 -0.0269
  353loPI   GL2 5638   9.874   3.062   9.090 -0.0128 -0.0209  0.1506
  353loPI   C1A 5639  10.140   2.868   8.713 -0.0953  0.3118 -0.0319
  353loPI   C2A 5640  10.279   2.659   8.433  0.2412 -0.0049 -0.1511
  353loPI   C3A 5641  10.317   2.531   8.009 -0.0920 -0.0215  0.0170
  353loPI   C4A 5642  10.722   2.581   7.734  0.3112 -0.0021 -0.3054
  353loPI   C5A 5643  10.652   2.732   7.239  0.0298 -0.0253  0.0840
  353loPI   C6A 5644  10.349   2.621   6.959  0.4339 -0.0699  0.4612
  353loPI   C1B 5645   9.761   3.415   8.869  0.0676 -0.1095  0.3013
  353loPI   C2B 5646   9.610   3.559   8.423 -0.2426 -0.0128 -0.1906
  353loPI   C3B 5647   9.309   3.678   8.044  0.0055  0.0571 -0.2401
  353loPI   C4B 5648   9.284   3.466   7.650  0.1524 -0.3911 -0.1126
  354loPI    C1 5649  12.152   2.575   9.704  0.0220  0.0625  0.1685
  354loPI    C2 5650  12.524   2.431   9.680  0.0023  0.0289  0.0593
  354loPI    C3 5651  12.448   2.753   9.905  0.1411  0.1788 -0.1056
  354loPI   PO4 5652  12.115   2.617   9.327 -0.0132  0.0685 -0.2719
  354loPI   GL1 5653  12.374   2.734   8.925 -0.0052  0.1302  0.0855
  354loPI   GL2 5654  12.526   2.852   8.631 -0.1409 -0.0454  0.3701
  354loPI   C1A 5655  12.073   2.606   8.633  0.0404 -0.2515  0.2406
  354loPI   C2A 5656  11.665   2.727   8.370  0.2377  0.0261  0.1645
  354loPI   C3A 5657  11.551   2.579   7.993  0.0496 -0.0093  0.1654
  354loPI   C4A 5658  11.576   2.586   7.556 -0.3458 -0.2070 -0.1059
  354loPI   C5A 5659  11.492   2.696   7.098  0.1811  0.1028 -0.0257
  354loPI   C6A 5660  11.514   2.908   6.729  0.0269 -0.1659  0.0817
  354loPI   C1B 5661  12.711   3.155   8.271  0.2042 -0.1790  0.1100
  354loPI   C2B 5662  12.531   3.032   7.825 -0.2668  0.1268  0.1759
  354loPI   C3B 5663  12.148   3.108   7.564 -0.1427 -0.0514  0.0420
  354loPI   C4B 5664  11.868   2.948   7.396  0.2298 -0.0812 -0.4101
  355loPI    C1 5665  15.045   3.542   9.193 -0.0307 -0.3490 -0.1177
  355loPI    C2 5666  15.046   3.676   9.569  0.1585 -0.0517 -0.2204
  355loPI    C3 5667  14.868   3.330   9.481 -0.0916 -0.0097  0.1008
  355loPI   PO4 5668  14.932   3.713   9.074  0.1513  0.1352 -0.1598
  355loPI   GL1 5669  14.684   3.881   8.747  0.2314 -0.1860  0.2785
  355loPI   GL2 5670  14.996   3.887   8.615  0.1251  0.1360 -0.0048
  355loPI   C1A 5671  14.506   3.550   8.339  0.2731 -0.0901 -0.0554
  355loPI   C2A 5672  14.323   3.486   7.993 -0.0777 -0.3177 -0.0189
  355loPI   C3A 5673  14.126   3.282   7.754  0.0306 -0.3689  0.0453
  355loPI   C4A 5674  13.959   3.359   7.365 -0.2962 -0.0577  0.2399
  355loPI   C5A 5675  13.693   3.429   7.022  0.0233  0.0646 -0.1872
  355loPI   C6A 5676  13.533   3.821   6.648  0.0408 -0.4563 -0.2706
  355loPI   C1B 5677  14.877   3.843   8.189 -0.0445 -0.0166  0.0475
  355loPI   C2B 5678  14.648   3.753   7.763 -0.2949 -0.0892 -0.0982
  355loPI   C3B 5679  14.453   3.472   7.394  0.2037 -0.1590 -0.2626
  355loPI   C4B 5680  14.266   3.317   6.950  0.1043 -0.0337  0.0480
  356loPI    C1 5681   7.184  11.863   9.937 -0.0589 -0.2047 -0.0605
  356loPI    C2 5682   7.014  11.552  10.122  0.1908 -0.1951  0.1915
  356loPI    C3 5683   7.361  11.699  10.256  0.0714  0.1999  0.0812
  356loPI   PO4 5684   7.066  11.864   9.724 -0.2483  0.2653 -0.0382
  356loPI   GL1 5685   7.078  12.174   9.351 -0.0022 -0.3615 -0.2100
  356loPI   GL2 5686   7.440  12.088   9.429 -0.0244 -0.1453 -0.3244
  356loPI   C1A 5687   7.170  12.265   8.959 -0.0980 -0.2788 -0.0737
  356loPI   C2A 5688   7.103  12.137   8.527 -0.1087  0.1362  0.1501
  356loPI   C3A 5689   6.697  12.409   8.522 -0.0079  0.1079  0.0504
  356loPI   C4A 5690   6.541  12.697   8.129  0.0676 -0.0106  0.3646
  356loPI   C5A 5691   6.704  12.784   7.750 -0.2519  0.0710  0.1663
  356loPI   C6A 5692   6.595  12.842   7.280 -0.0361  0.0503 -0.0772
  356loPI   C1B 5693   7.555  11.755   9.228 -0.0155  0.0587  0.1484
  356loPI   C2B 5694   7.830  11.814   8.948  0.0634 -0.1017 -0.0534
  356loPI   C3B 5695   8.009  11.621   8.606  0.1810 -0.0218  0.1136
  356loPI   C4B 5696   8.319  11.653   8.236  0.1364 -0.0008 -0.0116
  357loPI    C1 5697   8.869  14.262   9.881 -0.0334  0.1570 -0.0154
  357loPI    C2 5698   8.659  14.477  10.144 -0.0250  0.0826  0.0526
  357loPI    C3 5699   8.672  14.079  10.176  0.1171  0.0857  0.0420
  357loPI   PO4 5700   8.726  14.308   9.644 -0.3482  0.0913 -0.2025
  357loPI   GL1 5701   8.527  14.319   9.330 -0.0182  0.0342 -0.1705
  357loPI   GL2 5702   8.659  14.616   9.277 -0.0971 -0.1602  0.0344
  357loPI   C1A 5703   8.680  14.232   8.940 -0.2400  0.3301  0.1139
  357loPI   C2A 5704   8.727  14.195   8.592 -0.3173  0.1264  0.4453
  357loPI   C3A 5705   8.767  14.378   8.089 -0.2448 -0.0127  0.0222
  357loPI   C4A 5706   8.862  14.118   7.690 -0.1883  0.2808  0.2896
  357loPI   C5A 5707   8.581  13.762   7.536  0.1470 -0.1842 -0.3456
  357loPI   C6A 5708   8.383  13.569   7.533 -0.2443  0.1230  0.0113
  357loPI   C1B 5709   8.725  14.766   8.915  0.0012  0.1283  0.1996
  357loPI   C2B 5710   8.852  14.692   8.489 -0.0763 -0.0017 -0.0351
  357loPI   C3B 5711   9.019  14.816   8.188  0.1535 -0.3137  0.4186
  357loPI   C4B 5712   9.028  15.152   7.801  0.3385 -0.0081  0.0809
  358loPI    C1 5713   6.836   5.696   9.370 -0.0055  0.0346  0.2708
  358loPI    C2 5714   7.153   5.856   9.186 -0.1827  0.1669  0.0763
  358loPI    C3 5715   7.081   5.941   9.570  0.2219 -0.1564  0.2314
  358loPI   PO4 5716   6.665   5.738   9.228 -0.0680 -0.2154 -0.2346
  358loPI   GL1 5717   6.472   6.098   8.923  0.0126  0.3403 -0.0626
  358loPI   GL2 5718   6.230   6.368   8.974 -0.2658  0.2639  0.1392
  358loPI   C1A 5719   6.468   6.047   8.513  0.0602  0.0016  0.1170
  358loPI   C2A 5720   6.673   5.993   8.236  0.2683 -0.1123  0.2087
  358loPI   C3A 5721   6.717   6.173   7.847  0.0043  0.0492 -0.2467
  358loPI   C4A 5722   6.886   6.366   7.476  0.0491 -0.1577  0.1997
  358loPI   C5A 5723   6.813   6.560   7.094 -0.2764 -0.1253 -0.1088
  358loPI   C6A 5724   6.746   6.973   6.907 -0.2190  0.1756  0.2107
  358loPI   C1B 5725   6.391   6.494   8.558 -0.0914 -0.1559  0.0516
  358loPI   C2B 5726   6.848   6.545   8.281  0.5270  0.0339 -0.1468
  358loPI   C3B 5727   6.989   6.645   7.882  0.2808 -0.2471 -0.1882
  358loPI   C4B 5728   7.131   6.959   7.589 -0.1811 -0.2478  0.2770
  359loPI    C1 5729  11.269  18.071   9.597 -0.0524  0.0747  0.0314
  359loPI    C2 5730  11.201  17.719   9.775  0.1610 -0.0131 -0.0575
  359loPI    C3 5731  11.238  18.051   9.995 -0.1001 -0.0352  0.0225
  359loPI   PO4 5732  11.261  18.027   9.317 -0.0831 -0.0550 -0.0967
  359loPI   GL1 5733  11.167  17.906   8.941  0.2958 -0.1542 -0.1412
  359loPI   GL2 5734  10.837  17.944   8.862 -0.2229  0.0585 -0.0761
  359loPI   C1A 5735  11.233  18.043   8.503  0.1312  0.3597  0.0875
  359loPI   C2A 5736  11.506  18.262   8.202  0.2288  0.1844 -0.2088
  359loPI   C3A 5737  11.653  18.365   7.744  0.5453  0.3015 -0.2849
  359loPI   C4A 5738  11.668  18.357   7.334 -0.2159  0.2558  0.2744
  359loPI   C5A 5739  11.378  18.435   7.029 -0.1297 -0.1019 -0.0197
  359loPI   C6A 5740  11.037  18.475   6.749  0.1842 -0.1451 -0.1720
  359loPI   C1B 5741  10.719  18.141   8.550 -0.3397  0.0849 -0.0025
  359loPI   C2B 5742  10.959  18.300   8.170  0.1704 -0.2468 -0.0285
  359loPI   C3B 5743  11.138  18.477   7.870  0.0135 -0.0800 -0.1112
  359loPI   C4B 5744  11.328  18.654   7.489 -0.0501  0.2027  0.2166
  360loPI    C1 5745  19.090  14.659   8.578 -0.1555 -0.1403 -0.1185
  360loPI    C2 5746  18.982  14.670   8.963  0.0381 -0.0261 -0.0663
  360loPI    C3 5747  18.703  14.660   8.677 -0.1070 -0.0510  0.0748
  360loPI   PO4 5748  19.306  14.507   8.548  0.1247  0.2539 -0.0082
  360loPI   GL1 5749  19.687  14.485   8.332 -0.0147 -0.1232 -0.1637
  360loPI   GL2 5750  19.495  14.346   8.116 -0.0977 -0.1337 -0.0427
  360loPI   C1A 5751  19.906  14.161   7.913 -0.0337 -0.3545 -0.0082
  360loPI   C2A 5752  20.342  14.104   7.760 -0.0995  0.0396 -0.0342
  360loPI   C3A 5753  20.767  14.083   7.822 -0.0431  0.2315  0.2078
  360loPI   C4A 5754  20.932  14.339   7.423  0.2398 -0.1377 -0.0679
  360loPI   C5A 5755  21.173  14.640   7.165 -0.0304 -0.0959 -0.2216
  360loPI   C6A 5756  21.527  14.798   7.151 -0.2009  0.0046  0.1946
  360loPI   C1B 5757  19.406  14.467   7.741 -0.1889  0.0144  0.0203
  360loPI   C2B 5758  19.467  14.553   7.344  0.0781 -0.1145 -0.0901
  360loPI   C3B 5759  19.394  14.284   7.164  0.0859 -0.1274  0.1667
  360loPI   C4B 5760  19.344  14.213   6.740 -0.2409  0.0288 -0.0672
  361loPI    C1 5761   6.381  15.359   9.823 -0.0370 -0.1361  0.1612
  361loPI    C2 5762   6.408  15.115  10.139  0.1676  0.0363  0.2802
  361loPI    C3 5763   6.253  15.482  10.181 -0.0469 -0.0337  0.1230
  361loPI   PO4 5764   6.613  15.321   9.744 -0.0053 -0.1303 -0.0608
  361loPI   GL1 5765   6.640  15.079   9.381  0.0121  0.3955  0.1348
  361loPI   GL2 5766   6.659  14.684   9.274  0.3583  0.0953  0.0060
  361loPI   C1A 5767   6.452  15.055   8.999  0.3530  0.1782 -0.0485
  361loPI   C2A 5768   6.146  14.955   8.685 -0.2597  0.2204  0.1249
  361loPI   C3A 5769   5.958  14.844   8.365  0.2351 -0.1525 -0.0745
  361loPI   C4A 5770   5.803  14.908   8.006  0.1993 -0.1663 -0.1485
  361loPI   C5A 5771   5.798  14.739   7.535  0.0870  0.3073  0.0639
  361loPI   C6A 5772   6.032  14.510   7.151 -0.0002 -0.1594  0.0599
  361loPI   C1B 5773   6.722  14.686   8.808  0.0630  0.0438  0.0226
  361loPI   C2B 5774   6.825  14.942   8.469 -0.0495  0.2101 -0.0643
  361loPI   C3B 5775   6.573  15.265   8.143 -0.1872 -0.1336  0.0827
  361loPI   C4B 5776   6.735  15.717   8.083  0.0001 -0.1680 -0.0798
  362loPI    C1 5777  17.496   7.595   9.109 -0.0846  0.0509  0.0306
  362loPI    C2 5778  17.305   7.734   8.787  0.0606  0.0698 -0.0480
  362loPI    C3 5779  17.436   7.356   8.794 -0.1395  0.0017  0.0781
  362loPI   PO4 5780  17.715   7.900   9.123  0.0452  0.1340 -0.1244
  362loPI   GL1 5781  17.763   8.010   8.866  0.1821 -0.0615 -0.1632
  362loPI   GL2 5782  18.007   8.162   8.715  0.1810  0.0763  0.3378
  362loPI   C1A 5783  17.639   7.835   8.437  0.0022 -0.2128 -0.0334
  362loPI   C2A 5784  17.659   7.770   7.987  0.1000  0.0787  0.2357
  362loPI   C3A 5785  17.590   7.892   7.578 -0.2308  0.0892 -0.0885
  362loPI   C4A 5786  17.464   7.983   7.165 -0.2591 -0.1320 -0.0236
  362loPI   C5A 5787  17.278   8.010   6.804  0.1588  0.1487  0.0287
  362loPI   C6A 5788  16.857   7.942   6.576  0.0127  0.1283 -0.4298
  362loPI   C1B 5789  17.927   8.247   8.264  0.0787 -0.0950 -0.1458
  362loPI   C2B 5790  18.027   8.090   7.850 -0.0473 -0.1992 -0.0554
  362loPI   C3B 5791  18.067   8.128   7.446  0.1485 -0.1836 -0.1525
  362loPI   C4B 5792  18.017   7.906   7.099 -0.2264 -0.3910  0.0250
  363loPI    C1 5793  11.521   5.550   9.768  0.0063  0.0270  0.0930
  363loPI    C2 5794  11.700   5.282   9.531 -0.1458  0.0929 -0.0993
  363loPI    C3 5795  11.652   5.204   9.920  0.1446  0.0021 -0.0793
  363loPI   PO4 5796  11.667   5.747   9.580  0.1734 -0.2296  0.3530
  363loPI   GL1 5797  11.733   5.552   9.080  0.0773  0.0117 -0.0310
  363loPI   GL2 5798  11.858   5.926   9.111  0.0768  0.1420  0.0673
  363loPI   C1A 5799  11.930   5.390   8.723  0.1835 -0.0328  0.0079
  363loPI   C2A 5800  12.192   5.403   8.561 -0.4755 -0.2656 -0.1619
  363loPI   C3A 5801  12.349   5.833   8.381 -0.0082  0.1493  0.0636
  363loPI   C4A 5802  12.099   6.047   7.981 -0.0201  0.0869  0.1127
  363loPI   C5A 5803  12.267   6.108   7.642  0.0459 -0.1047  0.2734
  363loPI   C6A 5804  12.514   6.429   7.391 -0.0186 -0.1479 -0.1587
  363loPI   C1B 5805  12.003   5.910   8.764 -0.0260  0.0136 -0.1185
  363loPI   C2B 5806  11.824   5.753   8.332 -0.3295  0.4581  0.4833
  363loPI   C3B 5807  11.615   6.085   8.041  0.0538  0.1473 -0.1172
  363loPI   C4B 5808  11.458   6.522   7.879  0.0011  0.0710  0.1135
  364loPI    C1 5809  12.989   9.716   9.786 -0.2706  0.0730 -0.2251
  364loPI    C2 5810  12.674   9.469   9.766 -0.1029 -0.1637 -0.0061
  364loPI    C3 5811  12.919   9.456  10.082  0.0051  0.1696 -0.0721
  364loPI   PO4 5812  12.927   9.929   9.668  0.1233 -0.3171  0.1621
  364loPI   GL1 5813  12.540   9.930   9.333 -0.0371  0.2971  0.2447
  364loPI   GL2 5814  12.508   9.733   9.057 -0.1046  0.1239  0.0582
  364loPI   C1A 5815  12.268  10.193   9.068 -0.1003 -0.0835 -0.3788
  364loPI   C2A 5816  11.909  10.036   8.788  0.1700 -0.2785  0.2126
  364loPI   C3A 5817  11.741  10.151   8.389 -0.4093  0.2706 -0.1792
  364loPI   C4A 5818  11.784  10.482   8.073 -0.1030  0.0599 -0.0540
  364loPI   C5A 5819  11.432  10.607   7.754  0.0479 -0.0957  0.2483
  364loPI   C6A 5820  11.374  10.524   7.373 -0.2896  0.0435 -0.1904
  364loPI   C1B 5821  12.351   9.814   8.625 -0.0507  0.2557  0.1232
  364loPI   C2B 5822  12.299   9.936   8.187 -0.2366  0.3272  0.0183
  364loPI   C3B 5823  12.211  10.246   7.820 -0.1701  0.2149 -0.1012
  364loPI   C4B 5824  11.911  10.482   7.479 -0.0425  0.1077 -0.0276
  365loPI    C1 5825  13.539   6.437   9.417 -0.0249 -0.1615 -0.2003
  365loPI    C2 5826  13.848   6.621   9.593 -0.3541  0.1709  0.0459
  365loPI    C3 5827  13.726   6.738   9.230 -0.2561  0.1080 -0.0075
  365loPI   PO4 5828  13.543   6.195   9.574  0.0394 -0.3493 -0.1092
  365loPI   GL1 5829  13.638   5.895   9.261 -0.2588  0.1538  0.1026
  365loPI   GL2 5830  13.395   6.083   9.087  0.1302  0.0046 -0.1996
  365loPI   C1A 5831  13.740   5.800   8.809 -0.2574  0.1299 -0.1127
  365loPI   C2A 5832  13.677   5.807   8.337 -0.1526 -0.2526 -0.0356
  365loPI   C3A 5833  13.444   5.932   8.065  0.2042 -0.2769 -0.0111
  365loPI   C4A 5834  13.448   6.185   7.739  0.1595 -0.0829  0.2297
  365loPI   C5A 5835  13.702   6.468   7.558  0.5365 -0.1104  0.0261
  365loPI   C6A 5836  13.959   6.195   7.304 -0.0655 -0.1128  0.0396
  365loPI   C1B 5837  13.195   6.164   8.731  0.0716 -0.0666  0.1373
  365loPI   C2B 5838  13.562   6.373   8.491 -0.1899  0.0964  0.1379
  365loPI   C3B 5839  13.588   6.531   8.065  0.0617  0.2599 -0.0034
  365loPI   C4B 5840  13.575   6.848   7.859 -0.0407  0.0124 -0.1614
  366loPI    C1 5841  10.729  19.595   9.699  0.2292 -0.1777 -0.0033
  366loPI    C2 5842  10.655  19.919   9.923  0.0159 -0.1588 -0.0984
  366loPI    C3 5843  10.830  19.599  10.086 -0.1057 -0.1322  0.0870
  366loPI   PO4 5844  10.772  19.612   9.480 -0.1867 -0.0809 -0.0955
  366loPI   GL1 5845  10.932  19.626   9.060 -0.0469  0.3204  0.0111
  366loPI   GL2 5846  11.026  19.932   9.112  0.2061 -0.0638  0.1929
  366loPI   C1A 5847  10.842  19.434   8.676 -0.1914  0.0984  0.0919
  366loPI   C2A 5848  10.847  19.363   8.246  0.0218 -0.3309 -0.2022
  366loPI   C3A 5849  10.822  19.398   7.846  0.0092  0.0306 -0.1903
  366loPI   C4A 5850  10.783  19.473   7.400  0.1449  0.0778 -0.1674
  366loPI   C5A 5851  10.500  19.697   7.178 -0.0697  0.0245 -0.3058
  366loPI   C6A 5852  10.092  19.961   7.040  0.2617  0.0677  0.1550
  366loPI   C1B 5853  10.903  19.926   8.709 -0.0144 -0.1012 -0.0148
  366loPI   C2B 5854  10.883  20.124   8.285  0.1917  0.3862 -0.0689
  366loPI   C3B 5855  10.861  20.413   7.953 -0.2023  0.1257 -0.0096
  366loPI   C4B 5856  10.820  20.736   7.863  0.1150  0.0054  0.1442
  367loPI    C1 5857  19.550   4.233   9.731  0.1868  0.1493 -0.0114
  367loPI    C2 5858  19.640   4.621   9.693 -0.1305  0.1831 -0.5170
  367loPI    C3 5859  19.336   4.508   9.927  0.3411  0.1771  0.1202
  367loPI   PO4 5860  19.595   4.159   9.407  0.0823  0.1103 -0.0476
  367loPI   GL1 5861  19.786   4.476   9.202 -0.1073 -0.1115 -0.0117
  367loPI   GL2 5862  19.410   4.670   9.232  0.2079  0.0857  0.3033
  367loPI   C1A 5863  19.917   4.546   8.712 -0.0858  0.0109 -0.0573
  367loPI   C2A 5864  20.305   4.658   8.470  0.0159 -0.0293  0.2950
  367loPI   C3A 5865  20.471   4.844   8.075  0.0366  0.3141  0.0936
  367loPI   C4A 5866  20.412   4.917   7.624 -0.0836  0.0135 -0.1598
  367loPI   C5A 5867  20.769   4.940   7.544 -0.2064  0.1619 -0.1166
  367loPI   C6A 5868  21.025   4.959   7.071 -0.1039  0.0963  0.2089
  367loPI   C1B 5869  19.363   4.706   8.775 -0.2324 -0.0158  0.1337
  367loPI   C2B 5870  19.507   4.816   8.338  0.0577 -0.1438 -0.1006
  367loPI   C3B 5871  19.411   4.705   7.907 -0.0917  0.0099  0.0868
  367loPI   C4B 5872  19.229   4.366   7.699 -0.2288  0.1556  0.0110
  368loPI    C1 5873  15.961   3.000   9.435 -0.0237  0.2105  0.0011
  368loPI    C2 5874  15.664   2.888   9.679  0.0938 -0.0138  0.0439
  368loPI    C3 5875  16.029   2.958   9.827  0.1364 -0.0345 -0.0503
  368loPI   PO4 5876  15.925   2.821   9.257  0.1937  0.0339  0.0881
  368loPI   GL1 5877  16.020   2.774   8.861  0.0208 -0.1202  0.0409
  368loPI   GL2 5878  16.190   2.982   8.726 -0.0446 -0.0492 -0.2517
  368loPI   C1A 5879  16.016   2.432   8.600 -0.1605 -0.1319  0.0640
  368loPI   C2A 5880  16.031   2.374   8.251  0.4243  0.1323  0.0546
  368loPI   C3A 5881  16.166   2.317   7.775 -0.1741 -0.2205 -0.1882
  368loPI   C4A 5882  16.020   2.458   7.373  0.1116  0.4232  0.0518
  368loPI   C5A 5883  16.271   2.651   7.083  0.1908 -0.1322  0.1620
  368loPI   C6A 5884  16.528   3.104   7.077  0.1370 -0.0582  0.1479
  368loPI   C1B 5885  16.433   3.156   8.321 -0.1749  0.1072 -0.0515
  368loPI   C2B 5886  16.695   3.060   7.979 -0.0203  0.0583  0.0349
  368loPI   C3B 5887  16.828   3.090   7.553 -0.0577 -0.2889  0.1180
  368loPI   C4B 5888  16.962   3.245   7.157 -0.0526  0.1617  0.1002
  369loPI    C1 5889  18.776   6.183   9.349  0.3364  0.0934  0.2063
  369loPI    C2 5890  18.863   6.063   9.721 -0.1038 -0.0066  0.2831
  369loPI    C3 5891  18.567   6.324   9.660  0.0663  0.1276  0.0126
  369loPI   PO4 5892  19.011   6.241   9.246 -0.2435 -0.0691 -0.6083
  369loPI   GL1 5893  19.197   6.028   8.998 -0.1011  0.1021  0.3441
  369loPI   GL2 5894  19.364   6.279   8.755 -0.0984 -0.0502  0.0079
  369loPI   C1A 5895  19.439   5.743   8.622  0.1247  0.1350  0.0224
  369loPI   C2A 5896  19.387   5.622   8.257 -0.1560 -0.0595  0.1230
  369loPI   C3A 5897  19.667   5.726   7.871  0.0189  0.0426 -0.4701
  369loPI   C4A 5898  19.801   5.616   7.520  0.2727 -0.1183  0.3578
  369loPI   C5A 5899  20.060   5.877   7.161  0.1372  0.0662  0.0288
  369loPI   C6A 5900  20.197   5.964   6.820 -0.2763  0.0365 -0.1641
  369loPI   C1B 5901  19.568   6.552   8.414 -0.1189  0.1635 -0.0833
  369loPI   C2B 5902  19.919   6.854   8.206 -0.0965  0.0788 -0.1054
  369loPI   C3B 5903  20.047   6.976   7.847  0.1190  0.0931  0.1503
  369loPI   C4B 5904  20.357   7.031   7.466  0.1660 -0.2848 -0.0982
  370loPI    C1 5905   7.200   0.449   9.777  0.0496 -0.1139  0.0416
  370loPI    C2 5906   7.596   0.466   9.834  0.0742 -0.4400 -0.0106
  370loPI    C3 5907   7.347   0.506  10.145  0.1301  0.1616 -0.0313
  370loPI   PO4 5908   7.145   0.333   9.578  0.4188 -0.0048  0.0769
  370loPI   GL1 5909   6.893   0.376   9.185  0.2264 -0.1993 -0.0300
  370loPI   GL2 5910   7.064   0.081   9.110 -0.0775 -0.1469 -0.2418
  370loPI   C1A 5911   6.774   0.348   8.716  0.0237  0.1887  0.2927
  370loPI   C2A 5912   6.762   0.404   8.299  0.0011 -0.0104  0.2793
  370loPI   C3A 5913   6.587   0.104   7.953 -0.3045 -0.0332 -0.2824
  370loPI   C4A 5914   6.480  -0.069   7.520 -0.0791 -0.3526  0.2259
  370loPI   C5A 5915   6.469  -0.109   7.074 -0.2460 -0.0915 -0.1177
  370loPI   C6A 5916   6.564  -0.128   6.607 -0.1622  0.3208 -0.0489
  370loPI   C1B 5917   7.068  -0.028   8.618  0.0591 -0.0471 -0.0874
  370loPI   C2B 5918   6.772  -0.127   8.354 -0.1573 -0.0670  0.2326
  370loPI   C3B 5919   6.652  -0.353   8.014  0.0683 -0.0414 -0.1589
  370loPI   C4B 5920   6.324  -0.589   7.834  0.0148  0.1479  0.1634
  371loPI    C1 5921   6.043  11.358   9.896 -0.1694  0.0272  0.1795
  371loPI    C2 5922   6.252  11.207  10.201 -0.0333  0.1015  0.1242
  371loPI    C3 5923   6.038  11.541  10.251  0.0684  0.1688  0.1122
  371loPI   PO4 5924   6.259  11.249   9.695 -0.1198  0.1501  0.5040
  371loPI   GL1 5925   6.098  10.893   9.408 -0.2920 -0.0219  0.1139
  371loPI   GL2 5926   5.879  11.009   9.473 -0.0115 -0.0084  0.1634
  371loPI   C1A 5927   6.165  11.004   9.009  0.0007  0.1583 -0.0768
  371loPI   C2A 5928   6.096  11.172   8.654  0.1668 -0.2058  0.2328
  371loPI   C3A 5929   6.170  11.372   8.278  0.2135  0.0168  0.3442
  371loPI   C4A 5930   6.234  11.187   7.850  0.1025 -0.0718  0.0159
  371loPI   C5A 5931   6.489  11.128   7.492 -0.1373  0.1449  0.0466
  371loPI   C6A 5932   6.681  10.916   7.124 -0.2216  0.3215  0.1222
  371loPI   C1B 5933   5.763  10.664   9.131  0.2239  0.0253 -0.0475
  371loPI   C2B 5934   5.834  10.694   8.683 -0.1630  0.3337  0.0294
  371loPI   C3B 5935   5.964  10.888   8.240  0.1362  0.4921  0.2355
  371loPI   C4B 5936   5.778  11.100   7.965  0.3179 -0.0456 -0.1277
  372loPI    C1 5937  18.860  19.846   9.712  0.1852  0.1487  0.0316
  372loPI    C2 5938  19.119  19.591   9.879  0.0837  0.1461  0.1885
  372loPI    C3 5939  18.852  19.781  10.107  0.0674  0.2880  0.0528
  372loPI   PO4 5940  18.770  19.714   9.462 -0.0048 -0.1864  0.2704
  372loPI   GL1 5941  19.042  19.909   9.133 -0.2218 -0.0353  0.0252
  372loPI   GL2 5942  19.071  20.274   9.062 -0.0934 -0.2815  0.0590
  372loPI   C1A 5943  19.022  19.650   8.832  0.1950  0.1779  0.2430
  372loPI   C2A 5944  19.044  19.556   8.398 -0.4523 -0.3146  0.3281
  372loPI   C3A 5945  18.786  19.546   7.991  0.2088  0.1712  0.0049
  372loPI   C4A 5946  18.610  19.656   7.625  0.1880  0.1147  0.3932
  372loPI   C5A 5947  18.652  19.416   7.198  0.2398  0.3080  0.2016
  372loPI   C6A 5948  18.421  19.087   6.902  0.0458 -0.0672 -0.0657
  372loPI   C1B 5949  19.084  20.106   8.593 -0.2960 -0.1057  0.1294
  372loPI   C2B 5950  19.082  20.056   8.208  0.3342  0.0297 -0.0949
  372loPI   C3B 5951  18.886  20.047   7.749  0.0549 -0.1830  0.3805
  372loPI   C4B 5952  18.992  19.867   7.331 -0.1561  0.1644 -0.0948
  373loPI    C1 5953   6.343   0.223   9.824  0.1896  0.0501  0.0031
  373loPI    C2 5954   6.689   0.423   9.846  0.1025  0.2318 -0.2352
  373loPI    C3 5955   6.402   0.489  10.117  0.1971  0.1894 -0.1238
  373loPI   PO4 5956   6.380   0.223   9.488  0.1507 -0.3250 -0.0669
  373loPI   GL1 5957   6.292   0.484   9.006 -0.0915  0.0456 -0.0159
  373loPI   GL2 5958   6.542   0.706   9.140 -0.4509  0.5183 -0.1500
  373loPI   C1A 5959   6.258   0.357   8.594  0.0856 -0.3033 -0.0201
  373loPI   C2A 5960   6.180   0.295   8.130  0.0064 -0.1622  0.2369
  373loPI   C3A 5961   5.875   0.281   7.866 -0.0961  0.0517  0.0606
  373loPI   C4A 5962   5.572   0.545   7.659  0.0338  0.1768  0.0467
  373loPI   C5A 5963   5.416   0.341   7.371  0.1032  0.0999 -0.2536
  373loPI   C6A 5964   5.230   0.530   7.095  0.0409  0.2912 -0.0043
  373loPI   C1B 5965   6.456   0.815   8.624  0.0348  0.1338  0.0452
  373loPI   C2B 5966   6.407   0.775   8.271 -0.3302 -0.1205 -0.3401
  373loPI   C3B 5967   6.390   0.650   7.849  0.1933 -0.1118 -0.0067
  373loPI   C4B 5968   6.321   0.430   7.616 -0.2937  0.0513  0.0038
  374loPI    C1 5969   3.405  17.188  10.165  0.0587 -0.0551 -0.0124
  374loPI    C2 5970   3.061  17.191  10.370 -0.0017 -0.2606 -0.1079
  374loPI    C3 5971   3.395  17.334  10.537 -0.0887 -0.2568  0.0650
  374loPI   PO4 5972   3.401  16.936   9.972 -0.2947  0.0742 -0.0065
  374loPI   GL1 5973   3.290  16.899   9.479  0.0649 -0.1261  0.1912
  374loPI   GL2 5974   3.607  17.040   9.424 -0.4554 -0.4615  0.0980
  374loPI   C1A 5975   3.347  16.979   8.954 -0.1432 -0.2172 -0.0873
  374loPI   C2A 5976   3.048  17.148   8.690  0.2104  0.2028 -0.4188
  374loPI   C3A 5977   3.056  17.316   8.285 -0.0770 -0.1182  0.0446
  374loPI   C4A 5978   3.201  17.537   7.976  0.2734  0.3143  0.2545
  374loPI   C5A 5979   3.297  17.795   7.617  0.1241 -0.4655 -0.0163
  374loPI   C6A 5980   3.442  18.081   7.300 -0.1945  0.2894  0.0678
  374loPI   C1B 5981   3.695  17.350   9.097  0.0627 -0.2161  0.0432
  374loPI   C2B 5982   3.659  17.260   8.667  0.3090 -0.2496  0.0260
  374loPI   C3B 5983   3.627  17.323   8.218 -0.0870 -0.1480 -0.3885
  374loPI   C4B 5984   3.688  17.418   7.766  0.0860  0.0178 -0.1058
  375loPI    C1 5985   6.945  14.576   9.745 -0.0070 -0.0510  0.1096
  375loPI    C2 5986   6.884  14.914   9.951  0.2473  0.0725 -0.0133
  375loPI    C3 5987   7.042  14.929   9.584 -0.0931 -0.1542 -0.1745
  375loPI   PO4 5988   6.722  14.450   9.716 -0.0596  0.4269  0.2846
  375loPI   GL1 5989   6.378  14.220   9.417 -0.0995  0.3143 -0.1444
  375loPI   GL2 5990   6.224  13.985   9.189  0.1102 -0.0567  0.0021
  375loPI   C1A 5991   6.631  14.172   9.008  0.0305 -0.0092 -0.0747
  375loPI   C2A 5992   6.683  14.221   8.564 -0.1517  0.5413  0.3035
  375loPI   C3A 5993   6.799  14.453   8.298  0.1832  0.1692  0.2719
  375loPI   C4A 5994   6.656  14.404   7.946  0.1888  0.1016 -0.0352
  375loPI   C5A 5995   6.928  14.244   7.587 -0.0625  0.3320 -0.1849
  375loPI   C6A 5996   7.236  14.089   7.335  0.0696 -0.0108  0.0872
  375loPI   C1B 5997   6.247  14.112   8.684 -0.1725  0.1385 -0.0923
  375loPI   C2B 5998   6.299  14.166   8.242 -0.1231 -0.1518 -0.0965
  375loPI   C3B 5999   6.480  13.984   7.787 -0.0288 -0.1281 -0.1331
  375loPI   C4B 6000   6.497  13.603   7.510 -0.1187 -0.3954 -0.0310
  376loPI    C1 6001  16.080  17.913   9.158  0.0065  0.1639 -0.2771
  376loPI    C2 6002  16.210  18.255   9.319  0.1960  0.0240 -0.1287
  376loPI    C3 6003  16.016  18.259   8.970 -0.0546  0.3117  0.0094
  376loPI   PO4 6004  16.196  17.721   9.246 -0.1423 -0.2668  0.0466
  376loPI   GL1 6005  16.511  17.475   8.897  0.0823  0.2442  0.0475
  376loPI   GL2 6006  16.215  17.609   8.757  0.2757  0.2388 -0.0467
  376loPI   C1A 6007  16.575  17.399   8.400 -0.0864  0.1609 -0.0743
  376loPI   C2A 6008  16.619  17.583   8.009 -0.1754  0.0928 -0.2779
  376loPI   C3A 6009  16.648  17.892   7.731  0.3657  0.2851 -0.1276
  376loPI   C4A 6010  16.427  17.898   7.366 -0.1068 -0.3860  0.1431
  376loPI   C5A 6011  16.517  18.047   7.021 -0.2523  0.1349 -0.0585
  376loPI   C6A 6012  16.406  18.074   6.555  0.1439 -0.0583 -0.1785
  376loPI   C1B 6013  16.486  17.867   8.547 -0.4175  0.0229 -0.2831
  376loPI   C2B 6014  16.397  18.026   8.167  0.1105 -0.0534 -0.1527
  376loPI   C3B 6015  15.926  18.025   7.992  0.1220 -0.1326  0.1413
  376loPI   C4B 6016  15.483  17.991   8.108 -0.2288 -0.0295  0.4179
  377loPI    C1 6017  11.334   2.409   9.726 -0.0567 -0.3013 -0.0711
  377loPI    C2 6018  11.680   2.516   9.895 -0.0814 -0.1643 -0.1061
  377loPI    C3 6019  11.511   2.166   9.991 -0.0748 -0.1067  0.1225
  377loPI   PO4 6020  11.388   2.520   9.451  0.2994  0.0341  0.3252
  377loPI   GL1 6021  11.162   2.860   9.182  0.0961  0.0685 -0.1222
  377loPI   GL2 6022  11.195   2.531   8.967 -0.1781  0.0950 -0.3650
  377loPI   C1A 6023  11.119   2.962   8.764  0.1416  0.1516 -0.1809
  377loPI   C2A 6024  11.193   2.835   8.344  0.1198 -0.0127  0.2449
  377loPI   C3A 6025  11.079   2.861   7.890 -0.1227 -0.0512 -0.2621
  377loPI   C4A 6026  11.094   2.667   7.473  0.0514  0.4134  0.0881
  377loPI   C5A 6027  11.101   2.397   7.200 -0.1328 -0.2870  0.2871
  377loPI   C6A 6028  10.745   2.319   6.848  0.0746  0.0153 -0.2786
  377loPI   C1B 6029  11.266   2.341   8.542  0.2693 -0.1183  0.0272
  377loPI   C2B 6030  11.420   2.135   8.192  0.0266  0.1575 -0.1828
  377loPI   C3B 6031  11.650   1.997   7.827 -0.2807  0.1744  0.0593
  377loPI   C4B 6032  11.794   1.997   7.421 -0.1080 -0.0559 -0.3091
  378loPI    C1 6033   6.026   7.440   9.703  0.1260 -0.0220  0.0011
  378loPI    C2 6034   5.958   7.152   9.972  0.3782 -0.0397  0.0481
  378loPI    C3 6035   6.015   7.529  10.092 -0.1090  0.0633 -0.0233
  378loPI   PO4 6036   5.856   7.363   9.553  0.0622 -0.0714  0.3415
  378loPI   GL1 6037   5.889   7.134   9.163 -0.0731  0.1389  0.4536
  378loPI   GL2 6038   5.909   6.762   9.103 -0.0860  0.2388  0.3160
  378loPI   C1A 6039   5.763   7.213   8.684  0.0980  0.1138 -0.2586
  378loPI   C2A 6040   5.849   7.463   8.322  0.1529 -0.1599  0.4476
  378loPI   C3A 6041   6.036   7.469   8.062  0.1417  0.1383  0.2669
  378loPI   C4A 6042   6.109   7.528   7.544 -0.0722 -0.3241 -0.2561
  378loPI   C5A 6043   6.462   7.767   7.352  0.1672  0.0349  0.0103
  378loPI   C6A 6044   6.644   7.828   7.042  0.0340 -0.1726 -0.2535
  378loPI   C1B 6045   5.960   6.789   8.577  0.1605 -0.0040 -0.1205
  378loPI   C2B 6046   5.803   6.990   8.220  0.2084 -0.0404  0.1049
  378loPI   C3B 6047   5.731   7.056   7.894 -0.0636  0.1217  0.2543
  378loPI   C4B 6048   5.662   7.263   7.549  0.1795 -0.1016  0.2263
  379loPI    C1 6049   0.743  11.289   9.344  0.0887  0.2127 -0.1893
  379loPI    C2 6050   0.363  11.375   9.439  0.0986  0.2778 -0.2082
  379loPI    C3 6051   0.663  11.582   9.605  0.1302  0.1574 -0.1144
  379loPI   PO4 6052   0.731  11.174   9.118  0.1068  0.1066  0.1412
  379loPI   GL1 6053   0.870  11.354   8.737 -0.1007 -0.0578  0.0148
  379loPI   GL2 6054   1.119  11.090   8.745  0.1464 -0.3248  0.0819
  379loPI   C1A 6055   0.731  11.433   8.349  0.0245  0.2497 -0.4153
  379loPI   C2A 6056   0.746  11.609   7.950  0.3253 -0.1441  0.2798
  379loPI   C3A 6057   0.780  11.531   7.537  0.0402 -0.1882 -0.2265
  379loPI   C4A 6058   0.598  11.493   7.061 -0.2761  0.2097 -0.1884
  379loPI   C5A 6059   0.849  11.525   6.617 -0.1310  0.1971 -0.5277
  379loPI   C6A 6060   0.690  11.656   6.312  0.1451 -0.2093  0.0560
  379loPI   C1B 6061   1.026  10.884   8.367  0.3389 -0.0941  0.0902
  379loPI   C2B 6062   1.145  10.763   7.965  0.0614  0.3373 -0.1983
  379loPI   C3B 6063   1.315  10.727   7.663 -0.0572 -0.0771 -0.0049
  379loPI   C4B 6064   1.288  10.894   7.220 -0.0541  0.1081 -0.0332
  380loPI    C1 6065   9.593  16.169   9.772  0.1209 -0.2052 -0.0158
  380loPI    C2 6066   9.985  16.108   9.721  0.1532  0.0408 -0.0728
  380loPI    C3 6067   9.852  16.276  10.058  0.0762 -0.2322  0.0348
  380loPI   PO4 6068   9.488  15.983   9.722  0.1897 -0.1755 -0.1271
  380loPI   GL1 6069   9.405  15.877   9.340  0.1023 -0.1451 -0.0216
  380loPI   GL2 6070   9.390  15.456   9.454 -0.2125 -0.1702  0.1470
  380loPI   C1A 6071   9.463  15.913   8.945  0.0382 -0.0683  0.3079
  380loPI   C2A 6072   9.646  15.972   8.440  0.0952 -0.1128 -0.0221
  380loPI   C3A 6073   9.773  16.219   8.154 -0.0580  0.1378 -0.3808
  380loPI   C4A 6074   9.895  16.266   7.795  0.3262  0.0946  0.0121
  380loPI   C5A 6075  10.002  16.276   7.329 -0.1638 -0.0385 -0.0641
  380loPI   C6A 6076   9.821  16.488   6.990 -0.1914  0.2717  0.2570
  380loPI   C1B 6077   9.330  15.410   9.053  0.0812 -0.2062  0.0122
  380loPI   C2B 6078   9.432  15.494   8.578  0.1824 -0.0000  0.2710
  380loPI   C3B 6079   9.808  15.523   8.241 -0.2230 -0.2591 -0.0131
  380loPI   C4B 6080   9.936  15.748   7.955  0.0312 -0.1768 -0.1807
  381loPI    C1 6081  15.794   4.047   9.502 -0.0232 -0.1357 -0.1278
  381loPI    C2 6082  15.990   4.175   9.827  0.0223 -0.0897 -0.1733
  381loPI    C3 6083  16.052   3.805   9.689  0.0319 -0.0960 -0.1521
  381loPI   PO4 6084  15.753   4.311   9.339 -0.1427  0.0128 -0.2956
  381loPI   GL1 6085  15.448   4.455   8.963 -0.1230 -0.2932 -0.1102
  381loPI   GL2 6086  15.644   4.356   8.823  0.0304 -0.0789 -0.1264
  381loPI   C1A 6087  15.403   4.782   8.559  0.0161  0.0868  0.2161
  381loPI   C2A 6088  15.324   4.713   8.168  0.2094 -0.2619  0.1730
  381loPI   C3A 6089  15.285   4.558   7.729 -0.1509  0.0417 -0.0690
  381loPI   C4A 6090  14.956   4.478   7.339  0.0269  0.1526 -0.0593
  381loPI   C5A 6091  14.843   4.754   7.112  0.4942  0.0264  0.2233
  381loPI   C6A 6092  14.827   5.014   6.731  0.1453  0.2238  0.0770
  381loPI   C1B 6093  15.814   4.552   8.421  0.0219  0.0924  0.1804
  381loPI   C2B 6094  15.799   4.466   8.124  0.0954 -0.0430 -0.1266
  381loPI   C3B 6095  15.772   4.650   7.813  0.1846  0.2498  0.1460
  381loPI   C4B 6096  15.810   4.464   7.432  0.1811  0.2379 -0.0391
  382loPI    C1 6097   1.758  17.588   9.850 -0.1225 -0.0469 -0.0510
  382loPI    C2 6098   1.514  17.810  10.077 -0.0212  0.1987 -0.1785
  382loPI    C3 6099   1.889  17.739  10.197 -0.0947 -0.0201 -0.0732
  382loPI   PO4 6100   1.804  17.648   9.672 -0.0970  0.2816 -0.2174
  382loPI   GL1 6101   1.654  17.718   9.344 -0.1995  0.0685 -0.0365
  382loPI   GL2 6102   1.795  17.552   9.193 -0.1634  0.0005  0.1776
  382loPI   C1A 6103   1.694  17.969   8.968 -0.2201 -0.2076 -0.1183
  382loPI   C2A 6104   1.583  17.868   8.603 -0.1927  0.1780 -0.0900
  382loPI   C3A 6105   1.814  17.786   8.206 -0.1529  0.0696  0.1776
  382loPI   C4A 6106   1.900  17.879   7.754  0.0703  0.1277 -0.6745
  382loPI   C5A 6107   2.343  17.714   7.524  0.2220 -0.0207 -0.1664
  382loPI   C6A 6108   2.792  17.783   7.667  0.0724  0.2522 -0.1374
  382loPI   C1B 6109   2.039  17.549   8.789  0.1636  0.1997 -0.1730
  382loPI   C2B 6110   2.246  17.635   8.420  0.2661  0.2386  0.1464
  382loPI   C3B 6111   2.505  17.548   8.045 -0.1664 -0.0439  0.2404
  382loPI   C4B 6112   2.573  17.275   7.719  0.0887 -0.0927  0.0448
  383loPI    C1 6113   2.938   8.653   9.742 -0.1019  0.0327 -0.1093
  383loPI    C2 6114   2.559   8.630   9.615 -0.1016  0.0794 -0.1189
  383loPI    C3 6115   2.661   8.476   9.970 -0.1433  0.1261 -0.0866
  383loPI   PO4 6116   3.084   8.743   9.523 -0.1223  0.0416 -0.0446
  383loPI   GL1 6117   3.250   8.510   9.196 -0.1851  0.0272 -0.0224
  383loPI   GL2 6118   3.441   8.685   8.990 -0.1673  0.1476 -0.1154
  383loPI   C1A 6119   3.062   8.734   8.616 -0.1955  0.0299 -0.1080
  383loPI   C2A 6120   3.014   8.659   8.113 -0.0913  0.3062 -0.2032
  383loPI   C3A 6121   3.021   8.904   7.727 -0.0045 -0.0342 -0.0329
  383loPI   C4A 6122   3.041   8.678   7.324  0.3223  0.0050 -0.0684
  383loPI   C5A 6123   2.979   8.441   6.949  0.0970  0.1815  0.2115
  383loPI   C6A 6124   2.661   8.394   6.631 -0.2346  0.0174 -0.0257
  383loPI   C1B 6125   3.500   8.378   8.692  0.3739  0.0953 -0.1454
  383loPI   C2B 6126   3.698   8.068   8.526 -0.0386 -0.1515  0.1220
  383loPI   C3B 6127   3.999   7.935   8.251 -0.1152 -0.1376  0.1215
  383loPI   C4B 6128   4.221   7.886   7.820  0.2252 -0.0816 -0.0725
  384loPI    C1 6129   3.000   6.484   9.616 -0.2129 -0.2327  0.2873
  384loPI    C2 6130   2.787   6.755   9.819 -0.1450  0.0320  0.0119
  384loPI    C3 6131   3.151   6.649   9.947 -0.2368 -0.0489  0.2080
  384loPI   PO4 6132   2.975   6.503   9.289 -0.1084 -0.1258  0.3712
  384loPI   GL1 6133   3.083   6.477   8.801 -0.0671  0.1175  0.0750
  384loPI   GL2 6134   3.382   6.526   8.944  0.3559 -0.1703 -0.0356
  384loPI   C1A 6135   3.147   6.453   8.404 -0.1929 -0.1687 -0.2462
  384loPI   C2A 6136   3.085   6.319   7.929  0.0112  0.3065 -0.3218
  384loPI   C3A 6137   3.217   5.943   7.748  0.1957  0.1049 -0.3041
  384loPI   C4A 6138   3.511   5.701   7.373  0.2510 -0.1938 -0.3057
  384loPI   C5A 6139   3.582   5.330   7.169  0.5081 -0.2710 -0.0966
  384loPI   C6A 6140   3.372   5.059   6.878 -0.1914  0.0088 -0.4637
  384loPI   C1B 6141   3.666   6.626   8.545 -0.0102 -0.1921 -0.0497
  384loPI   C2B 6142   3.824   6.632   8.157 -0.3188 -0.3473  0.0204
  384loPI   C3B 6143   3.836   6.722   7.811 -0.0830 -0.0398 -0.0808
  384loPI   C4B 6144   3.908   7.080   7.523 -0.2623  0.0837  0.3528
  385loPI    C1 6145   0.864  14.995   9.394  0.0196  0.0923 -0.1460
  385loPI    C2 6146   0.543  14.842   9.576  0.1154 -0.0289 -0.0770
  385loPI    C3 6147   0.821  14.599   9.423  0.1389  0.0748 -0.2013
  385loPI   PO4 6148   0.732  15.180   9.263 -0.0298  0.0179  0.0564
  385loPI   GL1 6149   0.659  15.229   8.782  0.1452  0.2545  0.1092
  385loPI   GL2 6150   0.335  15.241   8.664  0.3227  0.1051 -0.2212
  385loPI   C1A 6151   0.868  15.336   8.306 -0.0031  0.1199  0.1494
  385loPI   C2A 6152   1.211  15.109   7.998 -0.1327  0.1007 -0.0417
  385loPI   C3A 6153   1.560  15.252   7.901  0.0468 -0.0249  0.0328
  385loPI   C4A 6154   2.014  15.338   7.844 -0.0612  0.1217 -0.0567
  385loPI   C5A 6155   2.392  15.368   8.065  0.0501 -0.0638 -0.0884
  385loPI   C6A 6156   2.436  14.964   8.282 -0.1417  0.0365  0.0060
  385loPI   C1B 6157   0.212  15.093   8.299 -0.1962 -0.0470  0.0507
  385loPI   C2B 6158   0.191  14.945   7.936  0.1969 -0.0803 -0.1385
  385loPI   C3B 6159   0.132  15.035   7.565  0.0328  0.0542  0.1005
  385loPI   C4B 6160   0.156  14.830   7.190  0.1840  0.2513 -0.1067
  386loPI    C1 6161   5.507   1.890   9.702 -0.1661 -0.0716 -0.2354
  386loPI    C2 6162   5.466   2.240   9.891 -0.1620 -0.1353 -0.1158
  386loPI    C3 6163   5.779   2.004   9.972 -0.1657 -0.1675 -0.1948
  386loPI   PO4 6164   5.327   1.969   9.460 -0.0687  0.0581  0.1340
  386loPI   GL1 6165   5.347   2.105   9.131  0.1291 -0.3089  0.1185
  386loPI   GL2 6166   5.189   2.431   9.035  0.4023 -0.1221 -0.0615
  386loPI   C1A 6167   5.435   1.946   8.615  0.0331 -0.1552 -0.1972
  386loPI   C2A 6168   5.283   2.150   8.157 -0.4384 -0.1504 -0.1510
  386loPI   C3A 6169   5.373   2.060   7.662 -0.2917 -0.3262 -0.1200
  386loPI   C4A 6170   4.997   2.118   7.370 -0.3061 -0.1934 -0.1565
  386loPI   C5A 6171   4.875   2.573   7.297  0.1090  0.3559  0.0907
  386loPI   C6A 6172   5.073   2.896   7.612 -0.2182  0.2503  0.0328
  386loPI   C1B 6173   5.271   2.619   8.646 -0.1647 -0.0389  0.0176
  386loPI   C2B 6174   5.188   2.734   8.215  0.2967 -0.0929  0.1287
  386loPI   C3B 6175   5.033   3.094   8.067 -0.0314 -0.0621  0.0250
  386loPI   C4B 6176   4.639   3.451   8.037 -0.0517  0.1002 -0.0035
  387loPI    C1 6177   9.886   0.209   9.461 -0.0263  0.0404  0.2166
  387loPI    C2 6178   9.646   0.511   9.567 -0.0229  0.0444  0.2132
  387loPI    C3 6179   9.985   0.445   9.769  0.0179  0.0944  0.1613
  387loPI   PO4 6180  10.072   0.178   9.187 -0.2582 -0.0715  0.2213
  387loPI   GL1 6181   9.913  -0.077   8.802  0.2088  0.2067  0.4354
  387loPI   GL2 6182   9.670  -0.095   8.931  0.3291  0.0204 -0.0439
  387loPI   C1A 6183  10.013   0.140   8.272  0.1663  0.1241  0.0473
  387loPI   C2A 6184   9.721   0.164   7.907  0.5158 -0.1669  0.1328
  387loPI   C3A 6185   9.276   0.193   7.826 -0.0968  0.1551 -0.3502
  387loPI   C4A 6186   9.096   0.269   7.501  0.1581 -0.0608  0.2669
  387loPI   C5A 6187   8.852   0.263   7.161  0.0552 -0.0955  0.0638
  387loPI   C6A 6188   8.634   0.464   6.889  0.2742 -0.3792  0.1691
  387loPI   C1B 6189   9.275  -0.227   8.726 -0.1333 -0.4648 -0.0710
  387loPI   C2B 6190   8.950  -0.396   8.456  0.0217  0.1677 -0.1648
  387loPI   C3B 6191   8.693  -0.549   8.096 -0.0235 -0.0995 -0.0383
  387loPI   C4B 6192   8.627  -0.913   7.817 -0.2431  0.1110  0.0425
  388loPI    C1 6193  13.166  17.348   9.750 -0.0166  0.1289  0.0567
  388loPI    C2 6194  13.514  17.527   9.835  0.0136  0.2364 -0.2761
  388loPI    C3 6195  13.175  17.739   9.834 -0.0992  0.0778  0.3106
  388loPI   PO4 6196  13.191  17.238   9.514  0.1245  0.1279 -0.3822
  388loPI   GL1 6197  13.131  17.204   9.140 -0.0752 -0.0492  0.2388
  388loPI   GL2 6198  12.952  17.004   9.164 -0.0063 -0.1654  0.0045
  388loPI   C1A 6199  12.888  17.372   8.737 -0.3016  0.0029 -0.1488
  388loPI   C2A 6200  12.938  17.539   8.269  0.0379  0.1604  0.0407
  388loPI   C3A 6201  12.990  17.361   7.834  0.0272  0.0164  0.1399
  388loPI   C4A 6202  13.043  17.240   7.401  0.0406  0.1957  0.0888
  388loPI   C5A 6203  13.076  17.027   7.038 -0.1580  0.2863  0.1190
  388loPI   C6A 6204  12.975  16.800   6.666  0.2072 -0.0272 -0.1207
  388loPI   C1B 6205  13.049  16.920   8.725  0.3180 -0.0325 -0.1501
  388loPI   C2B 6206  12.950  16.999   8.360  0.0855 -0.1556 -0.1500
  388loPI   C3B 6207  12.841  16.830   7.920 -0.1026 -0.1671 -0.1629
  388loPI   C4B 6208  12.982  16.773   7.531  0.0205  0.0511  0.0411
  389loPI    C1 6209  17.199   2.698   9.497  0.0208  0.0341  0.1859
  389loPI    C2 6210  17.154   2.306   9.559  0.0001 -0.0110 -0.1020
  389loPI    C3 6211  16.833   2.537   9.498  0.0330 -0.0096 -0.2751
  389loPI   PO4 6212  17.327   2.755   9.281  0.3621  0.0692 -0.1547
  389loPI   GL1 6213  17.521   2.514   8.826  0.0649 -0.1726 -0.2138
  389loPI   GL2 6214  17.342   2.819   8.777  0.2146  0.0554 -0.1050
  389loPI   C1A 6215  17.420   2.478   8.444 -0.0562 -0.0495 -0.2465
  389loPI   C2A 6216  17.453   2.419   7.959  0.1102 -0.2936  0.1930
  389loPI   C3A 6217  17.507   2.516   7.527 -0.2944  0.0807 -0.1463
  389loPI   C4A 6218  17.822   2.399   7.238  0.0193 -0.2284  0.1621
  389loPI   C5A 6219  17.746   2.564   6.762  0.0360 -0.0787 -0.2017
  389loPI   C6A 6220  17.669   2.601   6.439  0.2858  0.2016 -0.0610
  389loPI   C1B 6221  17.387   3.219   8.592 -0.0184  0.1386  0.0604
  389loPI   C2B 6222  17.693   3.670   8.376 -0.2660 -0.0894 -0.0219
  389loPI   C3B 6223  17.918   3.671   7.960  0.0544  0.1843  0.1923
  389loPI   C4B 6224  17.785   3.641   7.505  0.0828  0.3144 -0.0777
  390loPI    C1 6225  -0.057  11.849   9.150  0.0193 -0.0207  0.1928
  390loPI    C2 6226   0.296  11.887   9.334  0.0738  0.1474  0.0562
  390loPI    C3 6227  -0.016  12.109   9.451  0.0040 -0.0237  0.1975
  390loPI   PO4 6228   0.039  11.890   8.877 -0.1164  0.0037 -0.0593
  390loPI   GL1 6229   0.438  11.780   8.594 -0.2098  0.0208  0.4333
  390loPI   GL2 6230   0.644  12.078   8.591  0.0833 -0.1863 -0.0457
  390loPI   C1A 6231   0.444  11.974   8.116 -0.0715 -0.1056  0.1789
  390loPI   C2A 6232   0.726  12.120   7.836  0.1256 -0.0304  0.1459
  390loPI   C3A 6233   0.907  12.062   7.463  0.2319  0.0525 -0.3462
  390loPI   C4A 6234   1.192  12.114   7.113 -0.1101  0.1191 -0.0186
  390loPI   C5A 6235   1.639  12.080   7.259 -0.1410 -0.0833  0.1193
  390loPI   C6A 6236   1.958  11.837   7.382  0.2771 -0.1152 -0.1433
  390loPI   C1B 6237   0.971  11.880   8.331 -0.1342 -0.1740 -0.0040
  390loPI   C2B 6238   1.153  11.858   7.984 -0.3312 -0.0764 -0.1368
  390loPI   C3B 6239   1.263  11.736   7.600 -0.1772 -0.1408 -0.1412
  390loPI   C4B 6240   1.111  11.614   7.211  0.2512  0.0602 -0.0275
  391loPI    C1 6241  19.833  19.880  10.033 -0.2052 -0.1199 -0.0404
  391loPI    C2 6242  19.722  20.095  10.351  0.3351  0.2725 -0.1027
  391loPI    C3 6243  19.855  19.721  10.399 -0.4574 -0.0137  0.0231
  391loPI   PO4 6244  19.574  19.827   9.819 -0.0752 -0.5246 -0.0597
  391loPI   GL1 6245  19.456  19.608   9.376 -0.3659 -0.0297  0.0612
  391loPI   GL2 6246  19.203  19.475   9.354 -0.1928 -0.3814  0.3981
  391loPI   C1A 6247  19.548  19.852   9.027 -0.0053 -0.0110 -0.0318
  391loPI   C2A 6248  19.484  19.813   8.635  0.0608 -0.2379 -0.0341
  391loPI   C3A 6249  19.516  19.704   8.197  0.0863 -0.4064 -0.1539
  391loPI   C4A 6250  19.270  19.652   7.896 -0.2439 -0.2385 -0.2355
  391loPI   C5A 6251  19.089  19.392   7.569 -0.2607  0.3497 -0.0437
  391loPI   C6A 6252  19.183  19.225   7.234 -0.1130 -0.2192  0.2636
  391loPI   C1B 6253  19.429  19.346   8.964  0.2961  0.2086  0.0465
  391loPI   C2B 6254  19.518  19.304   8.541  0.2558 -0.2938 -0.3263
  391loPI   C3B 6255  19.350  19.221   8.113  0.4852  0.0558 -0.0709
  391loPI   C4B 6256  19.538  19.113   7.640  0.3131 -0.1777 -0.4602
  392loPI    C1 6257  10.596   4.562   9.568 -0.1170 -0.0844 -0.1508
  392loPI    C2 6258  10.669   4.169   9.579  0.0153 -0.0585 -0.0775
  392loPI    C3 6259  10.403   4.330   9.830 -0.0699 -0.1071 -0.1360
  392loPI   PO4 6260  10.473   4.599   9.312  0.0999 -0.0168  0.0710
  392loPI   GL1 6261  10.571   4.469   8.848 -0.3481  0.2620  0.0267
  392loPI   GL2 6262  10.386   4.178   8.987 -0.1165 -0.0398 -0.1188
  392loPI   C1A 6263  10.378   4.904   8.662 -0.1282  0.1387  0.1837
  392loPI   C2A 6264  10.213   4.948   8.135 -0.1534  0.0660  0.1232
  392loPI   C3A 6265   9.986   4.910   7.792  0.4130  0.1028  0.1891
  392loPI   C4A 6266  10.008   4.697   7.397  0.0088  0.0278 -0.1074
  392loPI   C5A 6267  10.279   4.388   7.212 -0.0387  0.0812  0.2632
  392loPI   C6A 6268  10.549   4.313   6.964  0.1526  0.1301  0.0927
  392loPI   C1B 6269  10.433   3.947   8.562  0.0770  0.3049 -0.2969
  392loPI   C2B 6270  10.263   3.971   8.141 -0.1883  0.0306 -0.1902
  392loPI   C3B 6271  10.210   3.900   7.756 -0.1429  0.1042 -0.1398
  392loPI   C4B 6272   9.984   4.209   7.529 -0.0162 -0.0274 -0.1464
  393loPI    C1 6273  13.343   0.445   9.225 -0.0613  0.2388 -0.1853
  393loPI    C2 6274  13.235   0.495   9.607  0.1508  0.1239 -0.1088
  393loPI    C3 6275  13.616   0.545   9.499  0.1273 -0.0344 -0.2702
  393loPI   PO4 6276  13.145   0.633   9.105  0.0884 -0.0747 -0.2037
  393loPI   GL1 6277  13.089   0.476   8.700  0.0738 -0.0395 -0.2898
  393loPI   GL2 6278  13.171   0.779   8.524 -0.1291  0.1382  0.1194
  393loPI   C1A 6279  13.491   0.432   8.420  0.3055  0.1985  0.2965
  393loPI   C2A 6280  13.582   0.257   7.967 -0.3978  0.0442 -0.0431
  393loPI   C3A 6281  13.561   0.239   7.516 -0.1860 -0.1454 -0.2302
  393loPI   C4A 6282  13.942   0.393   7.159  0.0138  0.0024  0.0300
  393loPI   C5A 6283  13.942   0.780   6.816 -0.0064 -0.1491 -0.0140
  393loPI   C6A 6284  13.905   1.077   6.485  0.1069 -0.1139  0.1640
  393loPI   C1B 6285  13.520   1.020   8.386 -0.0945  0.0840 -0.0683
  393loPI   C2B 6286  13.573   1.265   8.052 -0.1822  0.0350  0.3187
  393loPI   C3B 6287  13.713   1.260   7.629 -0.0748 -0.0392 -0.1277
  393loPI   C4B 6288  13.415   1.214   7.268  0.5871 -0.1366 -0.1969
  394loPI    C1 6289   5.511   3.617   9.938  0.0448 -0.3745  0.1043
  394loPI    C2 6290   5.788   3.669   9.654 -0.0975 -0.0649  0.0186
  394loPI    C3 6291   5.879   3.738  10.038 -0.1893  0.5450 -0.0593
  394loPI   PO4 6292   5.301   3.721   9.789  0.1371  0.2049 -0.2759
  394loPI   GL1 6293   5.364   3.636   9.287  0.3554  0.1583 -0.1364
  394loPI   GL2 6294   5.163   3.384   9.141 -0.0405 -0.0336 -0.0515
  394loPI   C1A 6295   5.556   3.657   8.994  0.0265 -0.2453  0.4442
  394loPI   C2A 6296   5.601   3.636   8.514 -0.1723  0.0330  0.3502
  394loPI   C3A 6297   5.391   3.482   8.136 -0.1813 -0.4180  0.1700
  394loPI   C4A 6298   5.183   3.403   7.694 -0.0116 -0.0011 -0.0533
  394loPI   C5A 6299   4.991   3.252   7.306  0.1253 -0.2283  0.1604
  394loPI   C6A 6300   4.970   2.990   6.971  0.0045 -0.1170 -0.0770
  394loPI   C1B 6301   5.152   3.584   8.742 -0.2554 -0.0033  0.2032
  394loPI   C2B 6302   4.882   3.510   8.434  0.1824 -0.2026  0.2629
  394loPI   C3B 6303   4.398   3.421   8.458 -0.3253 -0.0310 -0.2233
  394loPI   C4B 6304   4.179   3.735   8.397  0.0921  0.4776 -0.0479
  395loPI    C1 6305  15.850  16.402   9.271 -0.0567 -0.0162  0.0576
  395loPI    C2 6306  15.613  16.458   9.588 -0.2068 -0.1095 -0.0368
  395loPI    C3 6307  15.886  16.165   9.591  0.0596  0.1356  0.1580
  395loPI   PO4 6308  15.925  16.519   9.199  0.3268 -0.1715  0.1538
  395loPI   GL1 6309  16.034  16.555   8.798  0.2223  0.3824  0.0165
  395loPI   GL2 6310  16.310  16.532   8.700 -0.0808  0.0674 -0.2346
  395loPI   C1A 6311  15.853  16.280   8.440  0.1866 -0.1103 -0.0298
  395loPI   C2A 6312  15.709  16.291   8.033 -0.0129  0.1430 -0.0221
  395loPI   C3A 6313  15.567  16.197   7.601  0.2631 -0.0847  0.1203
  395loPI   C4A 6314  15.421  16.233   7.117  0.0613 -0.3078  0.1440
  395loPI   C5A 6315  15.629  16.005   6.717  0.2776  0.1052  0.0902
  395loPI   C6A 6316  15.620  15.628   6.473 -0.0759  0.0675 -0.1984
  395loPI   C1B 6317  16.252  16.620   8.302 -0.3170  0.1462  0.1146
  395loPI   C2B 6318  16.262  16.614   7.927 -0.0933  0.0998 -0.1860
  395loPI   C3B 6319  16.374  16.799   7.481  0.4676  0.2775 -0.0359
  395loPI   C4B 6320  16.510  17.062   7.112  0.2072 -0.0662 -0.1451
  396loPI    C1 6321   8.808   2.735   9.652 -0.2997  0.0494  0.2106
  396loPI    C2 6322   8.983   2.821  10.001  0.0140  0.0089  0.0675
  396loPI    C3 6323   8.780   2.479   9.958  0.0499 -0.0273  0.1826
  396loPI   PO4 6324   8.934   2.786   9.511 -0.2166  0.5686  0.1645
  396loPI   GL1 6325   9.034   2.533   9.077  0.1357  0.2331 -0.1687
  396loPI   GL2 6326   9.417   2.469   9.008  0.0439 -0.1319  0.1730
  396loPI   C1A 6327   8.682   2.383   8.888 -0.2030  0.1106  0.2892
  396loPI   C2A 6328   8.286   2.110   8.752 -0.2348 -0.2401  0.0047
  396loPI   C3A 6329   8.130   2.031   8.294 -0.1700 -0.1536  0.1498
  396loPI   C4A 6330   8.081   1.837   7.899  0.2069  0.1436  0.1364
  396loPI   C5A 6331   8.224   1.935   7.512 -0.0722  0.2192 -0.1749
  396loPI   C6A 6332   8.319   2.157   7.161 -0.1845  0.0495  0.2398
  396loPI   C1B 6333   9.327   2.402   8.638 -0.0342  0.0018  0.1850
  396loPI   C2B 6334   9.067   2.281   8.387  0.2411 -0.2475  0.3635
  396loPI   C3B 6335   8.705   2.032   8.398 -0.0139 -0.1779  0.0559
  396loPI   C4B 6336   8.521   1.916   7.958 -0.0100  0.0086  0.4242
  397loPI    C1 6337   2.663   2.666   9.964  0.0318 -0.0466  0.0240
  397loPI    C2 6338   2.921   2.364   9.916  0.1735  0.0409  0.2168
  397loPI    C3 6339   2.532   2.288   9.974  0.1715 -0.0955  0.0353
  397loPI   PO4 6340   2.713   2.782   9.723  0.2575  0.0139 -0.4174
  397loPI   GL1 6341   2.713   3.000   9.347  0.0025  0.1153 -0.0411
  397loPI   GL2 6342   2.991   2.949   9.252  0.2266  0.0644 -0.3445
  397loPI   C1A 6343   2.562   2.731   9.007  0.0527  0.0549 -0.0533
  397loPI   C2A 6344   2.389   2.399   8.768  0.0529 -0.1518  0.1423
  397loPI   C3A 6345   2.263   2.138   8.424  0.0805  0.2840  0.4128
  397loPI   C4A 6346   2.220   2.181   7.972  0.5640  0.0878  0.2874
  397loPI   C5A 6347   2.250   2.062   7.536  0.0457 -0.0371 -0.2081
  397loPI   C6A 6348   2.113   1.759   7.149 -0.2929 -0.2115 -0.0403
  397loPI   C1B 6349   2.962   2.929   8.738  0.0092  0.1431 -0.1337
  397loPI   C2B 6350   2.950   2.894   8.321  0.1870  0.0678  0.1706
  397loPI   C3B 6351   2.794   2.707   8.109 -0.0618 -0.1152 -0.1093
  397loPI   C4B 6352   2.764   2.641   7.633 -0.0062  0.0555 -0.4938
  398loPI    C1 6353   7.334  10.993   9.882  0.1025 -0.2326  0.1243
  398loPI    C2 6354   7.492  11.237  10.157 -0.2013  0.1858 -0.0623
  398loPI    C3 6355   7.152  11.043  10.235 -0.1439  0.0921 -0.0439
  398loPI   PO4 6356   7.515  11.041   9.696  0.1569 -0.0743  0.0821
  398loPI   GL1 6357   7.401  11.222   9.241  0.2039 -0.1456  0.0197
  398loPI   GL2 6358   7.138  11.179   9.151 -0.0701  0.1374  0.1927
  398loPI   C1A 6359   7.516  11.381   8.865  0.0469  0.0459 -0.1395
  398loPI   C2A 6360   7.519  11.423   8.476  0.1388 -0.1951  0.4374
  398loPI   C3A 6361   7.178  11.542   8.192 -0.2272  0.0656 -0.0979
  398loPI   C4A 6362   7.051  11.924   8.119  0.3352  0.1760  0.0156
  398loPI   C5A 6363   7.075  12.388   7.969 -0.2222 -0.0820 -0.0285
  398loPI   C6A 6364   7.175  12.777   8.001 -0.0133 -0.0442  0.0898
  398loPI   C1B 6365   7.068  11.265   8.692 -0.0626  0.1435 -0.0811
  398loPI   C2B 6366   7.189  11.030   8.353 -0.0829 -0.1121 -0.1120
  398loPI   C3B 6367   7.564  10.813   8.192 -0.1414 -0.0568  0.0110
  398loPI   C4B 6368   7.733  10.530   8.499 -0.0538  0.3838 -0.2035
  399loPI    C1 6369   5.913   0.393  10.052 -0.0091  0.0800 -0.0976
  399loPI    C2 6370   5.663   0.649  10.232  0.0291  0.0650 -0.0225
  399loPI    C3 6371   5.885   0.399  10.451  0.0302  0.0032 -0.0935
  399loPI   PO4 6372   5.886   0.486   9.812  0.1593  0.1464  0.1191
  399loPI   GL1 6373   5.822   0.406   9.372 -0.1045  0.0963 -0.3514
  399loPI   GL2 6374   5.902   0.148   9.230 -0.1697  0.4865 -0.1224
  399loPI   C1A 6375   5.829   0.647   9.002  0.0695 -0.2058 -0.2190
  399loPI   C2A 6376   5.893   0.698   8.551 -0.0199  0.3878  0.0711
  399loPI   C3A 6377   5.955   0.734   8.150  0.1455 -0.0780 -0.0135
  399loPI   C4A 6378   5.955   0.821   7.746  0.3838  0.1039  0.3504
  399loPI   C5A 6379   5.895   0.648   7.329 -0.2812 -0.1993  0.0111
  399loPI   C6A 6380   5.729   0.679   6.985  0.0612 -0.0427 -0.1502
  399loPI   C1B 6381   5.863   0.155   8.778 -0.0686  0.0390  0.3458
  399loPI   C2B 6382   5.683   0.321   8.329  0.1085  0.3792 -0.0291
  399loPI   C3B 6383   5.329   0.629   8.092 -0.1855  0.1746  0.1528
  399loPI   C4B 6384   5.332   0.923   7.846 -0.1527  0.1888 -0.1682
  400loPI    C1 6385  12.991   8.193   9.416  0.0552  0.0775 -0.0706
  400loPI    C2 6386  13.270   8.298   9.149 -0.0646  0.1201 -0.1802
  400loPI    C3 6387  13.372   8.237   9.531  0.1001  0.1032 -0.2259
  400loPI   PO4 6388  12.913   7.934   9.326  0.0659  0.3697 -0.1581
  400loPI   GL1 6389  12.971   7.887   9.000 -0.0482  0.0445  0.0366
  400loPI   GL2 6390  12.720   7.762   8.819 -0.0472  0.1006 -0.1341
  400loPI   C1A 6391  13.133   8.081   8.670 -0.1241 -0.1308 -0.1101
  400loPI   C2A 6392  13.270   7.953   8.312 -0.1166  0.1142 -0.0707
  400loPI   C3A 6393  13.506   7.971   7.991  0.2503  0.3046  0.1378
  400loPI   C4A 6394  13.617   7.806   7.582  0.0479 -0.0991  0.0972
  400loPI   C5A 6395  13.566   7.757   7.132 -0.1100 -0.1029 -0.4320
  400loPI   C6A 6396  13.455   7.889   6.740 -0.0889 -0.0513 -0.2517
  400loPI   C1B 6397  12.823   7.641   8.529  0.4047 -0.0715  0.1307
  400loPI   C2B 6398  12.839   7.785   8.122 -0.3817 -0.0706  0.0036
  400loPI   C3B 6399  12.710   7.772   7.758 -0.1655 -0.0144  0.3006
  400loPI   C4B 6400  12.754   7.953   7.396  0.3801 -0.4511 -0.1149
  401loPI    C1 6401  18.238  12.723   9.013 -0.0597  0.0334 -0.1236
  401loPI    C2 6402  18.383  13.023   9.235 -0.0690 -0.0167 -0.0495
  401loPI    C3 6403  18.152  12.743   9.403 -0.0358 -0.0822 -0.1120
  401loPI   PO4 6404  18.357  12.680   8.850  0.0079  0.1647  0.2155
  401loPI   GL1 6405  18.540  12.862   8.588  0.3133  0.0926 -0.0389
  401loPI   GL2 6406  18.773  12.641   8.605 -0.0661  0.0253 -0.2393
  401loPI   C1A 6407  18.661  12.883   8.182  0.1429 -0.0814 -0.0161
  401loPI   C2A 6408  18.953  12.878   7.895 -0.1123  0.0212  0.1546
  401loPI   C3A 6409  19.313  13.040   7.668 -0.2435 -0.1047 -0.1709
  401loPI   C4A 6410  19.511  13.254   7.278  0.1875 -0.0732 -0.2119
  401loPI   C5A 6411  19.811  13.545   7.065 -0.0813 -0.2142 -0.0530
  401loPI   C6A 6412  19.773  13.784   6.692 -0.0025 -0.1808  0.2311
  401loPI   C1B 6413  19.005  12.594   8.305  0.0118 -0.0175 -0.0192
  401loPI   C2B 6414  19.371  12.581   8.019  0.1038  0.2034 -0.0001
  401loPI   C3B 6415  19.625  12.594   7.648  0.0029 -0.2275  0.1753
  401loPI   C4B 6416  19.516  12.726   7.298  0.0327 -0.3755 -0.3358
  402loPI    C1 6417  16.781   6.128   9.248 -0.0535  0.0038  0.0128
  402loPI    C2 6418  16.591   6.250   8.919  0.1493 -0.1469 -0.1630
  402loPI    C3 6419  16.573   6.469   9.253  0.0680  0.0857 -0.3174
  402loPI   PO4 6420  16.723   5.802   9.199  0.0012  0.1408  0.2063
  402loPI   GL1 6421  16.652   5.491   8.879  0.0979 -0.0462  0.0718
  402loPI   GL2 6422  16.364   5.338   8.687  0.0163  0.1638 -0.0758
  402loPI   C1A 6423  16.742   5.587   8.461 -0.0367  0.2386 -0.0084
  402loPI   C2A 6424  16.615   5.216   8.175  0.4560 -0.1493  0.0569
  402loPI   C3A 6425  16.475   5.390   7.846  0.3602  0.0350  0.0637
  402loPI   C4A 6426  16.565   5.623   7.524 -0.2093 -0.0959 -0.2534
  402loPI   C5A 6427  16.904   5.716   7.382 -0.0461 -0.2877  0.5207
  402loPI   C6A 6428  17.285   5.409   7.323  0.2248  0.1446 -0.2561
  402loPI   C1B 6429  16.181   5.323   8.390  0.1198 -0.2500 -0.3053
  402loPI   C2B 6430  15.933   5.441   8.034 -0.0616  0.1077 -0.0768
  402loPI   C3B 6431  16.029   5.537   7.608 -0.1403  0.4131 -0.1862
  402loPI   C4B 6432  16.221   5.354   7.150 -0.1805 -0.0569 -0.1313
  403loPI    C1 6433  19.407  12.015   8.955 -0.1533 -0.0495 -0.0644
  403loPI    C2 6434  19.291  11.658   9.093 -0.2879  0.0017 -0.0436
  403loPI    C3 6435  19.424  11.937   9.347 -0.3559  0.0297 -0.0386
  403loPI   PO4 6436  19.512  12.013   8.786 -0.0240  0.2345  0.0701
  403loPI   GL1 6437  19.391  11.825   8.452 -0.0895  0.1331 -0.2946
  403loPI   GL2 6438  19.348  12.133   8.303  0.0285  0.1621  0.0367
  403loPI   C1A 6439  19.561  11.679   7.981 -0.0400  0.0981 -0.0586
  403loPI   C2A 6440  19.709  11.649   7.605 -0.1167 -0.1386 -0.0268
  403loPI   C3A 6441  20.060  11.649   7.328 -0.2914 -0.1302 -0.1700
  403loPI   C4A 6442  20.168  11.922   7.009 -0.1745 -0.1281 -0.0895
  403loPI   C5A 6443  20.530  12.035   6.706 -0.2255 -0.0319 -0.0203
  403loPI   C6A 6444  21.000  12.007   6.482 -0.1140 -0.0071 -0.0435
  403loPI   C1B 6445  19.466  12.131   7.782  0.5258  0.0604 -0.0560
  403loPI   C2B 6446  19.775  12.154   7.501 -0.0110  0.0588  0.0314
  403loPI   C3B 6447  19.848  12.290   7.075  0.0935 -0.0014 -0.1727
  403loPI   C4B 6448  19.968  12.368   6.693 -0.1602  0.3393 -0.3050
  404loPI    C1 6449   8.419  16.247   9.659 -0.2420 -0.0419 -0.0891
  404loPI    C2 6450   8.657  16.024   9.891 -0.2104  0.4473  0.3706
  404loPI    C3 6451   8.260  15.998   9.928 -0.2390 -0.1245 -0.1635
  404loPI   PO4 6452   8.541  16.245   9.374  0.0771  0.0892  0.0873
  404loPI   GL1 6453   8.375  16.341   8.967 -0.0023  0.2553 -0.1022
  404loPI   GL2 6454   8.137  16.084   8.977 -0.0814 -0.1787  0.1344
  404loPI   C1A 6455   8.210  16.245   8.490  0.0484  0.1936 -0.0136
  404loPI   C2A 6456   8.221  16.276   7.984  0.3544  0.0111  0.0648
  404loPI   C3A 6457   8.641  16.344   7.659  0.0910  0.0502 -0.3308
  404loPI   C4A 6458   8.985  16.269   7.488 -0.2398  0.2071 -0.3082
  404loPI   C5A 6459   9.421  16.132   7.441 -0.0746  0.3111  0.3790
  404loPI   C6A 6460   9.868  15.740   7.403  0.2386  0.0162  0.1552
  404loPI   C1B 6461   7.873  15.919   8.738  0.0188  0.0844  0.1747
  404loPI   C2B 6462   7.553  15.963   8.465  0.0497  0.0780  0.1539
  404loPI   C3B 6463   7.376  15.863   8.083  0.1822 -0.2743 -0.0673
  404loPI   C4B 6464   7.219  15.804   7.717  0.0006 -0.0286  0.3851
  405loPI    C1 6465   0.258   5.889   9.726 -0.0147  0.3120  0.0865
  405loPI    C2 6466   0.281   5.607  10.009 -0.2261  0.1166 -0.0872
  405loPI    C3 6467   0.609   5.806   9.898 -0.0339 -0.2040 -0.1055
  405loPI   PO4 6468   0.044   5.765   9.592  0.1326  0.3434 -0.2854
  405loPI   GL1 6469  -0.077   5.932   9.227 -0.0333  0.4882 -0.1831
  405loPI   GL2 6470  -0.298   5.765   9.098  0.2868  0.1584  0.0690
  405loPI   C1A 6471  -0.034   6.086   8.805  0.2689 -0.0380 -0.2049
  405loPI   C2A 6472  -0.150   5.973   8.372  0.2168  0.0563 -0.2303
  405loPI   C3A 6473  -0.152   5.423   8.328  0.1775 -0.2807  0.0081
  405loPI   C4A 6474  -0.331   5.187   7.992 -0.3752  0.0186 -0.2221
  405loPI   C5A 6475  -0.349   5.168   7.551  0.2706 -0.0183  0.0058
  405loPI   C6A 6476  -0.496   4.823   7.354 -0.1422  0.0777 -0.1024
  405loPI   C1B 6477  -0.019   5.536   8.821 -0.2053 -0.0653  0.1066
  405loPI   C2B 6478   0.325   5.784   8.561 -0.0459  0.0223 -0.1009
  405loPI   C3B 6479   0.315   5.881   8.037 -0.2268 -0.4071  0.1336
  405loPI   C4B 6480   0.348   5.817   7.602 -0.1658  0.3304 -0.0395
  406loPI    C1 6481  13.696  17.837   9.199 -0.0262 -0.2520  0.1590
  406loPI    C2 6482  13.482  17.976   9.508  0.0294  0.0323  0.0731
  406loPI    C3 6483  13.863  17.866   9.561 -0.0166 -0.0958  0.1429
  406loPI   PO4 6484  13.744  18.073   8.930  0.2384  0.1314 -0.0060
  406loPI   GL1 6485  13.914  18.226   8.492  0.0261  0.1207  0.0407
  406loPI   GL2 6486  14.337  18.137   8.328  0.2093 -0.0595  0.0698
  406loPI   C1A 6487  13.908  18.063   8.103  0.0711 -0.1322  0.0755
  406loPI   C2A 6488  13.815  17.986   7.697  0.2645  0.4869 -0.1775
  406loPI   C3A 6489  13.813  18.188   7.334 -0.1191  0.1897  0.1759
  406loPI   C4A 6490  13.569  18.576   7.203 -0.2547 -0.1538 -0.2163
  406loPI   C5A 6491  13.340  18.937   7.163  0.0619  0.2133  0.0766
  406loPI   C6A 6492  13.340  19.289   7.412 -0.0152  0.0097  0.0333
  406loPI   C1B 6493  14.236  18.274   7.824 -0.0136  0.1178 -0.0886
  406loPI   C2B 6494  14.272  18.041   7.451  0.1775 -0.2699 -0.0952
  406loPI   C3B 6495  14.434  18.059   7.138 -0.0273 -0.0768  0.4212
  406loPI   C4B 6496  14.495  17.790   6.733 -0.0742  0.1197  0.1880
  407loPI    C1 6497  13.270   8.888   9.572 -0.0739 -0.0082  0.0729
  407loPI    C2 6498  13.209   9.166   9.290 -0.0871 -0.0107  0.0733
  407loPI    C3 6499  13.193   9.267   9.677  0.0202  0.0113  0.0724
  407loPI   PO4 6500  13.126   8.690   9.390  0.1125  0.1764  0.1806
  407loPI   GL1 6501  12.843   8.477   8.990  0.1752 -0.0104 -0.2885
  407loPI   GL2 6502  12.586   8.271   8.935  0.1510  0.0535  0.0937
  407loPI   C1A 6503  13.010   8.648   8.630 -0.1167  0.3053  0.1413
  407loPI   C2A 6504  12.895   8.355   8.225  0.1778 -0.0162  0.4759
  407loPI   C3A 6505  13.084   8.169   7.857  0.1335 -0.1195  0.0888
  407loPI   C4A 6506  13.410   8.221   7.605 -0.1405 -0.0303 -0.1437
  407loPI   C5A 6507  13.479   8.596   7.297 -0.0357  0.0363 -0.3482
  407loPI   C6A 6508  13.728   8.552   6.818 -0.0006 -0.1418  0.1725
  407loPI   C1B 6509  12.479   8.209   8.515  0.2437 -0.1346 -0.2936
  407loPI   C2B 6510  12.472   8.153   8.003 -0.4407 -0.3085 -0.2136
  407loPI   C3B 6511  12.403   8.316   7.541  0.0241  0.0536  0.0248
  407loPI   C4B 6512  12.431   8.708   7.426 -0.4156 -0.0728  0.1042
  408loPI    C1 6513  16.795  15.894   9.248  0.2759  0.1519 -0.1394
  408loPI    C2 6514  17.099  15.992   9.488 -0.1647  0.4338  0.3230
  408loPI    C3 6515  16.820  15.735   9.615 -0.2185  0.3147 -0.0276
  408loPI   PO4 6516  16.927  15.708   9.067 -0.1113 -0.2080  0.0422
  408loPI   GL1 6517  17.250  15.685   8.753 -0.1981 -0.1806 -0.4090
  408loPI   GL2 6518  17.610  15.524   8.907  0.1340  0.1040 -0.0505
  408loPI   C1A 6519  17.172  15.827   8.371  0.3713  0.0255  0.2943
  408loPI   C2A 6520  17.137  16.162   8.074  0.0207 -0.0346  0.0916
  408loPI   C3A 6521  17.158  16.109   7.669  0.0553  0.0489 -0.1849
  408loPI   C4A 6522  17.192  16.250   7.293 -0.0805 -0.2206  0.1759
  408loPI   C5A 6523  17.506  16.312   6.994  0.2552  0.0485  0.0542
  408loPI   C6A 6524  17.678  16.685   6.771  0.0476  0.0290 -0.0996
  408loPI   C1B 6525  17.992  15.375   8.678 -0.1917  0.1159  0.0803
  408loPI   C2B 6526  18.174  15.319   8.256  0.2288  0.0141 -0.1396
  408loPI   C3B 6527  18.200  15.440   7.650  0.2237 -0.4420 -0.1522
  408loPI   C4B 6528  18.053  15.596   7.286 -0.0562 -0.0713  0.1397
  409loPI    C1 6529  12.402  15.690   9.345 -0.0159  0.1097 -0.0226
  409loPI    C2 6530  12.172  15.486   9.601  0.0228  0.1384  0.0353
  409loPI    C3 6531  12.456  15.296   9.393 -0.1292  0.0813 -0.1223
  409loPI   PO4 6532  12.218  15.774   9.076 -0.1338  0.0948  0.0396
  409loPI   GL1 6533  12.104  15.972   8.754  0.1696 -0.1346 -0.2611
  409loPI   GL2 6534  12.194  15.909   8.532  0.0492  0.0466 -0.4298
  409loPI   C1A 6535  11.918  16.468   8.656  0.0378 -0.1570 -0.3503
  409loPI   C2A 6536  11.685  16.653   8.285  0.0855  0.2783 -0.1509
  409loPI   C3A 6537  11.599  16.804   8.011  0.1549 -0.0506  0.2178
  409loPI   C4A 6538  11.547  16.746   7.522  0.0059  0.2228  0.2307
  409loPI   C5A 6539  11.717  16.902   7.196  0.1435 -0.1804 -0.1916
  409loPI   C6A 6540  12.045  16.902   6.981 -0.2232 -0.1786  0.1797
  409loPI   C1B 6541  11.986  15.940   8.184  0.2102  0.2347  0.1249
  409loPI   C2B 6542  11.775  15.751   7.856 -0.1333  0.0370 -0.2031
  409loPI   C3B 6543  11.764  15.743   7.375 -0.1101  0.0485 -0.0355
  409loPI   C4B 6544  11.984  15.877   7.038 -0.0091  0.1246 -0.0370
  410loPI    C1 6545  15.631  12.009   8.868 -0.1423  0.1458  0.0019
  410loPI    C2 6546  15.615  11.623   8.764  0.0280  0.1819 -0.1633
  410loPI    C3 6547  15.458  11.743   9.112 -0.0751 -0.0265 -0.1364
  410loPI   PO4 6548  15.568  12.115   8.655 -0.0000 -0.1573 -0.0033
  410loPI   GL1 6549  15.321  12.123   8.327  0.4113 -0.1466  0.1412
  410loPI   GL2 6550  15.515  11.819   8.273 -0.2493  0.2128  0.0566
  410loPI   C1A 6551  15.635  12.344   8.066 -0.0566 -0.0908  0.1364
  410loPI   C2A 6552  15.636  12.604   7.632 -0.3910  0.0968  0.1131
  410loPI   C3A 6553  15.645  12.533   7.206 -0.1908  0.0516  0.3437
  410loPI   C4A 6554  15.853  12.347   6.738  0.0682 -0.1146  0.1817
  410loPI   C5A 6555  15.763  12.158   6.295 -0.0996  0.2045 -0.2025
  410loPI   C6A 6556  15.970  11.967   5.913 -0.0886 -0.2270 -0.2443
  410loPI   C1B 6557  15.198  11.698   8.090 -0.0378  0.0916 -0.1194
  410loPI   C2B 6558  15.197  11.698   7.749 -0.0659 -0.0642 -0.1138
  410loPI   C3B 6559  15.329  11.689   7.369 -0.2664  0.0175 -0.2041
  410loPI   C4B 6560  15.147  11.996   7.086  0.3461  0.0508 -0.0794
  411loPI    C1 6561  17.462   1.754   9.431  0.1070 -0.0907  0.1380
  411loPI    C2 6562  17.832   1.900   9.396 -0.0115  0.1453 -0.1708
  411loPI    C3 6563  17.600   2.016   9.700  0.0928  0.1610 -0.0965
  411loPI   PO4 6564  17.313   1.831   9.168  0.3538  0.0555  0.1137
  411loPI   GL1 6565  17.342   2.066   8.719  0.1872 -0.0945  0.0676
  411loPI   GL2 6566  17.159   1.812   8.695 -0.2610  0.0072  0.1027
  411loPI   C1A 6567  17.620   1.925   8.453  0.2411  0.4031  0.4153
  411loPI   C2A 6568  17.810   1.968   8.031  0.1437  0.0853  0.0223
  411loPI   C3A 6569  17.691   2.020   7.612  0.2204  0.0757 -0.0904
  411loPI   C4A 6570  17.572   1.815   7.327  0.0039  0.0207  0.1678
  411loPI   C5A 6571  17.474   1.404   7.371  0.1077 -0.0327 -0.1699
  411loPI   C6A 6572  17.811   1.155   7.452 -0.3464 -0.1404  0.0069
  411loPI   C1B 6573  17.082   2.075   8.314  0.3058  0.0037 -0.1285
  411loPI   C2B 6574  17.298   1.872   7.896  0.1283 -0.0931  0.2315
  411loPI   C3B 6575  17.042   1.652   7.607 -0.1046 -0.1161  0.0733
  411loPI   C4B 6576  16.988   1.429   7.318  0.2481  0.2567 -0.2054
  412loPI    C1 6577   3.754  19.147  10.295 -0.1134 -0.1036  0.2113
  412loPI    C2 6578   3.539  19.364  10.553 -0.0440  0.0333  0.1551
  412loPI    C3 6579   3.931  19.430  10.515 -0.0503 -0.0003  0.0293
  412loPI   PO4 6580   3.619  19.225  10.065  0.3104 -0.1595  0.0547
  412loPI   GL1 6581   3.662  18.999   9.727  0.1889  0.1342  0.0793
  412loPI   GL2 6582   3.938  19.056   9.639 -0.2753  0.1108 -0.0365
  412loPI   C1A 6583   3.479  19.172   9.446  0.2230  0.2614 -0.1811
  412loPI   C2A 6584   3.337  19.069   9.127 -0.1902  0.1520 -0.1799
  412loPI   C3A 6585   3.418  19.127   8.686  0.1430  0.1172  0.2860
  412loPI   C4A 6586   3.290  19.021   8.304 -0.0609 -0.0824  0.2817
  412loPI   C5A 6587   3.091  18.970   7.811 -0.0666 -0.2369  0.0329
  412loPI   C6A 6588   3.100  18.838   7.354  0.0573  0.1434 -0.0468
  412loPI   C1B 6589   4.155  19.351   9.254 -0.4203 -0.1434  0.1927
  412loPI   C2B 6590   4.565  19.505   9.196  0.1456 -0.0249 -0.0119
  412loPI   C3B 6591   4.765  19.711   8.857 -0.2091  0.2039 -0.1460
  412loPI   C4B 6592   4.876  19.801   8.495  0.0012  0.0023  0.0716
  413loPI    C1 6593  17.298  18.295   9.261  0.1347 -0.2197 -0.0006
  413loPI    C2 6594  17.469  18.436   9.593  0.0453 -0.0452 -0.0276
  413loPI    C3 6595  17.083  18.332   9.596  0.0202  0.0440 -0.1000
  413loPI   PO4 6596  17.340  18.441   9.047  0.3268 -0.2620 -0.1206
  413loPI   GL1 6597  17.528  18.794   8.758 -0.0351 -0.1317 -0.0976
  413loPI   GL2 6598  17.407  19.062   8.587  0.4861 -0.0206  0.0848
  413loPI   C1A 6599  17.314  18.593   8.341  0.1218  0.2245  0.1344
  413loPI   C2A 6600  17.437  18.609   7.970 -0.1540 -0.2178  0.2858
  413loPI   C3A 6601  17.419  18.323   7.636  0.0101 -0.0418  0.1957
  413loPI   C4A 6602  17.501  18.140   7.255 -0.1550  0.0192 -0.0113
  413loPI   C5A 6603  17.579  17.702   7.102 -0.2257  0.2063  0.1311
  413loPI   C6A 6604  17.319  17.564   6.852  0.2562  0.3085 -0.0073
  413loPI   C1B 6605  17.405  19.218   8.143 -0.2546  0.0969  0.2312
  413loPI   C2B 6606  17.472  19.087   7.742  0.0375 -0.2823  0.0034
  413loPI   C3B 6607  17.861  19.175   7.629 -0.2432  0.1202  0.2760
  413loPI   C4B 6608  18.298  19.285   7.527 -0.2046  0.2570 -0.0695
  414loPI    C1 6609  10.374   9.085   9.769  0.0811  0.1099  0.0972
  414loPI    C2 6610  10.265   9.243  10.120  0.0022  0.1109  0.0727
  414loPI    C3 6611  10.023   8.986   9.933  0.0168  0.1574 -0.0106
  414loPI   PO4 6612  10.648   9.223   9.739 -0.2803  0.1478 -0.0008
  414loPI   GL1 6613  10.724   9.371   9.439  0.0085  0.0279  0.2687
  414loPI   GL2 6614  11.020   9.251   9.280 -0.2325 -0.3989 -0.3914
  414loPI   C1A 6615  10.587   9.520   9.043  0.0655 -0.0397  0.1301
  414loPI   C2A 6616  10.611   9.726   8.656 -0.1158 -0.0937  0.1312
  414loPI   C3A 6617  10.444   9.745   8.232  0.3335 -0.3137 -0.1455
  414loPI   C4A 6618  10.574   9.543   7.922  0.1677  0.2758  0.0950
  414loPI   C5A 6619  10.987   9.617   7.574 -0.0310 -0.0311  0.0378
  414loPI   C6A 6620  11.400   9.540   7.274 -0.0561 -0.2102 -0.1177
  414loPI   C1B 6621  11.089   9.152   8.874 -0.1962 -0.4089 -0.2584
  414loPI   C2B 6622  11.092   8.941   8.411  0.0319  0.2715 -0.2938
  414loPI   C3B 6623  11.139   8.692   8.048 -0.0439  0.1004 -0.0580
  414loPI   C4B 6624  11.109   8.659   7.673  0.1043 -0.3574  0.1267
  415loPI    C1 6625  13.045  12.084   9.605 -0.1039 -0.0789 -0.3836
  415loPI    C2 6626  12.845  12.411   9.716 -0.1249 -0.1375 -0.2474
  415loPI    C3 6627  12.647  12.072   9.641 -0.0547 -0.2872  0.2087
  415loPI   PO4 6628  13.174  12.172   9.346 -0.3016 -0.1676  0.0589
  415loPI   GL1 6629  13.042  11.978   8.886 -0.1100  0.0259 -0.1228
  415loPI   GL2 6630  12.743  11.880   9.164  0.0083  0.0571 -0.2331
  415loPI   C1A 6631  12.953  11.718   8.455 -0.1097 -0.2191  0.0722
  415loPI   C2A 6632  12.881  11.924   8.100  0.5507  0.2999  0.0429
  415loPI   C3A 6633  12.669  12.173   7.768 -0.0063  0.0522  0.2868
  415loPI   C4A 6634  12.441  12.085   7.279  0.1506  0.2917  0.1157
  415loPI   C5A 6635  12.030  12.117   7.135  0.0086 -0.1548 -0.1534
  415loPI   C6A 6636  11.817  12.342   6.834 -0.2816 -0.0614 -0.0729
  415loPI   C1B 6637  12.605  11.579   8.826 -0.1580 -0.1650  0.0651
  415loPI   C2B 6638  12.533  11.424   8.415  0.4249 -0.0801  0.4212
  415loPI   C3B 6639  12.722  11.271   8.079  0.3098 -0.1702 -0.0917
  415loPI   C4B 6640  13.017  10.958   7.950  0.2041  0.0086  0.3128
  416loPI    C1 6641   1.791   5.620   9.831 -0.1502  0.2645 -0.0734
  416loPI    C2 6642   1.444   5.450   9.933 -0.0266  0.1385  0.1450
  416loPI    C3 6643   1.665   5.635  10.211  0.2044 -0.0074  0.0612
  416loPI   PO4 6644   1.786   5.557   9.508 -0.2276 -0.0997 -0.0371
  416loPI   GL1 6645   1.625   5.540   9.076 -0.1059  0.0998  0.2100
  416loPI   GL2 6646   1.290   5.616   9.167  0.0694  0.1674 -0.0257
  416loPI   C1A 6647   1.450   5.183   8.961  0.1718  0.0345 -0.1060
  416loPI   C2A 6648   1.262   5.006   8.532 -0.4759 -0.0848 -0.2314
  416loPI   C3A 6649   1.301   4.661   8.235  0.0249 -0.1921 -0.2585
  416loPI   C4A 6650   1.273   4.393   7.836 -0.0252 -0.0266  0.0217
  416loPI   C5A 6651   1.135   4.117   7.436 -0.3649  0.1203 -0.0444
  416loPI   C6A 6652   1.052   4.045   7.017 -0.0631  0.3184  0.2868
  416loPI   C1B 6653   1.177   5.620   8.771  0.1216  0.2605 -0.2929
  416loPI   C2B 6654   0.984   5.829   8.517  0.2153 -0.2215 -0.1218
  416loPI   C3B 6655   0.763   5.669   8.129  0.0791 -0.0173  0.1084
  416loPI   C4B 6656   0.683   5.441   7.832 -0.1610  0.1383 -0.1707
  417loPI    C1 6657  18.750  12.255   8.891 -0.1257  0.1063  0.1191
  417loPI    C2 6658  19.098  12.314   8.704 -0.2310  0.2123 -0.0463
  417loPI    C3 6659  19.084  12.308   9.103  0.0355 -0.2485 -0.0369
  417loPI   PO4 6660  18.587  12.211   8.757  0.1196 -0.1610  0.2153
  417loPI   GL1 6661  18.319  12.259   8.434  0.2802 -0.2853  0.1460
  417loPI   GL2 6662  18.231  12.537   8.426 -0.1211  0.2930  0.0946
  417loPI   C1A 6663  18.190  12.059   7.994  0.0029 -0.0462 -0.1714
  417loPI   C2A 6664  18.200  11.919   7.598 -0.5686  0.0454 -0.0045
  417loPI   C3A 6665  18.288  11.483   7.501 -0.2211 -0.1770 -0.2085
  417loPI   C4A 6666  18.488  11.173   7.203 -0.0403 -0.0173 -0.0322
  417loPI   C5A 6667  18.756  10.955   6.886 -0.1802 -0.0476  0.1899
  417loPI   C6A 6668  19.058  10.821   6.735  0.2071  0.3756 -0.0440
  417loPI   C1B 6669  18.491  12.451   8.029 -0.1324  0.0147 -0.2815
  417loPI   C2B 6670  18.606  12.648   7.561  0.2524  0.1055 -0.1277
  417loPI   C3B 6671  18.473  12.515   7.131  0.2126 -0.0769  0.0587
  417loPI   C4B 6672  18.442  12.149   6.906  0.0364 -0.1425  0.0721
  418loPI    C1 6673  18.838  11.749   8.909  0.1348 -0.1011  0.0935
  418loPI    C2 6674  18.714  11.376   8.840  0.2827 -0.1483  0.0791
  418loPI    C3 6675  18.838  11.481   9.205 -0.0587 -0.0255  0.1636
  418loPI   PO4 6676  18.980  11.827   8.691  0.3675 -0.1136  0.0838
  418loPI   GL1 6677  18.888  11.898   8.312 -0.2326 -0.3859 -0.2857
  418loPI   GL2 6678  18.778  12.205   8.306 -0.0678 -0.1099  0.2242
  418loPI   C1A 6679  19.074  11.781   7.932 -0.0592  0.0794  0.0088
  418loPI   C2A 6680  19.078  12.018   7.529 -0.1290 -0.1565 -0.0305
  418loPI   C3A 6681  19.366  12.315   7.243  0.0758  0.2683  0.3514
  418loPI   C4A 6682  19.349  12.605   6.827 -0.0274  0.3526 -0.3034
  418loPI   C5A 6683  19.393  12.974   6.686  0.3483  0.0694  0.1901
  418loPI   C6A 6684  19.405  13.506   6.777  0.3488  0.1269 -0.2624
  418loPI   C1B 6685  18.968  12.334   7.904 -0.1975 -0.3431  0.1525
  418loPI   C2B 6686  19.126  12.550   7.572  0.0412  0.3308  0.0094
  418loPI   C3B 6687  19.025  12.818   7.212  0.1929  0.0937  0.1925
  418loPI   C4B 6688  18.938  12.832   6.743 -0.2663  0.0509  0.0712
  419loPI    C1 6689  14.837   8.949   9.168  0.0561  0.0431 -0.0581
  419loPI    C2 6690  14.666   9.128   9.482 -0.0431 -0.1622  0.0070
  419loPI    C3 6691  15.034   8.975   9.515  0.0166 -0.0280 -0.0300
  419loPI   PO4 6692  14.757   9.078   8.932  0.2984 -0.1206  0.1443
  419loPI   GL1 6693  14.654   9.133   8.427 -0.0889  0.3350  0.0395
  419loPI   GL2 6694  14.366   9.102   8.592  0.1360 -0.0861  0.1435
  419loPI   C1A 6695  14.632   9.147   8.032  0.1228 -0.1865 -0.0893
  419loPI   C2A 6696  14.738   8.878   7.573 -0.3287 -0.0701 -0.1543
  419loPI   C3A 6697  14.793   8.538   7.287 -0.0155  0.0478 -0.3540
  419loPI   C4A 6698  15.029   8.534   6.915 -0.0015  0.3714 -0.0409
  419loPI   C5A 6699  15.282   8.494   6.557 -0.3213  0.4666 -0.0677
  419loPI   C6A 6700  15.736   8.290   6.499 -0.1822 -0.1855  0.0558
  419loPI   C1B 6701  14.137   9.129   8.225 -0.1293  0.1097 -0.1551
  419loPI   C2B 6702  14.100   9.374   7.858  0.2984 -0.2256 -0.2523
  419loPI   C3B 6703  13.936   9.433   7.509 -0.0873  0.2101 -0.1784
  419loPI   C4B 6704  13.883   9.366   6.984  0.1107 -0.0690 -0.0007
  420loPI    C1 6705  12.179  18.633   9.405 -0.1683 -0.0499  0.0267
  420loPI    C2 6706  12.039  18.476   9.746  0.2366 -0.1224  0.1652
  420loPI    C3 6707  12.362  18.712   9.752  0.0651  0.1279 -0.1340
  420loPI   PO4 6708  12.269  18.437   9.265  0.3726 -0.1997 -0.1834
  420loPI   GL1 6709  12.319  18.332   8.795  0.0052 -0.1889  0.2130
  420loPI   GL2 6710  12.221  18.562   8.728  0.1876  0.1850  0.0453
  420loPI   C1A 6711  12.444  18.243   8.394  0.0697  0.3644 -0.1171
  420loPI   C2A 6712  12.552  18.255   8.031  0.0624  0.0879 -0.1644
  420loPI   C3A 6713  12.305  18.125   7.699  0.3015  0.0642  0.0055
  420loPI   C4A 6714  12.096  18.168   7.295  0.2391  0.1673  0.2028
  420loPI   C5A 6715  11.963  18.297   6.904 -0.2079  0.1670  0.1355
  420loPI   C6A 6716  11.535  18.148   6.696  0.2185  0.2378  0.1729
  420loPI   C1B 6717  12.391  18.739   8.285  0.0042 -0.0308  0.2077
  420loPI   C2B 6718  12.581  18.744   7.808  0.0949  0.2486 -0.0070
  420loPI   C3B 6719  12.574  18.437   7.403 -0.1805 -0.2083 -0.1209
  420loPI   C4B 6720  12.540  18.380   7.020 -0.0220  0.2499  0.0852
  421loPI    C1 6721   0.392  16.022   9.330 -0.1493 -0.0898 -0.0807
  421loPI    C2 6722   0.600  16.339   9.457  0.0994 -0.2883  0.0176
  421loPI    C3 6723   0.294  16.201   9.674 -0.1502  0.0127 -0.1341
  421loPI   PO4 6724   0.450  16.108   9.016  0.2013 -0.2676 -0.0593
  421loPI   GL1 6725   0.522  16.368   8.615 -0.0455 -0.2943  0.1576
  421loPI   GL2 6726   0.161  16.118   8.547  0.0763  0.1137 -0.2541
  421loPI   C1A 6727   0.643  16.613   8.310  0.3183  0.1466 -0.1458
  421loPI   C2A 6728   0.612  16.782   7.989  0.0405 -0.0564 -0.0692
  421loPI   C3A 6729   0.299  16.936   7.605  0.0352  0.0806 -0.0098
  421loPI   C4A 6730   0.335  17.297   7.329  0.0830  0.0783 -0.3579
  421loPI   C5A 6731   0.278  17.689   7.111  0.3936  0.1158 -0.0030
  421loPI   C6A 6732   0.204  17.860   6.795 -0.0357 -0.1722 -0.1855
  421loPI   C1B 6733   0.478  16.207   8.100  0.0852 -0.1759  0.3071
  421loPI   C2B 6734   0.620  15.923   7.790 -0.2339 -0.2891  0.2402
  421loPI   C3B 6735   0.706  15.744   7.431  0.1677 -0.0791  0.0186
  421loPI   C4B 6736   0.898  15.541   7.103 -0.1926 -0.1311  0.0464
  422loPI    C1 6737  12.738   6.840   9.505 -0.1219 -0.1352  0.0077
  422loPI    C2 6738  12.476   6.950   9.223 -0.1839 -0.3847 -0.0336
  422loPI    C3 6739  12.388   6.649   9.472 -0.0090 -0.3557  0.0652
  422loPI   PO4 6740  13.020   6.850   9.319 -0.0690  0.0543  0.1567
  422loPI   GL1 6741  13.269   6.914   8.959  0.0639  0.0942 -0.0346
  422loPI   GL2 6742  13.290   6.628   8.955 -0.1163 -0.1430 -0.0627
  422loPI   C1A 6743  13.340   7.022   8.552  0.1226  0.0600 -0.0195
  422loPI   C2A 6744  13.169   6.963   8.197  0.0602  0.0489 -0.3410
  422loPI   C3A 6745  13.128   7.042   7.776 -0.3110  0.1013  0.1765
  422loPI   C4A 6746  13.166   7.290   7.225  0.1664 -0.1057 -0.2339
  422loPI   C5A 6747  13.428   7.271   6.879  0.0382  0.0962 -0.0456
  422loPI   C6A 6748  13.726   7.100   6.515 -0.1238 -0.1938  0.2243
  422loPI   C1B 6749  13.072   6.622   8.550  0.0938  0.0627  0.0246
  422loPI   C2B 6750  12.777   6.651   8.178 -0.2266  0.0013  0.0518
  422loPI   C3B 6751  12.669   6.806   7.867 -0.0564  0.0217  0.0192
  422loPI   C4B 6752  12.900   6.848   7.329  0.2215  0.0510  0.0413
  423loPI    C1 6753   6.979   8.135   9.850 -0.0096  0.0597 -0.1634
  423loPI    C2 6754   6.696   8.286  10.089 -0.1159 -0.1735 -0.1393
  423loPI    C3 6755   6.898   7.959  10.199  0.1020 -0.0608 -0.1975
  423loPI   PO4 6756   6.872   8.066   9.608  0.1779  0.0698  0.2090
  423loPI   GL1 6757   6.722   8.325   9.285 -0.0177 -0.1427 -0.1801
  423loPI   GL2 6758   6.373   8.162   9.181  0.1692  0.0893 -0.1009
  423loPI   C1A 6759   6.709   8.599   9.046 -0.4130 -0.2306 -0.0971
  423loPI   C2A 6760   6.714   8.652   8.689 -0.3883 -0.1991  0.1427
  423loPI   C3A 6761   6.776   8.724   8.312 -0.1501 -0.3990  0.1706
  423loPI   C4A 6762   6.744   8.669   7.835  0.1186 -0.1054 -0.2216
  423loPI   C5A 6763   6.690   8.663   7.429  0.1397 -0.0941 -0.0271
  423loPI   C6A 6764   6.981   8.736   7.040  0.0328 -0.0628 -0.0861
  423loPI   C1B 6765   6.550   8.179   8.827  0.3491 -0.0757 -0.2876
  423loPI   C2B 6766   6.606   8.263   8.422  0.0227 -0.0344 -0.0978
  423loPI   C3B 6767   6.986   8.327   8.126  0.0025  0.2673  0.0899
  423loPI   C4B 6768   7.116   8.388   7.613 -0.0963  0.2957  0.3559
  424loPI    C1 6769   6.423  18.997   9.772  0.0010 -0.1533  0.2313
  424loPI    C2 6770   6.817  18.942   9.733 -0.0834 -0.4976 -0.2259
  424loPI    C3 6771   6.619  18.767  10.034  0.1288 -0.2015  0.0945
  424loPI   PO4 6772   6.299  18.922   9.575  0.2247 -0.1511 -0.2518
  424loPI   GL1 6773   5.908  18.948   9.316  0.0573 -0.2620 -0.1773
  424loPI   GL2 6774   6.067  19.174   9.196  0.3623 -0.0929  0.0382
  424loPI   C1A 6775   5.815  18.707   8.972 -0.0007 -0.0968 -0.1380
  424loPI   C2A 6776   5.434  18.807   8.658  0.4975 -0.2220  0.0762
  424loPI   C3A 6777   5.245  19.018   8.361  0.0476  0.0988  0.0521
  424loPI   C4A 6778   5.017  19.117   8.198  0.2198 -0.3062 -0.0821
  424loPI   C5A 6779   4.786  19.331   7.780  0.0908 -0.0029 -0.1052
  424loPI   C6A 6780   4.396  19.572   7.783  0.2107  0.0365  0.1086
  424loPI   C1B 6781   6.217  19.380   8.857 -0.0023  0.3129  0.4073
  424loPI   C2B 6782   6.140  19.322   8.402 -0.0303 -0.0981  0.1512
  424loPI   C3B 6783   5.990  19.026   7.972 -0.0678 -0.0450 -0.2176
  424loPI   C4B 6784   6.040  19.133   7.524  0.2093 -0.0014  0.3847
  425loPI    C1 6785   2.224   9.055   9.703  0.0643  0.1214 -0.3892
  425loPI    C2 6786   1.889   8.862   9.808  0.2945 -0.0690  0.0191
  425loPI    C3 6787   2.033   9.154  10.040  0.3790  0.0560 -0.1873
  425loPI   PO4 6788   2.184   8.979   9.376 -0.0993 -0.3743 -0.0143
  425loPI   GL1 6789   1.998   9.052   8.952  0.0560 -0.0395 -0.0415
  425loPI   GL2 6790   2.053   9.347   8.938  0.0571  0.1071 -0.4814
  425loPI   C1A 6791   2.050   8.768   8.504  0.0392 -0.2652  0.1025
  425loPI   C2A 6792   1.977   8.368   8.521  0.2369 -0.2244  0.0225
  425loPI   C3A 6793   2.050   8.201   8.087  0.1638  0.3857  0.1014
  425loPI   C4A 6794   2.161   8.126   7.582 -0.0622  0.1024 -0.0784
  425loPI   C5A 6795   2.095   8.108   7.144  0.1056  0.0391  0.0899
  425loPI   C6A 6796   2.140   8.268   6.709  0.3355 -0.1765 -0.1983
  425loPI   C1B 6797   2.377   9.178   8.706  0.0846 -0.1667 -0.0157
  425loPI   C2B 6798   2.678   9.025   8.414  0.0056 -0.0052  0.0571
  425loPI   C3B 6799   2.738   9.173   8.040 -0.0791 -0.1279  0.0437
  425loPI   C4B 6800   2.824   9.349   7.661 -0.0704 -0.1117  0.2950
  426loPI    C1 6801   9.220  12.311   9.968  0.2573 -0.1875  0.0820
  426loPI    C2 6802   9.296  12.284  10.360 -0.0288  0.3013  0.1793
  426loPI    C3 6803   8.923  12.351  10.233  0.1089  0.4399 -0.1626
  426loPI   PO4 6804   9.298  12.178   9.761  0.0073 -0.0511 -0.3008
  426loPI   GL1 6805   9.310  12.355   9.387 -0.0755  0.1529  0.2380
  426loPI   GL2 6806   9.503  12.640   9.222  0.0806  0.0277  0.0741
  426loPI   C1A 6807   9.211  12.141   9.017 -0.0561 -0.0884  0.0678
  426loPI   C2A 6808   9.399  11.988   8.651 -0.0550  0.0880  0.1110
  426loPI   C3A 6809   9.290  12.034   8.263 -0.3157  0.1672 -0.2468
  426loPI   C4A 6810   9.060  12.012   7.869 -0.1054 -0.1878  0.0798
  426loPI   C5A 6811   9.308  12.053   7.525  0.0781 -0.0918 -0.3616
  426loPI   C6A 6812   9.160  12.266   7.096  0.2189  0.1415  0.1476
  426loPI   C1B 6813   9.357  12.576   8.812  0.0377  0.1304 -0.0264
  426loPI   C2B 6814   9.279  12.501   8.382 -0.1017 -0.2823 -0.1086
  426loPI   C3B 6815   9.151  12.481   7.991 -0.1774  0.1375 -0.1969
  426loPI   C4B 6816   9.255  12.603   7.546  0.1964 -0.2969 -0.3139
  427loPI    C1 6817  10.393  12.810   9.769 -0.2305 -0.2221 -0.1072
  427loPI    C2 6818  10.320  13.071  10.064 -0.0064 -0.0062 -0.2381
  427loPI    C3 6819  10.452  12.703  10.150 -0.0163  0.0295 -0.0663
  427loPI   PO4 6820  10.551  13.030   9.569  0.1301  0.0792  0.1659
  427loPI   GL1 6821  10.538  13.371   9.286 -0.2043  0.1346  0.4113
  427loPI   GL2 6822  10.229  13.241   9.126  0.3126 -0.2975  0.0800
  427loPI   C1A 6823  10.604  13.396   8.842 -0.1842 -0.1805  0.3602
  427loPI   C2A 6824  10.532  13.512   8.364 -0.0701 -0.2308 -0.0689
  427loPI   C3A 6825  10.314  13.274   8.072  0.2458  0.1902 -0.0832
  427loPI   C4A 6826  10.304  13.256   7.645 -0.2175 -0.2061 -0.1528
  427loPI   C5A 6827  10.293  13.374   7.226 -0.0557 -0.2090 -0.1782
  427loPI   C6A 6828  10.298  13.236   6.749  0.2128  0.2031 -0.1834
  427loPI   C1B 6829   9.965  13.416   8.766  0.2346  0.5225  0.0969
  427loPI   C2B 6830   9.853  13.307   8.262 -0.1064 -0.0911 -0.1515
  427loPI   C3B 6831   9.797  13.317   7.887 -0.1976 -0.1263  0.2542
  427loPI   C4B 6832   9.777  13.379   7.422 -0.3356  0.3374 -0.0024
  428loPI    C1 6833   2.382  17.111   9.957  0.3626  0.0229  0.1930
  428loPI    C2 6834   2.185  17.305  10.246 -0.0434 -0.1692  0.0535
  428loPI    C3 6835   1.982  17.132   9.948  0.3498 -0.2731 -0.1606
  428loPI   PO4 6836   2.530  17.286   9.875  0.0310  0.0261  0.3830
  428loPI   GL1 6837   2.808  17.236   9.535  0.1123  0.0977  0.0293
  428loPI   GL2 6838   2.646  17.498   9.426  0.0137 -0.0279 -0.2499
  428loPI   C1A 6839   2.885  17.033   9.181  0.0905 -0.0018  0.2974
  428loPI   C2A 6840   2.746  16.710   8.845 -0.1877  0.2601  0.0712
  428loPI   C3A 6841   2.770  16.597   8.432  0.0725 -0.1136 -0.1946
  428loPI   C4A 6842   2.714  16.442   8.081  0.0739  0.0428 -0.0805
  428loPI   C5A 6843   2.586  16.633   7.788 -0.1814 -0.0684 -0.1849
  428loPI   C6A 6844   2.239  16.848   7.600  0.0802 -0.0353 -0.0606
  428loPI   C1B 6845   2.469  17.313   9.120  0.3019 -0.0628  0.0319
  428loPI   C2B 6846   2.456  17.210   8.654 -0.1801 -0.1207 -0.1075
  428loPI   C3B 6847   2.608  17.018   8.239 -0.0756  0.2214  0.0873
  428loPI   C4B 6848   2.872  16.986   7.982  0.2290  0.0692  0.5402
  429loPI    C1 6849   2.059  14.970   9.833 -0.1262  0.4057 -0.2561
  429loPI    C2 6850   2.003  15.323  10.013 -0.1839  0.1497  0.2443
  429loPI    C3 6851   2.124  15.006  10.226 -0.0659 -0.1201 -0.2103
  429loPI   PO4 6852   2.199  14.959   9.549 -0.2538  0.0124  0.0915
  429loPI   GL1 6853   2.252  14.747   9.115 -0.0964  0.1266 -0.2961
  429loPI   GL2 6854   1.984  14.972   8.900 -0.2262 -0.2976  0.0977
  429loPI   C1A 6855   2.483  14.788   8.747  0.1699 -0.0823 -0.2097
  429loPI   C2A 6856   2.750  14.734   8.553  0.1309  0.0066  0.3938
  429loPI   C3A 6857   2.998  14.915   8.187 -0.1759  0.1495 -0.2620
  429loPI   C4A 6858   2.789  15.127   7.912  0.0010  0.2543 -0.2161
  429loPI   C5A 6859   2.516  15.251   7.638 -0.1548 -0.1964 -0.1499
  429loPI   C6A 6860   2.367  15.406   7.224  0.2027 -0.1854 -0.2153
  429loPI   C1B 6861   2.067  14.546   8.611 -0.1423  0.0063 -0.1508
  429loPI   C2B 6862   2.300  14.442   8.163 -0.3124 -0.0169  0.0479
  429loPI   C3B 6863   2.701  14.574   8.059  0.0493 -0.1024  0.3245
  429loPI   C4B 6864   3.092  14.508   7.802 -0.3879 -0.2949  0.1380
  430loPI    C1 6865  14.189   1.841   9.257  0.2568  0.2268 -0.0313
  430loPI    C2 6866  14.369   1.579   9.501 -0.0672  0.1516  0.1322
  430loPI    C3 6867  14.182   1.898   9.653 -0.0210  0.2622 -0.0398
  430loPI   PO4 6868  14.060   1.640   9.076  0.2594  0.3936  0.0802
  430loPI   GL1 6869  13.934   1.888   8.700 -0.2586  0.2939  0.4424
  430loPI   GL2 6870  14.299   1.994   8.784  0.2509  0.1921 -0.2352
  430loPI   C1A 6871  13.881   1.856   8.301  0.2075 -0.1849 -0.1057
  430loPI   C2A 6872  13.778   1.805   7.893  0.3109  0.1046  0.2044
  430loPI   C3A 6873  13.628   1.768   7.553 -0.0175 -0.2083 -0.0622
  430loPI   C4A 6874  13.656   1.613   7.199 -0.0400  0.1930  0.3323
  430loPI   C5A 6875  13.774   1.453   6.801 -0.0487  0.2233  0.1102
  430loPI   C6A 6876  13.690   1.647   6.438 -0.0668 -0.2650 -0.0367
  430loPI   C1B 6877  14.226   2.237   8.449 -0.4742 -0.0312  0.0894
  430loPI   C2B 6878  14.074   2.689   8.334 -0.1160 -0.0274  0.0256
  430loPI   C3B 6879  14.156   3.023   8.216 -0.1703  0.2213 -0.0569
  430loPI   C4B 6880  13.921   3.463   8.325 -0.0464  0.2659  0.3393
  431loPI    C1 6881   7.513   8.458   9.977 -0.1219  0.1643 -0.1438
  431loPI    C2 6882   7.531   8.840  10.094  0.1867  0.1525 -0.1452
  431loPI    C3 6883   7.661   8.550  10.337 -0.0572  0.0455 -0.1396
  431loPI   PO4 6884   7.737   8.457   9.779  0.0550  0.1388 -0.1724
  431loPI   GL1 6885   7.663   8.551   9.341 -0.2377 -0.3817  0.0402
  431loPI   GL2 6886   7.402   8.711   9.301  0.0212 -0.0213 -0.0067
  431loPI   C1A 6887   7.840   8.400   8.940 -0.1994 -0.2040  0.0648
  431loPI   C2A 6888   7.973   8.414   8.479  0.2607  0.1984  0.0336
  431loPI   C3A 6889   8.056   8.314   8.086 -0.6311 -0.2152  0.0645
  431loPI   C4A 6890   8.349   8.337   7.797 -0.2806 -0.0947  0.4201
  431loPI   C5A 6891   8.697   8.516   7.559  0.3054 -0.2596 -0.1769
  431loPI   C6A 6892   9.021   8.651   7.258  0.0591 -0.1626  0.2559
  431loPI   C1B 6893   7.661   8.882   8.856 -0.0451 -0.0809 -0.0386
  431loPI   C2B 6894   7.962   8.899   8.613 -0.2062 -0.1531 -0.3082
  431loPI   C3B 6895   7.846   8.771   8.203  0.1067 -0.0825  0.0629
  431loPI   C4B 6896   7.807   8.996   7.833  0.1644 -0.0965  0.0466
  432loPI    C1 6897   2.772   0.458  10.164 -0.1234  0.0560  0.0170
  432loPI    C2 6898   2.578   0.194  10.394 -0.0482  0.0836  0.1125
  432loPI    C3 6899   2.951   0.305  10.487 -0.0564  0.1759  0.0372
  432loPI   PO4 6900   2.746   0.303   9.918  0.0086  0.1132 -0.0887
  432loPI   GL1 6901   2.877   0.444   9.524  0.1073  0.1540 -0.0118
  432loPI   GL2 6902   3.168   0.115   9.614 -0.0738  0.0410 -0.1659
  432loPI   C1A 6903   2.794   0.453   9.158 -0.0571 -0.0531  0.1425
  432loPI   C2A 6904   2.809   0.462   8.724 -0.1037  0.2044 -0.2581
  432loPI   C3A 6905   3.040   0.522   8.413 -0.2382 -0.2101  0.0830
  432loPI   C4A 6906   2.990   0.655   7.999  0.3499 -0.3331 -0.0886
  432loPI   C5A 6907   3.134   0.896   7.601 -0.1451 -0.3371  0.0095
  432loPI   C6A 6908   3.036   1.097   7.238  0.1412 -0.1485  0.0450
  432loPI   C1B 6909   3.284  -0.157   9.236 -0.2016 -0.0385  0.0841
  432loPI   C2B 6910   3.243  -0.317   8.862 -0.3370  0.0514  0.2094
  432loPI   C3B 6911   3.341  -0.394   8.427 -0.0832  0.1485  0.1819
  432loPI   C4B 6912   3.670  -0.601   8.255 -0.1833  0.4962 -0.1519
  433loPI    C1 6913   8.166  10.594   9.733  0.0267  0.1409  0.0000
  433loPI    C2 6914   8.262  10.526  10.116 -0.0097 -0.2066 -0.0496
  433loPI    C3 6915   8.311  10.891   9.959  0.1552 -0.1006  0.2409
  433loPI   PO4 6916   8.182  10.426   9.600 -0.3026  0.0178  0.1005
  433loPI   GL1 6917   8.108  10.258   9.199  0.0315  0.2351 -0.2583
  433loPI   GL2 6918   7.868  10.398   9.138 -0.0418 -0.1180 -0.0516
  433loPI   C1A 6919   8.453  10.208   8.810  0.3538 -0.1880  0.0531
  433loPI   C2A 6920   8.509  10.159   8.410  0.1407  0.1092  0.4080
  433loPI   C3A 6921   8.528  10.125   8.009 -0.0155  0.1366  0.0294
  433loPI   C4A 6922   8.558  10.106   7.606  0.1405  0.0595  0.4941
  433loPI   C5A 6923   8.668  10.029   7.234  0.1020  0.4006  0.0591
  433loPI   C6A 6924   9.039  10.245   7.202  0.3144 -0.0809  0.1601
  433loPI   C1B 6925   7.956  10.161   8.763 -0.2213  0.2121 -0.0848
  433loPI   C2B 6926   8.045  10.089   8.430 -0.3342  0.0204 -0.1258
  433loPI   C3B 6927   8.040   9.982   8.084  0.1963  0.0694  0.0047
  433loPI   C4B 6928   7.769   9.912   7.734 -0.0037  0.1928  0.1763
  434loPI    C1 6929  10.923   0.355   9.794 -0.1426  0.0773 -0.0989
  434loPI    C2 6930  11.209   0.625   9.866 -0.2358  0.1164  0.1321
  434loPI    C3 6931  10.845   0.745   9.752 -0.1816  0.0702 -0.0940
  434loPI   PO4 6932  10.910   0.254   9.584 -0.0344  0.1619 -0.0209
  434loPI   GL1 6933  11.164   0.424   9.306 -0.3170  0.0455 -0.1786
  434loPI   GL2 6934  11.103   0.691   9.289  0.0781  0.2069 -0.2632
  434loPI   C1A 6935  11.256   0.418   8.827  0.1111 -0.1345 -0.1487
  434loPI   C2A 6936  11.432   0.320   8.512 -0.1741  0.0325 -0.2808
  434loPI   C3A 6937  11.296   0.197   8.035  0.0345  0.0061  0.1047
  434loPI   C4A 6938  11.214   0.332   7.682 -0.1440  0.1036 -0.2235
  434loPI   C5A 6939  11.407   0.261   7.323  0.2968  0.1957 -0.0451
  434loPI   C6A 6940  11.497   0.433   6.935 -0.0610 -0.3658 -0.1276
  434loPI   C1B 6941  11.032   0.927   8.927 -0.0404  0.3151  0.0313
  434loPI   C2B 6942  11.005   0.991   8.556  0.2515  0.3514  0.0053
  434loPI   C3B 6943  11.181   0.698   8.282 -0.2177  0.1937 -0.1051
  434loPI   C4B 6944  11.345   0.742   7.907  0.4399  0.1869 -0.2446
  435loPI    C1 6945   3.251  13.619   9.812 -0.0700 -0.1625  0.0164
  435loPI    C2 6946   3.222  13.856  10.133 -0.2729 -0.1368 -0.0194
  435loPI    C3 6947   3.331  13.473  10.176 -0.0664 -0.0713  0.0524
  435loPI   PO4 6948   3.299  13.740   9.680 -0.3380  0.1500  0.2639
  435loPI   GL1 6949   3.481  13.735   9.263 -0.2371  0.1504  0.2740
  435loPI   GL2 6950   3.412  13.364   9.367 -0.1275  0.0816 -0.2118
  435loPI   C1A 6951   3.233  13.579   8.922  0.0955  0.2383 -0.5081
  435loPI   C2A 6952   3.044  13.357   8.420 -0.1414 -0.0009  0.2533
  435loPI   C3A 6953   3.015  13.482   8.013 -0.0390  0.3520  0.1319
  435loPI   C4A 6954   2.877  13.799   7.895  0.3298 -0.0767 -0.3814
  435loPI   C5A 6955   2.707  14.133   7.676 -0.0308  0.0852 -0.1218
  435loPI   C6A 6956   2.317  14.323   7.699 -0.2016 -0.0085  0.0201
  435loPI   C1B 6957   3.383  13.051   8.888  0.2126 -0.1267 -0.1472
  435loPI   C2B 6958   3.447  12.803   8.578 -0.1068  0.0838  0.3629
  435loPI   C3B 6959   3.527  12.864   8.187 -0.3668 -0.0352 -0.0309
  435loPI   C4B 6960   3.493  12.747   7.824 -0.2401 -0.1593 -0.0220
  436loPI    C1 6961  18.831  17.380   9.744 -0.0496 -0.0967 -0.1221
  436loPI    C2 6962  18.447  17.445   9.836  0.1139  0.1834  0.3995
  436loPI    C3 6963  18.645  17.142  10.006  0.0809 -0.0744 -0.0086
  436loPI   PO4 6964  18.717  17.298   9.383 -0.2351 -0.0636  0.0396
  436loPI   GL1 6965  18.752  17.407   8.952  0.1148  0.0129 -0.0248
  436loPI   GL2 6966  18.576  17.615   8.842 -0.0835  0.1143  0.1097
  436loPI   C1A 6967  18.856  17.284   8.542 -0.1480  0.1539  0.2970
  436loPI   C2A 6968  18.830  17.172   8.107  0.0328 -0.5191 -0.0435
  436loPI   C3A 6969  18.509  17.419   7.828  0.2135  0.1602  0.2356
  436loPI   C4A 6970  18.228  17.437   7.445 -0.0538 -0.0717 -0.3507
  436loPI   C5A 6971  17.948  17.291   7.206  0.1453  0.1988  0.2084
  436loPI   C6A 6972  17.529  17.145   7.004 -0.0530  0.2292 -0.4269
  436loPI   C1B 6973  18.451  17.749   8.480  0.3913 -0.2007  0.1717
  436loPI   C2B 6974  18.285  17.792   8.100  0.2447 -0.0688 -0.3699
  436loPI   C3B 6975  18.316  17.910   7.703  0.1765 -0.1906  0.1504
  436loPI   C4B 6976  18.408  18.188   7.325  0.1735 -0.1328  0.1571
  437loPI    C1 6977   5.243  14.913  10.014  0.0324 -0.2023  0.1710
  437loPI    C2 6978   5.433  14.589  10.152  0.1553 -0.1586  0.1067
  437loPI    C3 6979   5.559  14.954  10.257 -0.0867 -0.1319  0.3154
  437loPI   PO4 6980   5.202  14.880   9.743 -0.1566 -0.0501 -0.1904
  437loPI   GL1 6981   5.170  14.502   9.370  0.4247 -0.1159  0.2992
  437loPI   GL2 6982   5.038  14.743   9.263 -0.2575  0.0465  0.1461
  437loPI   C1A 6983   4.815  14.267   9.060  0.3150  0.0119  0.1737
  437loPI   C2A 6984   4.756  14.330   8.641  0.2440  0.3843 -0.0311
  437loPI   C3A 6985   4.728  14.216   8.240  0.2901 -0.1742 -0.0956
  437loPI   C4A 6986   4.933  14.163   7.824 -0.1989 -0.0354 -0.0889
  437loPI   C5A 6987   5.009  13.959   7.456  0.1096  0.3005  0.2596
  437loPI   C6A 6988   4.841  13.949   7.120  0.4504  0.0293 -0.0375
  437loPI   C1B 6989   5.194  14.821   8.922  0.0033 -0.3108  0.0840
  437loPI   C2B 6990   5.341  14.907   8.502  0.0557 -0.5856  0.1425
  437loPI   C3B 6991   5.307  14.951   8.073  0.0582 -0.2212  0.1345
  437loPI   C4B 6992   5.423  15.123   7.618  0.0842 -0.0555  0.1338
  438loPI    C1 6993   6.214   3.869   9.711  0.0809 -0.1534 -0.0409
  438loPI    C2 6994   6.548   4.020   9.870 -0.0986 -0.1047  0.3000
  438loPI    C3 6995   6.379   3.696  10.031 -0.1238 -0.2314  0.0243
  438loPI   PO4 6996   6.082   4.084   9.612 -0.2688  0.2387 -0.5523
  438loPI   GL1 6997   6.267   4.211   9.140 -0.1753 -0.0812  0.0329
  438loPI   GL2 6998   5.956   4.124   9.120 -0.0303  0.0254  0.0765
  438loPI   C1A 6999   6.260   4.276   8.634  0.1426  0.1384 -0.2451
  438loPI   C2A 7000   6.417   4.245   8.331 -0.2947  0.0501  0.0298
  438loPI   C3A 7001   6.530   4.369   7.935  0.1081  0.0790 -0.0045
  438loPI   C4A 7002   6.549   4.500   7.475 -0.2005 -0.0139 -0.0931
  438loPI   C5A 7003   6.627   4.607   7.099 -0.0653  0.1228 -0.0842
  438loPI   C6A 7004   6.989   4.553   6.926 -0.1427  0.2968 -0.0450
  438loPI   C1B 7005   5.938   3.863   8.761  0.1379 -0.2421 -0.1814
  438loPI   C2B 7006   6.005   3.912   8.380 -0.2113  0.1026  0.1542
  438loPI   C3B 7007   5.740   3.902   8.088  0.2108 -0.2604 -0.1637
  438loPI   C4B 7008   5.412   4.019   7.984 -0.0004 -0.0896  0.1939
  439loPI    C1 7009   2.644   1.100  10.275  0.1238 -0.1586 -0.1156
  439loPI    C2 7010   2.939   1.199  10.527 -0.1619 -0.1653  0.2283
  439loPI    C3 7011   2.681   1.477  10.401 -0.0950 -0.1874  0.0390
  439loPI   PO4 7012   2.805   0.992  10.024 -0.0487 -0.1050 -0.0329
  439loPI   GL1 7013   2.890   1.189   9.615  0.0923 -0.2029  0.2543
  439loPI   GL2 7014   3.109   1.383   9.468  0.0201 -0.1379  0.0725
  439loPI   C1A 7015   2.615   1.388   9.347  0.1462 -0.4243  0.1287
  439loPI   C2A 7016   2.536   1.382   8.912 -0.0036  0.1859  0.0103
  439loPI   C3A 7017   2.512   1.440   8.493  0.1172  0.0630  0.1711
  439loPI   C4A 7018   2.340   1.298   8.167  0.4248 -0.1976  0.0670
  439loPI   C5A 7019   2.200   1.360   7.786 -0.0330 -0.2349  0.0750
  439loPI   C6A 7020   1.737   1.189   7.682  0.0640  0.2675  0.0672
  439loPI   C1B 7021   2.986   1.563   9.064 -0.2650  0.5392  0.0161
  439loPI   C2B 7022   3.039   1.509   8.623 -0.1553 -0.0064  0.0975
  439loPI   C3B 7023   2.877   1.535   8.167  0.0883 -0.0563 -0.1241
  439loPI   C4B 7024   3.064   1.443   7.687 -0.3991 -0.0671 -0.1681
  440loPI    C1 7025  14.713   2.353   9.268 -0.3105 -0.0378  0.0453
  440loPI    C2 7026  14.674   1.991   9.433  0.3021 -0.0344  0.2214
  440loPI    C3 7027  14.677   2.318   9.665  0.3201  0.0385  0.1190
  440loPI   PO4 7028  14.560   2.327   9.011  0.2094  0.1798 -0.0564
  440loPI   GL1 7029  14.695   2.249   8.562 -0.1341 -0.3178 -0.2635
  440loPI   GL2 7030  14.633   2.587   8.482  0.0262  0.2640  0.1690
  440loPI   C1A 7031  14.943   2.272   8.176  0.1011  0.2561 -0.1676
  440loPI   C2A 7032  15.198   2.339   7.798 -0.4237  0.0194  0.1525
  440loPI   C3A 7033  15.345   2.541   7.372 -0.4159  0.3444 -0.0571
  440loPI   C4A 7034  15.721   2.706   7.021 -0.0556 -0.0231 -0.1829
  440loPI   C5A 7035  15.794   2.398   6.737  0.1509  0.0007 -0.3565
  440loPI   C6A 7036  15.431   2.083   6.576  0.3076 -0.1686  0.0176
  440loPI   C1B 7037  14.498   2.583   8.092  0.1175 -0.3291 -0.1186
  440loPI   C2B 7038  14.544   2.373   7.646 -0.1984 -0.3683  0.0705
  440loPI   C3B 7039  14.684   2.281   7.246 -0.0514 -0.2486  0.3698
  440loPI   C4B 7040  14.611   2.214   6.820  0.1340 -0.1421 -0.1002
  441loPI    C1 7041   4.091   7.494   9.735 -0.1380 -0.0473 -0.0642
  441loPI    C2 7042   3.836   7.743   9.916  0.0544 -0.0639  0.2361
  441loPI    C3 7043   4.214   7.715  10.045  0.1265 -0.2633 -0.0108
  441loPI   PO4 7044   3.943   7.535   9.444  0.0873  0.0162 -0.0690
  441loPI   GL1 7045   3.981   7.805   9.024 -0.2525  0.1343 -0.1882
  441loPI   GL2 7046   4.316   7.730   9.182 -0.1305 -0.1112  0.2125
  441loPI   C1A 7047   3.911   7.586   8.615 -0.0031 -0.0678 -0.0197
  441loPI   C2A 7048   4.233   7.405   8.183  0.0913 -0.0957  0.1251
  441loPI   C3A 7049   4.206   7.348   7.805  0.1739 -0.1069  0.1654
  441loPI   C4A 7050   4.441   7.577   7.528  0.0431 -0.0376 -0.2450
  441loPI   C5A 7051   4.670   7.847   7.306  0.2201  0.0355  0.2320
  441loPI   C6A 7052   4.646   8.188   7.057  0.1742 -0.0838  0.1149
  441loPI   C1B 7053   4.394   7.872   8.812 -0.3152  0.3948  0.2473
  441loPI   C2B 7054   4.458   7.755   8.412  0.0570 -0.1342 -0.1100
  441loPI   C3B 7055   4.625   7.602   7.992 -0.3594 -0.0951  0.1648
  441loPI   C4B 7056   4.994   7.522   7.778 -0.0936  0.1198 -0.0899
  442loPI    C1 7057  14.284   5.102   9.600 -0.1860 -0.1997 -0.2653
  442loPI    C2 7058  14.224   5.388   9.874  0.0985 -0.3563 -0.0343
  442loPI    C3 7059  13.923   5.147   9.767 -0.0608 -0.1765  0.0043
  442loPI   PO4 7060  14.348   5.206   9.403  0.2618  0.2204  0.1144
  442loPI   GL1 7061  14.326   5.271   8.965 -0.2132  0.0692 -0.0568
  442loPI   GL2 7062  14.288   5.569   9.041 -0.0726  0.0397 -0.3047
  442loPI   C1A 7063  14.487   5.242   8.485 -0.1723  0.4691 -0.0404
  442loPI   C2A 7064  14.618   5.290   7.954  0.3506 -0.1501 -0.1112
  442loPI   C3A 7065  14.605   5.274   7.535 -0.2496  0.0673 -0.2270
  442loPI   C4A 7066  14.693   5.341   7.221 -0.2959 -0.1779  0.2308
  442loPI   C5A 7067  14.712   5.599   6.825  0.2503  0.3555 -0.3280
  442loPI   C6A 7068  14.488   5.956   6.547  0.0302  0.1636  0.2364
  442loPI   C1B 7069  14.150   5.582   8.608  0.3101  0.1077  0.0842
  442loPI   C2B 7070  14.046   5.571   8.143  0.1062  0.2179  0.1232
  442loPI   C3B 7071  13.739   5.389   8.056 -0.0138 -0.0949 -0.2633
  442loPI   C4B 7072  13.715   4.891   8.074 -0.0170  0.2985  0.0854
  443loPI    C1 7073   7.196  19.632   9.849 -0.3107 -0.2703  0.0905
  443loPI    C2 7074   7.160  19.992  10.021  0.0815 -0.0432 -0.2801
  443loPI    C3 7075   7.407  19.719  10.178 -0.0951 -0.0967 -0.0900
  443loPI   PO4 7076   6.966  19.506   9.708  0.1105  0.1756  0.0810
  443loPI   GL1 7077   6.912  19.470   9.196 -0.1251  0.0007 -0.2298
  443loPI   GL2 7078   7.180  19.299   8.978 -0.3744 -0.4942  0.0578
  443loPI   C1A 7079   6.694  19.357   8.830 -0.0745  0.1662 -0.3924
  443loPI   C2A 7080   6.667  19.246   8.451  0.1426  0.2115 -0.3782
  443loPI   C3A 7081   6.733  19.102   8.031 -0.1913 -0.0090 -0.1392
  443loPI   C4A 7082   6.697  19.156   7.568  0.2232 -0.3842  0.0738
  443loPI   C5A 7083   6.413  19.417   7.314 -0.0121  0.1568  0.4318
  443loPI   C6A 7084   6.046  19.609   7.315  0.0401 -0.0426  0.1239
  443loPI   C1B 7085   7.133  19.420   8.526 -0.1689  0.1649  0.2431
  443loPI   C2B 7086   7.116  19.499   8.127  0.1392 -0.0589 -0.0778
  443loPI   C3B 7087   7.381  19.556   7.756  0.2094  0.3927  0.0527
  443loPI   C4B 7088   7.653  19.494   7.406  0.1163  0.0839  0.3466
  444loPI    C1 7089   9.245   0.779   9.706 -0.1041 -0.0978 -0.1095
  444loPI    C2 7090   8.996   0.594   9.959 -0.0285 -0.1841 -0.0977
  444loPI    C3 7091   9.194   0.922  10.076 -0.2259 -0.0456 -0.1459
  444loPI   PO4 7092   9.201   0.778   9.427  0.0262 -0.0329 -0.0172
  444loPI   GL1 7093   8.932   0.736   9.130 -0.1468 -0.2255  0.2479
  444loPI   GL2 7094   8.780   1.034   8.953 -0.0886 -0.1173  0.0710
  444loPI   C1A 7095   9.113   0.753   8.654  0.0178 -0.1747 -0.2374
  444loPI   C2A 7096   9.164   0.595   8.293 -0.1182  0.1634  0.0640
  444loPI   C3A 7097   9.013   0.612   7.914 -0.1040  0.0897  0.2723
  444loPI   C4A 7098   9.000   0.793   7.492  0.1116  0.4540  0.0802
  444loPI   C5A 7099   9.010   0.734   7.043  0.0041 -0.1634 -0.2439
  444loPI   C6A 7100   9.386   0.603   6.659 -0.0516  0.2483  0.0026
  444loPI   C1B 7101   8.617   0.916   8.625 -0.2372 -0.1457  0.0857
  444loPI   C2B 7102   8.557   0.884   8.221  0.0503  0.2930 -0.0119
  444loPI   C3B 7103   8.468   0.705   7.894 -0.1240  0.1635  0.2756
  444loPI   C4B 7104   8.568   0.660   7.419  0.2232 -0.0981  0.2532
  445loPI    C1 7105  13.741   2.708   9.187 -0.0813  0.1206  0.0240
  445loPI    C2 7106  13.971   2.885   9.462 -0.0608  0.1295  0.0012
  445loPI    C3 7107  13.671   2.647   9.576  0.1303 -0.1011  0.0298
  445loPI   PO4 7108  13.713   2.834   8.958 -0.0090 -0.2229 -0.2482
  445loPI   GL1 7109  13.652   2.958   8.503 -0.1181  0.2424 -0.0393
  445loPI   GL2 7110  13.267   2.925   8.416  0.0020  0.2794  0.2794
  445loPI   C1A 7111  13.544   3.185   8.050  0.2451  0.0316 -0.1354
  445loPI   C2A 7112  13.411   3.269   7.669  0.0353  0.0263 -0.2389
  445loPI   C3A 7113  13.406   3.105   7.308 -0.0747  0.2801  0.0420
  445loPI   C4A 7114  13.333   2.701   7.205 -0.3870 -0.1043  0.1231
  445loPI   C5A 7115  13.390   2.217   7.173  0.0988  0.0798  0.0830
  445loPI   C6A 7116  13.416   1.825   6.806  0.1211  0.1699 -0.2134
  445loPI   C1B 7117  13.078   2.914   8.061 -0.1286 -0.1043 -0.2647
  445loPI   C2B 7118  12.949   3.350   7.851  0.2689  0.0074  0.1878
  445loPI   C3B 7119  13.026   3.518   7.464  0.1912  0.1722 -0.3335
  445loPI   C4B 7120  12.961   3.686   7.152 -0.2026  0.0388  0.2377
  446loPI    C1 7121   2.545   6.296  10.025  0.0299  0.0488 -0.0977
  446loPI    C2 7122   2.887   6.361  10.223 -0.0246  0.2955 -0.0812
  446loPI    C3 7123   2.557   6.567  10.319 -0.2667 -0.1716  0.1240
  446loPI   PO4 7124   2.611   6.289   9.820  0.1463 -0.2614  0.3911
  446loPI   GL1 7125   2.531   6.254   9.274 -0.2619 -0.0132 -0.3108
  446loPI   GL2 7126   2.833   6.069   9.060  0.0681  0.2297  0.3301
  446loPI   C1A 7127   2.302   6.078   8.901 -0.0663  0.1693 -0.4671
  446loPI   C2A 7128   2.318   6.148   8.447  0.0035  0.2036 -0.3444
  446loPI   C3A 7129   2.183   6.041   8.049 -0.1270  0.2316  0.1862
  446loPI   C4A 7130   2.194   5.767   7.731 -0.0770  0.1889  0.2609
  446loPI   C5A 7131   2.171   5.665   7.326  0.1256 -0.0749 -0.5769
  446loPI   C6A 7132   2.062   5.612   6.764 -0.1387 -0.1792  0.1342
  446loPI   C1B 7133   2.888   5.996   8.645  0.4712  0.0998 -0.0521
  446loPI   C2B 7134   2.786   6.092   8.278  0.0268  0.0471 -0.0811
  446loPI   C3B 7135   2.550   6.346   8.002 -0.2011 -0.0708  0.1863
  446loPI   C4B 7136   2.520   6.275   7.624 -0.1635  0.0230  0.0851
  447loPI    C1 7137   7.397   0.998   9.402 -0.2360 -0.1696 -0.1042
  447loPI    C2 7138   7.270   0.924   9.774 -0.0652 -0.0818 -0.0272
  447loPI    C3 7139   7.237   1.292   9.621 -0.1289 -0.1162 -0.0972
  447loPI   PO4 7140   7.320   0.729   9.296 -0.1666  0.0855  0.1542
  447loPI   GL1 7141   7.297   0.462   8.825 -0.0352 -0.1053 -0.0567
  447loPI   GL2 7142   7.142   0.746   8.834  0.1604 -0.1542  0.0154
  447loPI   C1A 7143   7.300   0.424   8.435  0.1833  0.2315  0.1902
  447loPI   C2A 7144   7.275   0.649   8.089  0.0514 -0.4076 -0.0839
  447loPI   C3A 7145   7.390   0.630   7.642  0.7707 -0.2969 -0.0452
  447loPI   C4A 7146   7.810   0.468   7.370  0.1481  0.0933  0.0469
  447loPI   C5A 7147   8.087   0.664   7.028 -0.2256 -0.0713 -0.0598
  447loPI   C6A 7148   8.434   0.972   6.957 -0.1088  0.1467  0.1130
  447loPI   C1B 7149   6.910   0.880   8.484  0.0687 -0.0654 -0.1456
  447loPI   C2B 7150   6.824   0.983   8.055 -0.1320  0.3003 -0.3537
  447loPI   C3B 7151   6.874   1.015   7.642 -0.1623 -0.1714  0.1574
  447loPI   C4B 7152   6.880   1.335   7.271 -0.2121  0.1327 -0.2249
  448loPI    C1 7153   2.432  15.388   9.689 -0.0099  0.2774 -0.2154
  448loPI    C2 7154   2.457  15.643   9.997  0.2704  0.1654 -0.1426
  448loPI    C3 7155   2.487  15.249  10.060  0.0077  0.1219 -0.2756
  448loPI   PO4 7156   2.586  15.417   9.459  0.2496 -0.2336 -0.2796
  448loPI   GL1 7157   2.491  15.185   9.095  0.1391  0.1278  0.1528
  448loPI   GL2 7158   2.800  15.311   8.987 -0.2764  0.1300  0.1322
  448loPI   C1A 7159   2.369  15.319   8.692 -0.1037  0.0420 -0.0152
  448loPI   C2A 7160   2.045  15.388   8.398 -0.1031  0.2087 -0.4177
  448loPI   C3A 7161   1.745  15.647   8.164 -0.1371 -0.1020  0.1768
  448loPI   C4A 7162   1.593  15.746   7.712 -0.2301 -0.1693 -0.2399
  448loPI   C5A 7163   1.795  15.819   7.382  0.1196 -0.0034 -0.0563
  448loPI   C6A 7164   1.937  16.177   7.103 -0.0052 -0.0109  0.1294
  448loPI   C1B 7165   2.844  15.171   8.656  0.1532 -0.1172  0.1404
  448loPI   C2B 7166   2.802  15.534   8.318 -0.0678  0.1702  0.3017
  448loPI   C3B 7167   2.684  15.833   7.986  0.0123  0.0298  0.2498
  448loPI   C4B 7168   2.657  16.138   7.698 -0.1675 -0.0527  0.1968
  449loPI    C1 7169  15.238  12.214   9.247  0.2212 -0.2887  0.1401
  449loPI    C2 7170  15.614  12.256   9.377  0.1207  0.0047  0.3454
  449loPI    C3 7171  15.366  12.000   9.559  0.1417  0.0114  0.3832
  449loPI   PO4 7172  15.216  12.301   8.986 -0.4517  0.0389 -0.1267
  449loPI   GL1 7173  14.985  12.380   8.622 -0.3815 -0.2067  0.0071
  449loPI   GL2 7174  14.769  12.151   8.424  0.0314 -0.1619  0.5779
  449loPI   C1A 7175  15.139  12.591   8.258 -0.0613 -0.0719 -0.1955
  449loPI   C2A 7176  15.224  12.653   7.917 -0.0203  0.0902  0.1608
  449loPI   C3A 7177  15.177  12.812   7.462 -0.3344 -0.1373 -0.2106
  449loPI   C4A 7178  15.179  12.736   7.095 -0.0596 -0.0877  0.1646
  449loPI   C5A 7179  15.389  12.524   6.803  0.0933 -0.1785  0.1415
  449loPI   C6A 7180  15.269  12.193   6.636  0.1600  0.0185  0.1659
  449loPI   C1B 7181  14.873  12.032   7.976 -0.0359  0.0409 -0.2099
  449loPI   C2B 7182  15.245  12.222   7.728  0.0215 -0.0188 -0.1229
  449loPI   C3B 7183  15.636  11.970   7.663  0.1246 -0.1537 -0.0779
  449loPI   C4B 7184  16.074  11.969   7.898  0.1129 -0.0988  0.0609
  450loPI    C1 7185   3.021   5.134   9.525 -0.0257 -0.2289  0.2407
  450loPI    C2 7186   3.181   5.019   9.873  0.0993 -0.0339  0.2494
  450loPI    C3 7187   3.345   5.321   9.668 -0.1407  0.0377  0.1592
  450loPI   PO4 7188   2.806   4.999   9.525  0.2062 -0.1955  0.2136
  450loPI   GL1 7189   2.653   4.836   9.143 -0.1411 -0.1740 -0.2228
  450loPI   GL2 7190   2.446   4.902   9.075  0.0443  0.3156  0.0804
  450loPI   C1A 7191   2.890   4.564   8.813 -0.1794 -0.3901 -0.1904
  450loPI   C2A 7192   2.978   4.510   8.396  0.1442  0.4810 -0.1260
  450loPI   C3A 7193   3.178   4.341   8.100 -0.1613  0.0301  0.1843
  450loPI   C4A 7194   3.259   4.147   7.689  0.1670  0.2315  0.0654
  450loPI   C5A 7195   3.449   3.925   7.346  0.0465  0.2724 -0.0862
  450loPI   C6A 7196   3.586   3.741   6.963  0.1582  0.0201 -0.2288
  450loPI   C1B 7197   2.374   4.759   8.649  0.1221  0.1209  0.0029
  450loPI   C2B 7198   2.525   4.630   8.268  0.2086 -0.2417 -0.2638
  450loPI   C3B 7199   2.760   4.751   8.031  0.1251  0.1900  0.0320
  450loPI   C4B 7200   3.219   4.762   7.824  0.2824  0.0082 -0.2877
  451loPI    C1 7201  19.140  10.260   9.018  0.3715 -0.0580 -0.0758
  451loPI    C2 7202  19.238  10.642   9.086  0.2638  0.0047 -0.2634
  451loPI    C3 7203  19.389  10.352   9.317 -0.0116  0.1985  0.1729
  451loPI   PO4 7204  19.219  10.148   8.770  0.1516  0.0741 -0.2600
  451loPI   GL1 7205  19.216  10.194   8.344  0.0144 -0.0728  0.1526
  451loPI   GL2 7206  18.879  10.333   8.273  0.3670 -0.0539  0.0307
  451loPI   C1A 7207  19.289  10.319   7.901  0.4235  0.1508 -0.2660
  451loPI   C2A 7208  19.191  10.450   7.400  0.0716  0.1589  0.1972
  451loPI   C3A 7209  19.389  10.699   7.090 -0.1257 -0.3751 -0.1092
  451loPI   C4A 7210  19.630  10.909   6.725  0.1717 -0.2051  0.1275
  451loPI   C5A 7211  19.881  11.267   6.507 -0.1975  0.0258  0.2929
  451loPI   C6A 7212  20.256  11.575   6.674  0.0635  0.1972 -0.0392
  451loPI   C1B 7213  18.995   9.931   8.005 -0.1742 -0.2035  0.0234
  451loPI   C2B 7214  19.364   9.948   7.606  0.1225  0.1856 -0.3249
  451loPI   C3B 7215  19.390  10.045   7.216 -0.0239  0.0605  0.0234
  451loPI   C4B 7216  19.249  10.228   6.882 -0.0211 -0.0942  0.1107
  452loPI    C1 7217   5.782  12.829  10.048  0.3641 -0.0354 -0.2801
  452loPI    C2 7218   5.764  13.152  10.283 -0.1014  0.0033 -0.3602
  452loPI    C3 7219   5.969  12.830  10.402 -0.0027  0.1654 -0.0803
  452loPI   PO4 7220   5.790  12.944   9.778 -0.2691 -0.7346  0.1747
  452loPI   GL1 7221   5.465  12.934   9.506  0.1481 -0.3890  0.4374
  452loPI   GL2 7222   5.243  12.830   9.329  0.0144  0.1137 -0.0255
  452loPI   C1A 7223   5.744  12.996   9.133 -0.2818 -0.0576  0.0567
  452loPI   C2A 7224   5.667  12.924   8.802 -0.1741 -0.0501 -0.2351
  452loPI   C3A 7225   5.788  12.783   8.463 -0.1706 -0.0005 -0.2947
  452loPI   C4A 7226   5.930  12.817   8.066 -0.4351  0.0853  0.0356
  452loPI   C5A 7227   6.208  12.833   7.733  0.0142  0.0143 -0.2584
  452loPI   C6A 7228   6.102  12.765   7.201 -0.3786 -0.0848 -0.1829
  452loPI   C1B 7229   5.142  12.811   9.027  0.1130  0.3251 -0.2475
  452loPI   C2B 7230   5.246  12.941   8.599 -0.2311 -0.4521  0.1074
  452loPI   C3B 7231   5.483  13.022   8.184 -0.0001 -0.2503 -0.0966
  452loPI   C4B 7232   5.654  13.032   7.734  0.1944 -0.3452 -0.2414
  453loPI    C1 7233   9.528   8.979  10.092 -0.1745  0.0326  0.0750
  453loPI    C2 7234   9.721   8.718  10.326  0.1230  0.2863  0.1200
  453loPI    C3 7235   9.752   9.110  10.396 -0.2268  0.3427 -0.0169
  453loPI   PO4 7236   9.315   8.863  10.047 -0.0651  0.0769  0.2063
  453loPI   GL1 7237   9.187   8.649   9.675  0.4155  0.0667 -0.2034
  453loPI   GL2 7238   9.389   8.501   9.556  0.0702 -0.0663 -0.2721
  453loPI   C1A 7239   9.083   8.767   9.318 -0.1798  0.1963 -0.0369
  453loPI   C2A 7240   9.326   8.739   8.877  0.0435 -0.1561  0.0077
  453loPI   C3A 7241   9.457   8.677   8.533  0.3637  0.1217  0.0047
  453loPI   C4A 7242   9.755   8.625   8.181 -0.0233  0.0211 -0.2914
  453loPI   C5A 7243   9.854   8.735   7.802  0.1528  0.2451 -0.1534
  453loPI   C6A 7244   9.793   8.567   7.416  0.1141  0.0114  0.3703
  453loPI   C1B 7245   9.652   8.624   9.254 -0.0801 -0.0816  0.0355
  453loPI   C2B 7246   9.897   8.989   9.102 -0.0936 -0.1084 -0.3980
  453loPI   C3B 7247  10.044   9.302   8.875  0.2009  0.0596 -0.2418
  453loPI   C4B 7248  10.163   9.546   8.567  0.0327 -0.0135 -0.0809
  454loPI    C1 7249   6.269   5.272   9.541  0.2048 -0.0329 -0.4625
  454loPI    C2 7250   6.601   5.238   9.762  0.0423  0.0850 -0.1947
  454loPI    C3 7251   6.250   5.313   9.939 -0.1968 -0.4180 -0.4340
  454loPI   PO4 7252   6.289   5.486   9.368 -0.2389  0.0769 -0.1037
  454loPI   GL1 7253   6.400   5.437   8.949  0.2329  0.1854 -0.2684
  454loPI   GL2 7254   6.488   5.178   8.831 -0.2397 -0.3519 -0.0148
  454loPI   C1A 7255   6.269   5.478   8.546 -0.0268 -0.0354  0.2540
  454loPI   C2A 7256   6.271   5.571   8.165  0.1050 -0.2166 -0.2681
  454loPI   C3A 7257   6.709   5.594   7.975 -0.0696  0.0267 -0.0739
  454loPI   C4A 7258   6.969   5.787   7.707 -0.1755 -0.0849  0.0304
  454loPI   C5A 7259   7.248   5.815   7.322 -0.2028  0.2008 -0.2241
  454loPI   C6A 7260   7.488   5.482   7.081 -0.1528  0.1187  0.3041
  454loPI   C1B 7261   6.882   4.976   8.732 -0.1744  0.0661 -0.2668
  454loPI   C2B 7262   7.108   5.048   8.342  0.0173  0.1307 -0.0454
  454loPI   C3B 7263   7.562   5.237   8.266 -0.0292 -0.0568 -0.1998
  454loPI   C4B 7264   8.056   5.292   8.418 -0.0513 -0.0955 -0.4029
  455loPI    C1 7265   3.543  11.983   9.840  0.1750 -0.0180  0.1832
  455loPI    C2 7266   3.463  12.197  10.169 -0.1950 -0.1542  0.1859
  455loPI    C3 7267   3.747  11.915  10.178 -0.0395  0.0047  0.3189
  455loPI   PO4 7268   3.529  12.133   9.684 -0.4163  0.3010  0.0713
  455loPI   GL1 7269   3.651  12.410   9.365  0.2949 -0.0951 -0.0040
  455loPI   GL2 7270   3.905  12.350   9.321 -0.0467 -0.1465  0.2420
  455loPI   C1A 7271   3.620  12.459   8.928 -0.1393 -0.1258 -0.1198
  455loPI   C2A 7272   3.727  12.369   8.535 -0.1421 -0.1656 -0.0514
  455loPI   C3A 7273   3.937  12.512   8.118 -0.1445 -0.3597  0.0734
  455loPI   C4A 7274   4.074  12.745   7.772 -0.0431 -0.2062 -0.1914
  455loPI   C5A 7275   4.588  12.893   7.835 -0.0576  0.1553  0.5139
  455loPI   C6A 7276   4.791  13.052   7.516 -0.1006  0.1198 -0.0740
  455loPI   C1B 7277   4.174  12.514   9.108 -0.0715  0.0143  0.4715
  455loPI   C2B 7278   4.524  12.642   8.854 -0.2081 -0.0472  0.2749
  455loPI   C3B 7279   4.758  12.885   8.672 -0.2995 -0.1670  0.1159
  455loPI   C4B 7280   4.848  13.142   8.356  0.1413 -0.4200 -0.4977
  456loPI    C1 7281   0.977   6.597   9.500  0.0192  0.1007  0.0038
  456loPI    C2 7282   0.686   6.857   9.588 -0.0146  0.0070  0.1712
  456loPI    C3 7283   0.889   6.675   9.882  0.2180  0.0763  0.0561
  456loPI   PO4 7284   0.894   6.484   9.344 -0.2450  0.0615  0.1004
  456loPI   GL1 7285   0.752   6.738   8.970  0.0684 -0.1455 -0.1557
  456loPI   GL2 7286   1.101   6.696   8.944 -0.0578  0.0182 -0.3837
  456loPI   C1A 7287   0.398   6.848   8.650 -0.0941  0.0041 -0.0819
  456loPI   C2A 7288   0.506   6.728   8.283  0.3607 -0.3357 -0.1935
  456loPI   C3A 7289   0.406   6.597   7.811 -0.0684  0.1945 -0.1651
  456loPI   C4A 7290   0.341   6.313   7.330  0.1416 -0.3695 -0.1087
  456loPI   C5A 7291   0.578   5.931   7.156  0.1743 -0.1517 -0.0524
  456loPI   C6A 7292   0.722   5.792   6.741 -0.2800 -0.0216  0.1332
  456loPI   C1B 7293   0.998   6.581   8.507 -0.0748 -0.1746 -0.3802
  456loPI   C2B 7294   1.095   6.515   8.096 -0.1703 -0.1427 -0.0682
  456loPI   C3B 7295   1.311   6.514   7.742 -0.1414  0.2036 -0.2039
  456loPI   C4B 7296   1.732   6.632   7.553  0.1072  0.1911  0.1699
  457loPI    C1 7297  18.399  16.601   9.138 -0.0180  0.0937  0.0140
  457loPI    C2 7298  18.157  16.600   9.456 -0.0743 -0.1325 -0.0279
  457loPI    C3 7299  18.468  16.350   9.442 -0.0499 -0.0964 -0.1339
  457loPI   PO4 7300  18.257  16.630   8.896  0.0614  0.2629 -0.0741
  457loPI   GL1 7301  18.073  16.990   8.694  0.0947 -0.1186  0.2715
  457loPI   GL2 7302  18.443  17.047   8.790 -0.1096  0.0165  0.0701
  457loPI   C1A 7303  17.993  16.823   8.270 -0.0820  0.0430 -0.1995
  457loPI   C2A 7304  17.924  16.680   7.844  0.2173 -0.2014 -0.0193
  457loPI   C3A 7305  18.061  16.717   7.466  0.2302 -0.0005  0.2667
  457loPI   C4A 7306  18.222  16.805   7.034  0.2371 -0.0574  0.0697
  457loPI   C5A 7307  18.516  16.536   6.798 -0.0309 -0.1961 -0.1357
  457loPI   C6A 7308  18.483  16.212   6.569  0.2245  0.0797 -0.0566
  457loPI   C1B 7309  18.418  17.136   8.371 -0.0157 -0.3644  0.0208
  457loPI   C2B 7310  18.404  16.934   7.975  0.0601  0.2081  0.1321
  457loPI   C3B 7311  18.744  16.948   7.609  0.1292 -0.0805 -0.2622
  457loPI   C4B 7312  19.177  17.054   7.564 -0.0578  0.0487 -0.2376
  458loPI    C1 7313  10.139  14.633  10.041 -0.1897 -0.2506  0.1533
  458loPI    C2 7314  10.421  14.366  10.139 -0.0230 -0.1509 -0.0481
  458loPI    C3 7315  10.432  14.735  10.294  0.1912 -0.0203 -0.3617
  458loPI   PO4 7316  10.112  14.619   9.779  0.2158  0.1480 -0.1733
  458loPI   GL1 7317   9.881  14.819   9.455  0.0516 -0.0972  0.0915
  458loPI   GL2 7318   9.531  14.964   9.368 -0.1250  0.1027 -0.0007
  458loPI   C1A 7319   9.909  14.435   9.171 -0.0057 -0.3639  0.2009
  458loPI   C2A 7320  10.217  14.318   8.836  0.1919  0.2143  0.0381
  458loPI   C3A 7321  10.199  14.300   8.433  0.2118 -0.4509  0.1621
  458loPI   C4A 7322  10.196  14.262   8.077  0.1338  0.1413  0.0485
  458loPI   C5A 7323  10.284  14.235   7.667  0.2124 -0.0184  0.5235
  458loPI   C6A 7324  10.202  14.399   7.271  0.1344 -0.1674 -0.2752
  458loPI   C1B 7325   9.637  14.862   8.961  0.1899 -0.1676 -0.0909
  458loPI   C2B 7326   9.760  14.570   8.604 -0.0391 -0.0212 -0.2328
  458loPI   C3B 7327   9.885  14.606   8.089  0.4370 -0.2151 -0.0950
  458loPI   C4B 7328  10.025  14.721   7.624 -0.3586 -0.2193 -0.0956
  459loPI    C1 7329   7.277   7.684   9.486  0.1915 -0.0683 -0.1413
  459loPI    C2 7330   7.194   7.627   9.873  0.1497  0.1150 -0.1228
  459loPI    C3 7331   6.930   7.517   9.594  0.1093  0.1321 -0.0916
  459loPI   PO4 7332   7.537   7.666   9.418  0.2303  0.4343  0.1039
  459loPI   GL1 7333   7.543   7.835   9.067  0.1305 -0.0666 -0.0694
  459loPI   GL2 7334   7.262   8.096   9.057  0.1112  0.2381  0.1832
  459loPI   C1A 7335   7.604   7.994   8.615  0.1560  0.4572 -0.1449
  459loPI   C2A 7336   7.583   8.119   8.126 -0.0965  0.1931 -0.1508
  459loPI   C3A 7337   7.627   8.459   7.867  0.1055 -0.4005 -0.2246
  459loPI   C4A 7338   7.838   8.574   7.518  0.1597 -0.2236 -0.0636
  459loPI   C5A 7339   7.986   8.282   7.095 -0.2007  0.0212  0.2102
  459loPI   C6A 7340   7.730   8.007   6.870  0.0086  0.0343 -0.1276
  459loPI   C1B 7341   7.331   8.411   8.788 -0.2628 -0.0227 -0.1166
  459loPI   C2B 7342   7.328   8.712   8.506  0.0254  0.3883  0.1445
  459loPI   C3B 7343   7.271   8.837   7.986 -0.0104  0.1093  0.1770
  459loPI   C4B 7344   7.218   8.907   7.482 -0.1624 -0.3050 -0.0294
  460loPI    C1 7345   6.054   3.276   9.545 -0.1292 -0.0215  0.0791
  460loPI    C2 7346   6.255   3.232   9.888  0.0163  0.3381  0.0448
  460loPI    C3 7347   5.881   3.094   9.856  0.2482 -0.3414  0.1094
  460loPI   PO4 7348   6.194   3.173   9.375  0.0272 -0.4554 -0.1405
  460loPI   GL1 7349   6.462   3.248   9.061 -0.3091  0.1243 -0.0422
  460loPI   GL2 7350   6.613   3.563   9.098  0.2061  0.2769 -0.1712
  460loPI   C1A 7351   6.659   3.257   8.712 -0.0420 -0.0139  0.0896
  460loPI   C2A 7352   6.501   3.196   8.212  0.0080  0.0540  0.2691
  460loPI   C3A 7353   6.365   3.269   7.823  0.0566 -0.1528  0.2613
  460loPI   C4A 7354   6.267   3.064   7.444  0.0330  0.0901  0.3385
  460loPI   C5A 7355   6.117   2.612   7.201  0.0617  0.1808 -0.0264
  460loPI   C6A 7356   5.912   2.209   6.982  0.2248  0.3315 -0.1487
  460loPI   C1B 7357   6.445   3.761   8.822  0.0444  0.0849 -0.0208
  460loPI   C2B 7358   6.491   3.686   8.348  0.2435  0.4711  0.1013
  460loPI   C3B 7359   6.280   3.781   7.993 -0.0720 -0.0211 -0.1501
  460loPI   C4B 7360   6.196   3.635   7.477  0.1712 -0.1966 -0.1212
  461loPI    C1 7361   6.237   2.051   9.758 -0.2071 -0.5766 -0.1536
  461loPI    C2 7362   6.253   1.877  10.118  0.1476 -0.0769  0.0850
  461loPI    C3 7363   6.590   1.996   9.938 -0.0460 -0.1088 -0.3102
  461loPI   PO4 7364   6.111   1.910   9.592 -0.1019 -0.0369 -0.0952
  461loPI   GL1 7365   5.813   1.865   9.257 -0.0187  0.3263 -0.1719
  461loPI   GL2 7366   5.648   1.632   9.347 -0.1449 -0.1378  0.1515
  461loPI   C1A 7367   5.899   1.815   8.814 -0.4132 -0.1299 -0.0766
  461loPI   C2A 7368   5.891   2.095   8.519  0.4159  0.0009  0.0963
  461loPI   C3A 7369   5.776   2.574   8.216  0.0373  0.0035  0.1801
  461loPI   C4A 7370   5.520   2.576   7.935 -0.1377 -0.1542  0.3058
  461loPI   C5A 7371   5.406   2.545   7.493 -0.3073  0.2328  0.0823
  461loPI   C6A 7372   5.582   2.611   7.171 -0.0056 -0.1722  0.2860
  461loPI   C1B 7373   5.447   1.547   8.903 -0.1850  0.0501  0.2890
  461loPI   C2B 7374   5.245   1.500   8.480 -0.0024  0.2624  0.1537
  461loPI   C3B 7375   5.438   1.378   8.075 -0.0930  0.1424  0.1914
  461loPI   C4B 7376   5.896   1.297   7.927  0.0844  0.1952  0.0626
  462loPI    C1 7377  13.967  12.136   9.310 -0.1099 -0.0383  0.0766
  462loPI    C2 7378  14.064  12.470   9.508 -0.0147  0.1154 -0.2234
  462loPI    C3 7379  14.339  12.280   9.288 -0.1315 -0.0252 -0.2497
  462loPI   PO4 7380  13.786  12.223   9.135  0.3750  0.0286  0.1937
  462loPI   GL1 7381  13.425  12.314   8.859  0.2173 -0.2217 -0.1865
  462loPI   GL2 7382  13.530  12.058   8.653  0.4876  0.3451  0.1876
  462loPI   C1A 7383  13.476  12.628   8.556 -0.1315  0.1081 -0.0736
  462loPI   C2A 7384  13.635  12.445   8.208 -0.1126 -0.0385 -0.1755
  462loPI   C3A 7385  14.138  12.533   7.851 -0.2208  0.2149  0.0010
  462loPI   C4A 7386  14.437  12.736   7.651 -0.0062 -0.3830  0.2463
  462loPI   C5A 7387  14.650  12.907   7.329 -0.2605 -0.4575 -0.1796
  462loPI   C6A 7388  14.889  13.121   6.960  0.0663 -0.1086 -0.0444
  462loPI   C1B 7389  13.367  11.954   8.317  0.1897  0.0202 -0.0035
  462loPI   C2B 7390  13.326  11.841   7.918 -0.0286  0.3596  0.1458
  462loPI   C3B 7391  13.143  11.891   7.581  0.2859  0.3510 -0.1929
  462loPI   C4B 7392  13.118  12.191   7.174  0.0671  0.2127  0.1170
  463loPI    C1 7393   4.443   6.079  10.126 -0.0437 -0.0176  0.2717
  463loPI    C2 7394   4.788   6.183  10.299  0.0272 -0.0538  0.1530
  463loPI    C3 7395   4.542   5.928  10.483  0.0211  0.0423  0.2793
  463loPI   PO4 7396   4.499   6.073   9.872 -0.1258 -0.0481  0.2018
  463loPI   GL1 7397   4.362   6.194   9.579 -0.1432 -0.1696 -0.1268
  463loPI   GL2 7398   4.681   6.206   9.430  0.0361 -0.0168  0.1350
  463loPI   C1A 7399   4.273   6.235   9.171  0.1533  0.0583  0.4332
  463loPI   C2A 7400   3.997   6.355   8.769 -0.0412  0.3322 -0.0512
  463loPI   C3A 7401   3.982   6.167   8.373  0.1845 -0.2923 -0.1109
  463loPI   C4A 7402   4.184   6.302   7.959  0.0487 -0.0705  0.2099
  463loPI   C5A 7403   4.320   6.365   7.568  0.0552 -0.0062 -0.2606
  463loPI   C6A 7404   4.188   6.284   7.062 -0.2697 -0.0208  0.1458
  463loPI   C1B 7405   4.778   6.360   9.054 -0.3548 -0.3084 -0.0219
  463loPI   C2B 7406   4.571   6.442   8.773  0.1555 -0.0154 -0.1415
  463loPI   C3B 7407   4.261   6.551   8.342 -0.2729 -0.2321 -0.0936
  463loPI   C4B 7408   4.321   6.856   8.004  0.1209  0.0331 -0.0445
  464loPI    C1 7409   1.537  16.590   9.647 -0.0600 -0.0287 -0.0374
  464loPI    C2 7410   1.315  16.639   9.976 -0.0590  0.0377 -0.0465
  464loPI    C3 7411   1.713  16.666   9.998 -0.0683  0.2189 -0.0849
  464loPI   PO4 7412   1.540  16.723   9.451 -0.0249  0.1965  0.0587
  464loPI   GL1 7413   1.833  16.729   9.109  0.1544  0.2053  0.0056
  464loPI   GL2 7414   1.910  17.040   9.101  0.1958 -0.2338  0.1650
  464loPI   C1A 7415   1.788  16.492   8.710  0.2698 -0.1177 -0.3112
  464loPI   C2A 7416   1.793  16.743   8.316  0.2480 -0.2152 -0.2704
  464loPI   C3A 7417   1.712  16.703   7.864 -0.2879 -0.1084  0.1661
  464loPI   C4A 7418   1.815  16.709   7.337 -0.0514 -0.1245 -0.2059
  464loPI   C5A 7419   2.058  16.686   7.011 -0.0734 -0.3841  0.1693
  464loPI   C6A 7420   1.940  16.543   6.501 -0.1140 -0.0662 -0.0529
  464loPI   C1B 7421   1.923  17.059   8.683 -0.0008 -0.0391  0.1328
  464loPI   C2B 7422   2.104  17.197   8.181 -0.1171  0.2531 -0.0260
  464loPI   C3B 7423   2.076  17.379   7.780 -0.0637  0.0285 -0.0523
  464loPI   C4B 7424   2.261  17.280   7.291  0.0392  0.0707 -0.0292
  465loPI    C1 7425   7.891   6.854   9.660 -0.2468  0.1816  0.0126
  465loPI    C2 7426   7.853   6.904  10.055 -0.0910  0.0099  0.0508
  465loPI    C3 7427   7.875   6.535   9.901  0.1273  0.0798 -0.0896
  465loPI   PO4 7428   8.063   6.984   9.574  0.3722 -0.1106 -0.2982
  465loPI   GL1 7429   8.318   7.117   9.257  0.0119  0.0840 -0.0361
  465loPI   GL2 7430   8.575   6.958   9.437  0.1172  0.1372  0.3357
  465loPI   C1A 7431   8.570   7.130   8.849  0.0320  0.0515  0.0718
  465loPI   C2A 7432   8.804   7.353   8.634  0.0874 -0.1980  0.0085
  465loPI   C3A 7433   9.106   7.344   8.299  0.1400 -0.2213 -0.1595
  465loPI   C4A 7434   9.160   7.359   7.841 -0.1521 -0.4597  0.0405
  465loPI   C5A 7435   9.333   7.025   7.511 -0.4427 -0.2104  0.0943
  465loPI   C6A 7436   9.620   7.223   7.318 -0.1356 -0.0415  0.5108
  465loPI   C1B 7437   8.536   6.541   9.141  0.0071 -0.1397  0.2153
  465loPI   C2B 7438   8.659   6.278   8.920  0.0234  0.1824 -0.2669
  465loPI   C3B 7439   8.566   6.092   8.511 -0.0649 -0.0536 -0.0203
  465loPI   C4B 7440   8.707   5.944   8.034 -0.1099 -0.1416 -0.1630
  466loPI    C1 7441  15.725  15.434   9.478 -0.1366  0.0380  0.0912
  466loPI    C2 7442  16.114  15.428   9.384 -0.1175  0.1559  0.1607
  466loPI    C3 7443  15.970  15.174   9.657 -0.0206  0.3484  0.3944
  466loPI   PO4 7444  15.608  15.479   9.221  0.0046 -0.2547  0.0994
  466loPI   GL1 7445  15.527  15.300   8.805 -0.0672 -0.1417  0.2064
  466loPI   GL2 7446  15.559  15.699   8.746  0.0622  0.0479  0.0277
  466loPI   C1A 7447  15.772  15.327   8.368 -0.2423 -0.2517 -0.0015
  466loPI   C2A 7448  15.757  15.327   7.928 -0.1750  0.1024  0.0276
  466loPI   C3A 7449  15.833  15.386   7.485 -0.3620  0.2117 -0.2337
  466loPI   C4A 7450  16.007  15.181   7.044 -0.2385  0.0535  0.0390
  466loPI   C5A 7451  16.081  14.815   6.668  0.0066 -0.3006 -0.1519
  466loPI   C6A 7452  15.788  14.704   6.396  0.1554 -0.0557  0.2745
  466loPI   C1B 7453  15.688  15.797   8.227  0.0449 -0.1421 -0.0754
  466loPI   C2B 7454  15.423  15.737   7.796 -0.1662 -0.3608  0.2383
  466loPI   C3B 7455  15.338  15.610   7.315 -0.0603 -0.0505 -0.3440
  466loPI   C4B 7456  15.637  15.465   6.992  0.2095  0.1839 -0.0975
  467loPI    C1 7457   7.372  10.454   9.720  0.0687  0.0811  0.2076
  467loPI    C2 7458   7.385  10.125   9.492 -0.0835  0.2205 -0.0051
  467loPI    C3 7459   7.325  10.093   9.886  0.3551 -0.0339  0.0474
  467loPI   PO4 7460   7.604  10.545   9.605  0.0154  0.1023 -0.0918
  467loPI   GL1 7461   7.436  10.728   9.189  0.0957  0.3055 -0.1863
  467loPI   GL2 7462   7.660  10.831   8.922 -0.0775  0.2065 -0.5698
  467loPI   C1A 7463   7.156  10.775   8.886  0.1693  0.1591  0.0264
  467loPI   C2A 7464   6.793  10.697   8.452  0.1412  0.1056 -0.1786
  467loPI   C3A 7465   6.497  10.396   8.182  0.1038  0.1901  0.0391
  467loPI   C4A 7466   6.435  10.185   7.738  0.0465  0.0325  0.1725
  467loPI   C5A 7467   5.970   9.866   7.672 -0.0062 -0.0035 -0.0547
  467loPI   C6A 7468   6.068   9.508   7.326 -0.1724 -0.2229 -0.1462
  467loPI   C1B 7469   7.867  11.052   8.636 -0.2068 -0.0427 -0.1049
  467loPI   C2B 7470   7.992  11.134   8.329 -0.1182 -0.0609  0.2676
  467loPI   C3B 7471   8.082  11.348   7.955  0.1844 -0.0690  0.2080
  467loPI   C4B 7472   8.353  11.486   7.575 -0.0052  0.2612 -0.1236
  468loPI    C1 7473   9.329   0.179   9.785 -0.1176 -0.3699  0.1359
  468loPI    C2 7474   9.493   0.453  10.027 -0.2450 -0.3183  0.1651
  468loPI    C3 7475   9.659   0.090   9.993  0.0106 -0.1904  0.0128
  468loPI   PO4 7476   9.204   0.259   9.525 -0.3430  0.0192  0.2096
  468loPI   GL1 7477   9.380   0.339   9.194 -0.0196 -0.0381  0.2679
  468loPI   GL2 7478   9.556   0.589   9.024  0.0483 -0.3240  0.0326
  468loPI   C1A 7479   9.317   0.253   8.709 -0.0916 -0.0498 -0.3200
  468loPI   C2A 7480   9.485   0.072   8.369  0.2691 -0.0335 -0.0877
  468loPI   C3A 7481   9.325  -0.276   8.072 -0.2597  0.0279 -0.0104
  468loPI   C4A 7482   9.447  -0.263   7.665 -0.1675 -0.0659 -0.0550
  468loPI   C5A 7483   9.533   0.024   7.385 -0.0955 -0.0145  0.3156
  468loPI   C6A 7484   9.793   0.283   7.363 -0.0042  0.1170  0.2216
  468loPI   C1B 7485   9.756   0.429   8.661 -0.0325 -0.0449 -0.1191
  468loPI   C2B 7486   9.621   0.574   8.198 -0.1274 -0.0778 -0.3083
  468loPI   C3B 7487   9.478   0.686   7.766 -0.1960  0.0622 -0.1079
  468loPI   C4B 7488   9.392   0.486   7.194  0.0452  0.2211  0.2427
  469loPI    C1 7489   7.030  17.096   9.921  0.1176 -0.0918 -0.1724
  469loPI    C2 7490   6.713  16.929  10.099  0.2007  0.1734  0.2387
  469loPI    C3 7491   7.081  16.850  10.232  0.2875  0.1326 -0.0194
  469loPI   PO4 7492   7.034  17.090   9.623 -0.2005  0.1047  0.0057
  469loPI   GL1 7493   7.162  17.086   9.181  0.1384  0.0308 -0.1254
  469loPI   GL2 7494   7.094  17.356   9.077 -0.1892  0.1181 -0.0824
  469loPI   C1A 7495   7.129  16.983   8.735  0.1896 -0.0408 -0.3401
  469loPI   C2A 7496   7.276  16.791   8.351  0.2878  0.0722 -0.0241
  469loPI   C3A 7497   7.306  16.662   7.882 -0.0742 -0.5585 -0.1530
  469loPI   C4A 7498   7.200  16.825   7.559  0.2984  0.1657  0.1523
  469loPI   C5A 7499   7.024  17.207   7.270 -0.2021  0.1153 -0.0256
  469loPI   C6A 7500   7.223  17.331   6.835 -0.0273 -0.1659 -0.0559
  469loPI   C1B 7501   6.821  17.529   8.858  0.1197 -0.0789 -0.0382
  469loPI   C2B 7502   6.741  17.494   8.438  0.1357  0.2382 -0.1370
  469loPI   C3B 7503   6.645  17.626   8.109 -0.1979 -0.0266  0.0671
  469loPI   C4B 7504   6.507  17.845   7.786  0.0356 -0.0522  0.0257
  470loPI    C1 7505   2.294   5.201   9.359 -0.0858  0.0699  0.0582
  470loPI    C2 7506   2.213   5.438   9.670  0.1343  0.1024  0.0928
  470loPI    C3 7507   2.326   5.060   9.731  0.0444  0.0676  0.0466
  470loPI   PO4 7508   2.059   5.235   9.175  0.0630 -0.0937  0.4758
  470loPI   GL1 7509   2.214   5.184   8.743 -0.0331 -0.1758 -0.3115
  470loPI   GL2 7510   1.901   5.247   8.731  0.3538 -0.0104 -0.1309
  470loPI   C1A 7511   2.143   4.946   8.283  0.1059  0.3054  0.3030
  470loPI   C2A 7512   2.286   4.802   7.838  0.1859  0.2129 -0.1527
  470loPI   C3A 7513   2.387   4.624   7.489 -0.0978 -0.3283  0.0226
  470loPI   C4A 7514   2.455   4.838   7.051 -0.1694  0.2289 -0.0633
  470loPI   C5A 7515   2.864   5.060   7.020  0.2035  0.1259  0.0496
  470loPI   C6A 7516   3.109   5.367   7.333 -0.0290  0.1712 -0.2045
  470loPI   C1B 7517   1.561   5.422   8.497  0.1441 -0.0722  0.3070
  470loPI   C2B 7518   1.244   5.554   8.082  0.0192  0.1599 -0.0934
  470loPI   C3B 7519   1.158   5.463   7.559  0.0292  0.2269  0.2902
  470loPI   C4B 7520   1.183   5.458   7.138 -0.0643 -0.1062  0.0980
  471loPI    C1 7521   9.602  17.435   9.581  0.4762  0.1411 -0.2778
  471loPI    C2 7522   9.630  17.582   9.951  0.1737 -0.0383 -0.1795
  471loPI    C3 7523   9.855  17.735   9.657  0.2441  0.2644  0.0265
  471loPI   PO4 7524   9.345  17.391   9.593 -0.0157 -0.1019  0.0909
  471loPI   GL1 7525   9.011  17.432   9.205  0.0756 -0.0260 -0.1080
  471loPI   GL2 7526   8.691  17.731   9.202  0.3380 -0.0743 -0.1049
  471loPI   C1A 7527   9.131  17.250   8.765 -0.0915 -0.2023  0.0803
  471loPI   C2A 7528   9.074  17.229   8.266 -0.1420 -0.0657  0.0138
  471loPI   C3A 7529   8.951  17.202   7.751 -0.0290 -0.0322  0.0086
  471loPI   C4A 7530   8.872  17.159   7.338  0.3254 -0.0635  0.0838
  471loPI   C5A 7531   9.107  17.051   6.987 -0.2249 -0.0281 -0.2469
  471loPI   C6A 7532   9.339  17.292   6.625  0.2629 -0.1882  0.0751
  471loPI   C1B 7533   8.820  17.670   8.816 -0.3906  0.1855 -0.2204
  471loPI   C2B 7534   8.719  17.718   8.365  0.0775  0.1017  0.1555
  471loPI   C3B 7535   8.682  17.536   8.016  0.0159 -0.0442 -0.1351
  471loPI   C4B 7536   8.474  17.304   7.652  0.0183 -0.1755 -0.1894
  472loPI    C1 7537   9.222  16.595   9.719 -0.1493 -0.1250 -0.0659
  472loPI    C2 7538   9.410  16.582  10.072  0.0115  0.0933 -0.1417
  472loPI    C3 7539   9.061  16.393  10.025 -0.0422  0.1150  0.1524
  472loPI   PO4 7540   9.316  16.447   9.502 -0.2792  0.0618  0.1149
  472loPI   GL1 7541   9.239  16.298   9.151 -0.1423 -0.1170 -0.0335
  472loPI   GL2 7542   8.980  16.399   8.999  0.1620 -0.0248  0.2837
  472loPI   C1A 7543   9.421  16.452   8.755 -0.0204  0.1046 -0.0008
  472loPI   C2A 7544   9.551  16.580   8.320 -0.3303  0.1267 -0.0725
  472loPI   C3A 7545   9.864  16.710   8.111  0.1691 -0.1711 -0.0169
  472loPI   C4A 7546  10.188  16.698   7.961 -0.1067 -0.2182  0.1346
  472loPI   C5A 7547  10.388  16.342   7.678  0.1466 -0.0967  0.0991
  472loPI   C6A 7548  10.344  15.891   7.620  0.0530 -0.1498  0.1324
  472loPI   C1B 7549   9.078  16.180   8.638 -0.0721  0.0093 -0.2577
  472loPI   C2B 7550   9.215  16.231   8.184  0.0663  0.0373  0.1062
  472loPI   C3B 7551   9.304  16.465   7.808  0.0583 -0.3828  0.0234
  472loPI   C4B 7552   9.664  16.652   7.553  0.0252 -0.1081 -0.2380
  473loPI    C1 7553  16.301   9.289   9.205 -0.0557 -0.2646 -0.1094
  473loPI    C2 7554  16.258   9.201   9.593 -0.3838  0.0127 -0.0776
  473loPI    C3 7555  16.377   9.566   9.484  0.2058 -0.2136 -0.2289
  473loPI   PO4 7556  16.246   9.047   9.095  0.0806  0.2253 -0.2721
  473loPI   GL1 7557  15.989   8.929   8.722 -0.1729 -0.1768  0.5255
  473loPI   GL2 7558  16.197   8.729   8.560  0.0055 -0.1583  0.1425
  473loPI   C1A 7559  15.972   9.085   8.310  0.3431 -0.1008  0.2076
  473loPI   C2A 7560  16.096   9.146   7.935 -0.3807 -0.0042 -0.0331
  473loPI   C3A 7561  16.038   9.027   7.544  0.0243 -0.2398 -0.1485
  473loPI   C4A 7562  15.938   8.945   7.135 -0.0016  0.1127  0.0584
  473loPI   C5A 7563  16.057   9.120   6.640 -0.0334  0.2235 -0.3243
  473loPI   C6A 7564  16.309   9.264   6.314 -0.2885 -0.0359  0.3149
  473loPI   C1B 7565  16.330   8.695   8.103  0.3217 -0.0118 -0.2203
  473loPI   C2B 7566  16.276   8.589   7.702 -0.0828  0.1120  0.1867
  473loPI   C3B 7567  16.088   8.477   7.312  0.1280  0.1058 -0.2199
  473loPI   C4B 7568  15.977   8.439   6.941 -0.0572  0.0171 -0.2002
  474loPI    C1 7569   0.153   9.792   9.130  0.0554  0.1189 -0.0953
  474loPI    C2 7570   0.285   9.997   9.447  0.2687 -0.0567 -0.0678
  474loPI    C3 7571   0.248   9.600   9.468  0.0890 -0.0479 -0.1986
  474loPI   PO4 7572   0.277   9.950   8.977 -0.0678 -0.2497  0.1587
  474loPI   GL1 7573   0.133   9.921   8.655  0.0091  0.2954  0.2056
  474loPI   GL2 7574  -0.164  10.076   8.453  0.0360  0.1359 -0.1544
  474loPI   C1A 7575   0.222   9.870   8.246  0.1298 -0.0512  0.5052
  474loPI   C2A 7576   0.346   9.717   7.879 -0.0613  0.2779 -0.0493
  474loPI   C3A 7577   0.308   9.708   7.528  0.0260  0.0848  0.0948
  474loPI   C4A 7578   0.139   9.775   7.197  0.2276  0.2131 -0.2447
  474loPI   C5A 7579  -0.038   9.958   6.860 -0.0762  0.1188 -0.0013
  474loPI   C6A 7580  -0.358   9.959   6.489 -0.2102 -0.0616 -0.0311
  474loPI   C1B 7581  -0.266  10.024   8.073 -0.2245  0.0574  0.5186
  474loPI   C2B 7582  -0.257  10.252   7.667 -0.0326 -0.1562 -0.0629
  474loPI   C3B 7583  -0.246  10.577   7.406 -0.0164 -0.1751 -0.0383
  474loPI   C4B 7584  -0.045  10.813   7.090 -0.1995  0.2517 -0.1069
  475loPI    C1 7585  16.109  10.498   9.203 -0.1886  0.1187 -0.2205
  475loPI    C2 7586  16.069  10.891   9.264 -0.1753  0.0712  0.1116
  475loPI    C3 7587  16.367  10.691   9.440 -0.2322 -0.1032  0.0114
  475loPI   PO4 7588  16.144  10.487   8.960  0.1093 -0.3627  0.1412
  475loPI   GL1 7589  15.994  10.278   8.648 -0.3552 -0.0752  0.2230
  475loPI   GL2 7590  16.420  10.357   8.617  0.3329 -0.2866 -0.3909
  475loPI   C1A 7591  15.852  10.316   8.180 -0.3911 -0.0575  0.1786
  475loPI   C2A 7592  15.920  10.526   7.815  0.4698  0.2650  0.0059
  475loPI   C3A 7593  15.775  10.498   7.388 -0.0305 -0.2463 -0.0380
  475loPI   C4A 7594  15.668  10.586   6.923 -0.0259  0.0817  0.4646
  475loPI   C5A 7595  15.720  11.010   6.632 -0.0256  0.4274 -0.0671
  475loPI   C6A 7596  15.853  11.421   6.493 -0.1848  0.1635 -0.2003
  475loPI   C1B 7597  16.249  10.556   8.215  0.5631  0.0043  0.0763
  475loPI   C2B 7598  16.254  10.194   7.945 -0.0741  0.0152  0.2542
  475loPI   C3B 7599  16.322  10.230   7.542 -0.1828 -0.1724  0.0408
  475loPI   C4B 7600  16.275   9.905   7.234  0.2216 -0.3538  0.1397
  476loPI    C1 7601  15.430   7.755   8.949  0.2308  0.3265 -0.0477
  476loPI    C2 7602  15.756   7.685   9.170  0.0701 -0.0799  0.0708
  476loPI    C3 7603  15.407   7.766   9.348  0.0059 -0.1061 -0.0421
  476loPI   PO4 7604  15.551   7.757   8.731 -0.1642  0.0409 -0.0631
  476loPI   GL1 7605  15.441   8.016   8.358 -0.1501 -0.1272  0.2323
  476loPI   GL2 7606  15.768   7.896   8.172  0.3006  0.1590 -0.0129
  476loPI   C1A 7607  15.342   8.324   8.036 -0.1650  0.0596 -0.1963
  476loPI   C2A 7608  15.217   8.172   7.631  0.1324  0.0304 -0.2988
  476loPI   C3A 7609  15.082   7.938   7.339  0.1605 -0.0977  0.1344
  476loPI   C4A 7610  14.798   7.930   6.978 -0.3387 -0.0727 -0.1105
  476loPI   C5A 7611  14.246   7.796   7.116 -0.1606 -0.5685  0.1650
  476loPI   C6A 7612  13.983   7.489   7.283  0.1128  0.1261 -0.1694
  476loPI   C1B 7613  15.520   7.878   7.908 -0.0461  0.7184  0.2268
  476loPI   C2B 7614  15.350   7.614   7.514 -0.0669 -0.2255 -0.1072
  476loPI   C3B 7615  15.546   7.722   7.126 -0.0541  0.0518  0.5334
  476loPI   C4B 7616  15.441   7.991   6.696  0.2039  0.1809  0.0434
  477loPI    C1 7617   9.512   7.299   9.927 -0.1102 -0.0019 -0.1702
  477loPI    C2 7618   9.230   7.493   9.720 -0.1741  0.1222  0.0294
  477loPI    C3 7619   9.260   7.546  10.115 -0.1829 -0.2653  0.0864
  477loPI   PO4 7620   9.692   7.153   9.766 -0.0376  0.0686 -0.0846
  477loPI   GL1 7621   9.751   7.058   9.490 -0.2580 -0.0335 -0.0980
  477loPI   GL2 7622  10.009   7.049   9.378 -0.0162 -0.1781 -0.2570
  477loPI   C1A 7623   9.508   7.324   9.175  0.1885 -0.0722 -0.0995
  477loPI   C2A 7624   9.259   7.536   8.872 -0.0334 -0.0251 -0.0147
  477loPI   C3A 7625   9.341   7.800   8.540 -0.0493 -0.0013  0.2204
  477loPI   C4A 7626   9.370   8.080   8.137 -0.1845 -0.0557 -0.2799
  477loPI   C5A 7627   9.372   8.100   7.782  0.1528  0.0427 -0.0419
  477loPI   C6A 7628   9.293   8.242   7.350  0.5600  0.1554  0.3165
  477loPI   C1B 7629   9.832   7.017   8.979 -0.0548 -0.1370  0.4413
  477loPI   C2B 7630   9.622   7.241   8.668 -0.0216 -0.2800 -0.1330
  477loPI   C3B 7631   9.603   7.268   8.216  0.3032 -0.2874 -0.1115
  477loPI   C4B 7632   9.668   7.221   7.818 -0.1949 -0.2086 -0.0165
  478loPI    C1 7633   2.611   4.191   9.845  0.0820  0.4397 -0.0461
  478loPI    C2 7634   2.552   4.108  10.232  0.0674  0.0029 -0.1372
  478loPI    C3 7635   2.906   4.249  10.109  0.1197  0.0057  0.0146
  478loPI   PO4 7636   2.438   4.271   9.682  0.2354  0.1268 -0.1575
  478loPI   GL1 7637   2.529   4.350   9.188 -0.2204 -0.0974 -0.1482
  478loPI   GL2 7638   2.517   4.010   9.158  0.1091  0.0299  0.1668
  478loPI   C1A 7639   2.500   4.232   8.694 -0.0706 -0.0932  0.0365
  478loPI   C2A 7640   2.567   4.115   8.340 -0.1589  0.1101 -0.1553
  478loPI   C3A 7641   2.767   4.059   7.951 -0.0275 -0.1182  0.0695
  478loPI   C4A 7642   2.808   4.318   7.643  0.0828 -0.1777 -0.3473
  478loPI   C5A 7643   2.943   4.650   7.430 -0.2447  0.1730  0.4109
  478loPI   C6A 7644   2.819   5.018   7.588  0.1179 -0.0588  0.1705
  478loPI   C1B 7645   2.521   3.760   8.724  0.0983  0.1553  0.1566
  478loPI   C2B 7646   2.320   3.649   8.292 -0.0734 -0.0396 -0.1771
  478loPI   C3B 7647   2.212   3.465   7.912  0.0964  0.0935 -0.2995
  478loPI   C4B 7648   2.100   3.413   7.497  0.1819 -0.0896  0.1909
  479loPI    C1 7649   5.725  10.958   9.924  0.0102 -0.0003 -0.1669
  479loPI    C2 7650   5.819  10.598   9.777 -0.1006 -0.1078  0.0228
  479loPI    C3 7651   6.088  10.803   9.989  0.0274  0.0064 -0.2454
  479loPI   PO4 7652   5.429  10.944   9.768 -0.0767 -0.0713  0.0990
  479loPI   GL1 7653   5.313  11.109   9.440  0.1702 -0.1895  0.0705
  479loPI   GL2 7654   5.219  10.796   9.260  0.1869  0.0786 -0.1359
  479loPI   C1A 7655   5.567  11.137   9.040 -0.1080  0.0820  0.1345
  479loPI   C2A 7656   5.568  11.080   8.553 -0.1078 -0.0172 -0.0728
  479loPI   C3A 7657   5.458  10.701   8.358  0.2969  0.1308  0.0991
  479loPI   C4A 7658   5.558  10.658   7.964  0.0149 -0.0931  0.1413
  479loPI   C5A 7659   5.740  10.775   7.586  0.2607 -0.2350  0.1021
  479loPI   C6A 7660   5.884  11.185   7.451  0.2164 -0.1453 -0.0337
  479loPI   C1B 7661   5.173  10.840   8.857  0.1400 -0.1118  0.1107
  479loPI   C2B 7662   5.051  11.007   8.489 -0.1743  0.1053 -0.0975
  479loPI   C3B 7663   5.195  11.022   8.043 -0.2747 -0.4452 -0.1841
  479loPI   C4B 7664   5.336  11.032   7.655  0.0845  0.0994 -0.0028
  480loPI    C1 7665  11.726  17.834   9.536  0.1550  0.1542 -0.1306
  480loPI    C2 7666  11.739  18.074   9.856  0.2635 -0.0303  0.0060
  480loPI    C3 7667  11.678  17.682   9.903  0.4398 -0.0829 -0.1878
  480loPI   PO4 7668  12.009  17.987   9.413 -0.0938  0.1253  0.0931
  480loPI   GL1 7669  11.908  18.055   8.992  0.0874 -0.0991  0.0855
  480loPI   GL2 7670  11.645  17.843   9.042 -0.4099  0.0399  0.0264
  480loPI   C1A 7671  11.830  18.179   8.543  0.0209 -0.1116 -0.1204
  480loPI   C2A 7672  12.002  18.401   8.237 -0.0682  0.1405  0.2754
  480loPI   C3A 7673  12.090  18.539   7.879 -0.0716  0.1479 -0.0772
  480loPI   C4A 7674  12.178  18.644   7.459  0.3464  0.2557  0.0790
  480loPI   C5A 7675  12.163  18.772   7.106  0.3149 -0.1736  0.2765
  480loPI   C6A 7676  12.212  18.808   6.649  0.0751  0.1225  0.0893
  480loPI   C1B 7677  11.572  17.694   8.602 -0.0416 -0.1165  0.0673
  480loPI   C2B 7678  11.560  17.469   8.216 -0.2497 -0.0187 -0.2163
  480loPI   C3B 7679  11.477  17.329   7.771 -0.1533  0.1038  0.0054
  480loPI   C4B 7680  11.271  17.592   7.491  0.1025  0.2952  0.0764
  481loPI    C1 7681   0.832  17.943   9.862 -0.1097 -0.1034 -0.0764
  481loPI    C2 7682   0.834  17.543   9.851 -0.1689 -0.1051 -0.0256
  481loPI    C3 7683   1.022  17.736  10.147  0.0505 -0.0900 -0.1721
  481loPI   PO4 7684   0.872  18.035   9.639  0.3121  0.0238  0.1037
  481loPI   GL1 7685   1.059  18.056   9.355  0.0153  0.1418 -0.0742
  481loPI   GL2 7686   1.233  17.883   9.166 -0.3079  0.0411 -0.0938
  481loPI   C1A 7687   0.956  18.347   9.020 -0.2007  0.2707 -0.1678
  481loPI   C2A 7688   0.789  18.376   8.556  0.2001  0.2204 -0.0899
  481loPI   C3A 7689   0.917  18.443   8.093  0.1071 -0.1592 -0.1455
  481loPI   C4A 7690   1.152  18.409   7.636 -0.1339 -0.0862 -0.1047
  481loPI   C5A 7691   1.288  18.708   7.266 -0.0945 -0.1883 -0.2987
  481loPI   C6A 7692   1.282  18.785   6.881  0.5234  0.2871  0.2650
  481loPI   C1B 7693   1.119  17.931   8.771  0.1431  0.1195  0.1807
  481loPI   C2B 7694   1.214  18.048   8.347  0.0257  0.0653 -0.2870
  481loPI   C3B 7695   1.466  18.062   7.944 -0.1677  0.0580 -0.2555
  481loPI   C4B 7696   1.364  18.104   7.379  0.1164  0.0153 -0.1166
  482loPI    C1 7697   4.319   2.598   9.854  0.0514  0.1667  0.1055
  482loPI    C2 7698   4.384   2.204   9.863 -0.0954  0.1390 -0.0081
  482loPI    C3 7699   4.200   2.383  10.169 -0.2278  0.0828 -0.0541
  482loPI   PO4 7700   4.206   2.692   9.679 -0.0708 -0.1019 -0.0482
  482loPI   GL1 7701   4.135   2.812   9.246 -0.0387  0.2757  0.1243
  482loPI   GL2 7702   4.519   2.784   9.167  0.1260 -0.0434 -0.1254
  482loPI   C1A 7703   4.008   2.595   8.909  0.2020 -0.0459 -0.0915
  482loPI   C2A 7704   4.011   2.484   8.506 -0.0176  0.0933 -0.0310
  482loPI   C3A 7705   3.743   2.515   8.115  0.1682  0.0251  0.2518
  482loPI   C4A 7706   3.715   2.636   7.639 -0.3817  0.1237 -0.0318
  482loPI   C5A 7707   4.013   2.911   7.307  0.4898 -0.0809 -0.1496
  482loPI   C6A 7708   3.898   2.887   6.884  0.1508 -0.1128 -0.1094
  482loPI   C1B 7709   4.707   2.639   8.872 -0.0937  0.0712  0.0444
  482loPI   C2B 7710   4.794   2.392   8.511 -0.2395  0.0521  0.1715
  482loPI   C3B 7711   4.761   2.270   8.103  0.0571  0.0724 -0.2717
  482loPI   C4B 7712   5.049   2.396   7.837 -0.0856  0.1780  0.3423
  483loPI    C1 7713   4.410  18.084  10.061 -0.0084  0.0150  0.1272
  483loPI    C2 7714   4.287  17.763  10.266 -0.0702 -0.2444 -0.3048
  483loPI    C3 7715   4.671  17.874  10.280 -0.0920 -0.2011  0.0225
  483loPI   PO4 7716   4.364  18.159   9.776 -0.1079 -0.2980 -0.4194
  483loPI   GL1 7717   4.105  18.516   9.581  0.2159 -0.2043  0.0811
  483loPI   GL2 7718   3.830  18.261   9.661  0.0041 -0.0354 -0.0070
  483loPI   C1A 7719   4.188  18.519   9.142  0.1124 -0.0093 -0.0598
  483loPI   C2A 7720   4.185  18.461   8.652  0.1077  0.1856  0.0002
  483loPI   C3A 7721   4.205  18.508   8.269  0.1233  0.0404  0.1116
  483loPI   C4A 7722   4.023  18.483   7.974 -0.1456  0.1671 -0.2107
  483loPI   C5A 7723   4.019  18.781   7.630 -0.2700  0.1549  0.1458
  483loPI   C6A 7724   3.814  19.039   7.219 -0.2270 -0.3636 -0.3229
  483loPI   C1B 7725   3.730  18.280   9.213 -0.0539 -0.1460  0.1132
  483loPI   C2B 7726   3.688  18.469   8.782 -0.0413 -0.1146 -0.1682
  483loPI   C3B 7727   3.259  18.521   8.748  0.4085  0.1809  0.1012
  483loPI   C4B 7728   2.821  18.437   9.090  0.0852 -0.1577 -0.1341
  484loPI    C1 7729   9.682   3.182   9.906 -0.1660  0.0655 -0.1071
  484loPI    C2 7730   9.880   3.525   9.962 -0.0254 -0.0163 -0.0987
  484loPI    C3 7731   9.927   3.222  10.219 -0.0241 -0.0988 -0.1959
  484loPI   PO4 7732   9.726   3.200   9.596 -0.1570  0.1877  0.1230
  484loPI   GL1 7733   9.359   3.263   9.262 -0.1905 -0.2793 -0.0477
  484loPI   GL2 7734   9.403   2.961   9.216  0.1285  0.1122 -0.0176
  484loPI   C1A 7735   9.280   3.204   8.822 -0.0071  0.2030 -0.2903
  484loPI   C2A 7736   9.176   3.246   8.391  0.1704 -0.0029  0.1438
  484loPI   C3A 7737   9.070   3.190   8.018 -0.2242 -0.3681 -0.1019
  484loPI   C4A 7738   8.890   3.178   7.679  0.4166 -0.0836  0.0656
  484loPI   C5A 7739   8.805   3.075   7.211 -0.0657 -0.0141 -0.0144
  484loPI   C6A 7740   8.960   3.189   6.835  0.1002 -0.1705 -0.0790
  484loPI   C1B 7741   9.622   2.807   8.755  0.0235  0.0853 -0.2192
  484loPI   C2B 7742   9.717   3.094   8.482 -0.2143  0.1558  0.2393
  484loPI   C3B 7743   9.635   3.165   8.105  0.3389  0.2612 -0.4196
  484loPI   C4B 7744   9.455   3.018   7.752  0.0539  0.0294  0.0946
  485loPI    C1 7745  17.322   8.156   9.339  0.0092  0.2247  0.0071
  485loPI    C2 7746  17.509   8.409   9.586  0.1991  0.0251  0.0718
  485loPI    C3 7747  17.585   8.017   9.608 -0.2014 -0.0567  0.0722
  485loPI   PO4 7748  17.355   8.376   9.125  0.0613 -0.0993  0.0502
  485loPI   GL1 7749  17.362   8.374   8.711  0.0808 -0.0056  0.0543
  485loPI   GL2 7750  17.210   8.240   8.550 -0.0100  0.0623  0.1166
  485loPI   C1A 7751  17.306   8.540   8.187 -0.1985 -0.1387 -0.2383
  485loPI   C2A 7752  17.177   8.574   7.844  0.3377 -0.0393 -0.0352
  485loPI   C3A 7753  17.072   8.733   7.403  0.1979  0.3608  0.0716
  485loPI   C4A 7754  16.902   8.890   6.960 -0.1614  0.0241  0.5037
  485loPI   C5A 7755  17.146   9.262   6.772 -0.1732  0.0980  0.2646
  485loPI   C6A 7756  17.371   9.373   6.455 -0.0362 -0.1008 -0.1643
  485loPI   C1B 7757  17.209   8.029   8.245  0.1304  0.1366 -0.3531
  485loPI   C2B 7758  17.048   8.094   7.842  0.0350  0.3308  0.0670
  485loPI   C3B 7759  17.035   8.212   7.361 -0.1891  0.0953 -0.0798
  485loPI   C4B 7760  17.227   8.477   7.012 -0.0056 -0.1780 -0.1040
  486loPI    C1 7761  12.816   4.996   9.664  0.0580  0.1444  0.2624
  486loPI    C2 7762  12.660   4.691   9.871  0.2387  0.0124  0.2063
  486loPI    C3 7763  12.606   5.066   9.997 -0.4572  0.0028 -0.0222
  486loPI   PO4 7764  12.726   5.037   9.406 -0.0604 -0.0890 -0.2282
  486loPI   GL1 7765  12.628   5.189   8.913 -0.1593  0.1840  0.2474
  486loPI   GL2 7766  12.976   5.142   8.976  0.3996 -0.0033  0.0216
  486loPI   C1A 7767  12.606   5.007   8.541 -0.3148 -0.3443  0.1519
  486loPI   C2A 7768  12.648   4.838   8.053  0.3002 -0.2677 -0.0412
  486loPI   C3A 7769  12.382   4.698   7.724  0.0923  0.0286 -0.0153
  486loPI   C4A 7770  12.273   4.789   7.422 -0.3432  0.1466 -0.1543
  486loPI   C5A 7771  12.157   5.081   7.032 -0.1413 -0.2039  0.0476
  486loPI   C6A 7772  11.904   5.176   6.639  0.0894  0.0277 -0.3294
  486loPI   C1B 7773  13.073   5.240   8.550 -0.1268 -0.1912  0.0305
  486loPI   C2B 7774  13.189   5.485   8.125 -0.0955  0.1134 -0.2048
  486loPI   C3B 7775  13.032   5.750   7.907  0.3768 -0.0457  0.3997
  486loPI   C4B 7776  12.566   5.747   7.906  0.2730 -0.0928 -0.0428
  487loPI    C1 7777  17.808   5.192   9.511  0.0149  0.1757  0.0945
  487loPI    C2 7778  17.510   5.113   9.256  0.1831  0.1112 -0.0848
  487loPI    C3 7779  17.540   4.907   9.598  0.2215 -0.1259 -0.2284
  487loPI   PO4 7780  18.024   5.251   9.185  0.1859 -0.1771 -0.2623
  487loPI   GL1 7781  18.206   5.589   8.757 -0.2481 -0.0571 -0.1474
  487loPI   GL2 7782  18.172   5.218   8.736  0.4442  0.1787 -0.2444
  487loPI   C1A 7783  18.231   5.545   8.261  0.3968  0.0189  0.2358
  487loPI   C2A 7784  18.364   5.867   7.935 -0.0899 -0.0212 -0.0320
  487loPI   C3A 7785  18.267   6.320   7.790  0.0045  0.0165  0.0299
  487loPI   C4A 7786  18.199   6.504   7.372 -0.2089  0.1146  0.1381
  487loPI   C5A 7787  18.073   6.492   6.924  0.1856 -0.1497  0.0124
  487loPI   C6A 7788  17.901   6.362   6.573 -0.2348  0.3682  0.0734
  487loPI   C1B 7789  18.156   5.043   8.209  0.0666  0.1084  0.2233
  487loPI   C2B 7790  17.998   4.887   7.799 -0.0403  0.1326  0.0042
  487loPI   C3B 7791  17.702   4.677   7.443  0.4471 -0.1523 -0.0305
  487loPI   C4B 7792  17.365   4.471   7.154 -0.0851  0.1468  0.1903
  488loPI    C1 7793   3.672  18.628  10.065  0.0664  0.0947 -0.0527
  488loPI    C2 7794   4.017  18.427  10.084 -0.0292 -0.0883 -0.2172
  488loPI    C3 7795   3.914  18.676  10.379  0.1267 -0.2224 -0.0476
  488loPI   PO4 7796   3.373  18.437   9.951  0.1944 -0.2602 -0.1701
  488loPI   GL1 7797   3.309  18.578   9.511  0.1404  0.1554 -0.0340
  488loPI   GL2 7798   3.076  18.249   9.536  0.0364 -0.0746 -0.0357
  488loPI   C1A 7799   3.748  18.759   9.282  0.1716 -0.1004 -0.0284
  488loPI   C2A 7800   3.817  18.955   8.938 -0.2281  0.0191  0.1618
  488loPI   C3A 7801   4.009  18.899   8.562 -0.1085 -0.0616  0.1040
  488loPI   C4A 7802   4.128  19.105   8.183  0.1653  0.1706 -0.2476
  488loPI   C5A 7803   4.403  19.054   7.871  0.0621  0.0329 -0.1706
  488loPI   C6A 7804   4.477  18.962   7.482 -0.0133  0.0938 -0.1289
  488loPI   C1B 7805   3.213  18.193   9.186 -0.3791  0.1520  0.0584
  488loPI   C2B 7806   3.043  18.069   8.755 -0.0816  0.0910 -0.0514
  488loPI   C3B 7807   2.720  18.289   8.556 -0.1529  0.1508 -0.1066
  488loPI   C4B 7808   2.380  18.533   8.430 -0.1910 -0.0848  0.1322
  489loPI    C1 7809  10.513   5.560   9.596  0.0757 -0.0060  0.0984
  489loPI    C2 7810  10.247   5.433   9.867  0.0693 -0.0824  0.0568
  489loPI    C3 7811  10.554   5.663   9.980 -0.0468  0.0543  0.0957
  489loPI   PO4 7812  10.163   5.563   9.343  0.2033  0.1270 -0.1037
  489loPI   GL1 7813  10.208   5.929   8.928 -0.0679 -0.0215 -0.1361
  489loPI   GL2 7814   9.988   6.143   8.886  0.0682  0.1093  0.2618
  489loPI   C1A 7815  10.230   5.687   8.518 -0.0923  0.0982 -0.4703
  489loPI   C2A 7816  10.448   5.340   8.305 -0.0316  0.5597  0.0039
  489loPI   C3A 7817  10.706   5.149   8.048  0.4390  0.1485 -0.4655
  489loPI   C4A 7818  10.760   5.219   7.557 -0.2779 -0.2355 -0.3027
  489loPI   C5A 7819  10.930   5.571   7.353  0.2847 -0.0638  0.1058
  489loPI   C6A 7820  11.135   5.869   7.162 -0.1490  0.2285  0.0911
  489loPI   C1B 7821  10.066   6.182   8.463  0.2317  0.1424  0.1099
  489loPI   C2B 7822   9.988   6.377   8.192  0.1126 -0.0396  0.0222
  489loPI   C3B 7823   9.648   6.281   7.880  0.0526 -0.2183 -0.0508
  489loPI   C4B 7824   9.407   6.088   7.438 -0.1492 -0.1426 -0.3606
  490loPI    C1 7825   5.307   1.427   9.874 -0.0076 -0.0566 -0.0079
  490loPI    C2 7826   5.383   1.387  10.265 -0.1048  0.0652  0.0242
  490loPI    C3 7827   5.011   1.336  10.127 -0.0322 -0.1887 -0.0836
  490loPI   PO4 7828   5.483   1.308   9.781 -0.0391  0.2571  0.2811
  490loPI   GL1 7829   5.472   1.172   9.321  0.1216 -0.0964 -0.2235
  490loPI   GL2 7830   5.143   1.509   9.402  0.1649 -0.2788  0.0413
  490loPI   C1A 7831   5.517   1.051   8.924  0.1549  0.2280 -0.3246
  490loPI   C2A 7832   5.547   1.079   8.481  0.1262 -0.3608  0.3771
  490loPI   C3A 7833   5.778   1.504   8.414 -0.0056 -0.0630  0.2056
  490loPI   C4A 7834   5.637   1.825   8.208 -0.3185 -0.0579  0.0341
  490loPI   C5A 7835   5.901   2.054   7.933  0.2906  0.0385  0.4021
  490loPI   C6A 7836   6.247   2.232   7.880 -0.1605 -0.0574 -0.1222
  490loPI   C1B 7837   4.908   1.563   9.033  0.0582  0.3768  0.2341
  490loPI   C2B 7838   4.739   1.384   8.649 -0.2156 -0.0205  0.0605
  490loPI   C3B 7839   4.642   1.499   8.325  0.0193  0.1973 -0.0956
  490loPI   C4B 7840   4.517   1.794   8.145 -0.0316  0.1444  0.1374
  491loPI    C1 7841  15.240  14.106   9.411  0.0466 -0.0304  0.0478
  491loPI    C2 7842  14.949  14.282   9.621 -0.2379 -0.2694 -0.1380
  491loPI    C3 7843  15.096  13.930   9.740  0.2035 -0.0036  0.1322
  491loPI   PO4 7844  15.173  14.117   9.050  0.0682 -0.1536 -0.2530
  491loPI   GL1 7845  15.058  13.995   8.642 -0.1290 -0.2620  0.3409
  491loPI   GL2 7846  15.285  13.834   8.660 -0.2694  0.1196 -0.0710
  491loPI   C1A 7847  14.666  13.978   8.372 -0.0556 -0.3529 -0.0459
  491loPI   C2A 7848  14.493  13.868   7.963  0.1054 -0.3818 -0.0096
  491loPI   C3A 7849  14.276  13.836   7.553  0.2676  0.3583 -0.0613
  491loPI   C4A 7850  14.234  14.062   7.231 -0.1903 -0.2899 -0.0890
  491loPI   C5A 7851  14.150  14.272   6.860 -0.1583  0.1105 -0.2688
  491loPI   C6A 7852  13.970  14.388   6.433  0.1663  0.0455 -0.4087
  491loPI   C1B 7853  15.691  13.999   8.433  0.1694  0.0156 -0.0267
  491loPI   C2B 7854  15.988  13.985   8.047  0.1348 -0.1114 -0.0800
  491loPI   C3B 7855  15.997  13.968   7.502  0.0698  0.0336 -0.1083
  491loPI   C4B 7856  16.132  13.887   7.076 -0.0034 -0.0577 -0.1969
  492loPI    C1 7857  10.881   2.119   9.815 -0.1390 -0.2579  0.0134
  492loPI    C2 7858  10.614   2.400   9.915  0.1892  0.0553  0.0301
  492loPI    C3 7859  10.719   2.120  10.181  0.0136  0.0385  0.0831
  492loPI   PO4 7860  10.814   1.976   9.584  0.1116  0.0067  0.0226
  492loPI   GL1 7861  10.736   2.083   9.170 -0.0779  0.1393 -0.1626
  492loPI   GL2 7862  10.498   2.351   9.086 -0.4603  0.3077 -0.1875
  492loPI   C1A 7863  11.076   2.023   8.835  0.1047 -0.1318  0.0232
  492loPI   C2A 7864  10.882   2.015   8.464 -0.0819 -0.0827  0.0314
  492loPI   C3A 7865  10.534   2.137   8.161  0.0586  0.0861  0.3659
  492loPI   C4A 7866  10.292   2.016   7.741 -0.3370  0.2114  0.3733
  492loPI   C5A 7867  10.060   1.898   7.411  0.3051  0.1234 -0.1700
  492loPI   C6A 7868   9.658   1.912   7.229  0.1510 -0.2341 -0.0037
  492loPI   C1B 7869  10.438   2.010   8.773 -0.0019 -0.0287  0.0347
  492loPI   C2B 7870  10.424   1.656   8.495 -0.0166 -0.0216  0.0251
  492loPI   C3B 7871  10.387   1.634   8.058 -0.1774  0.0421 -0.0726
  492loPI   C4B 7872  10.098   1.483   7.755 -0.1577  0.0140 -0.0902
  493loPI    C1 7873  10.327  16.495   9.455  0.0211 -0.2224 -0.0482
  493loPI    C2 7874  10.446  16.215   9.714 -0.1653 -0.0938  0.1811
  493loPI    C3 7875  10.236  16.530   9.843 -0.0414  0.1035 -0.0886
  493loPI   PO4 7876  10.216  16.366   9.229 -0.0588  0.0321 -0.0133
  493loPI   GL1 7877  10.068  15.981   8.933  0.4261 -0.0216  0.0764
  493loPI   GL2 7878   9.936  16.233   8.775  0.0045 -0.3336 -0.0225
  493loPI   C1A 7879  10.019  15.766   8.642 -0.3822  0.0850  0.2676
  493loPI   C2A 7880  10.155  15.924   8.367 -0.2653  0.0181 -0.0285
  493loPI   C3A 7881  10.348  16.293   8.196 -0.2723 -0.0681  0.1032
  493loPI   C4A 7882  10.688  16.540   7.973  0.0074 -0.0801 -0.0585
  493loPI   C5A 7883  10.635  16.785   7.531 -0.3504  0.3550  0.0409
  493loPI   C6A 7884  10.176  16.714   7.457 -0.0546  0.0574 -0.0314
  493loPI   C1B 7885  10.010  16.597   8.634  0.2095 -0.0566 -0.0660
  493loPI   C2B 7886  10.114  17.056   8.376  0.1297  0.4109 -0.2844
  493loPI   C3B 7887   9.965  17.271   7.917 -0.1744  0.3393 -0.0090
  493loPI   C4B 7888   9.822  17.248   7.472  0.2292  0.2367 -0.1795
  494loPI    C1 7889   3.379   6.117   9.493 -0.1596  0.0528 -0.0294
  494loPI    C2 7890   3.495   5.819   9.733  0.1295  0.1644 -0.0270
  494loPI    C3 7891   3.267   6.115   9.877 -0.0343  0.0228  0.0072
  494loPI   PO4 7892   3.320   6.010   9.310  0.1942  0.2811 -0.1182
  494loPI   GL1 7893   3.301   5.993   8.906 -0.1468  0.2789 -0.0846
  494loPI   GL2 7894   3.244   5.696   8.847  0.5154 -0.1438  0.1113
  494loPI   C1A 7895   3.474   6.139   8.540  0.2189 -0.0856  0.0714
  494loPI   C2A 7896   3.543   6.168   8.066  0.0981  0.0199  0.3598
  494loPI   C3A 7897   3.712   5.913   7.871 -0.1194  0.0822 -0.2395
  494loPI   C4A 7898   3.501   5.490   7.912 -0.1766 -0.3765  0.1617
  494loPI   C5A 7899   3.495   5.144   7.633  0.0805  0.0970 -0.0040
  494loPI   C6A 7900   3.374   4.851   7.353 -0.1037  0.1684  0.0577
  494loPI   C1B 7901   3.400   5.421   8.658  0.1015  0.0826 -0.2650
  494loPI   C2B 7902   3.570   5.183   8.351 -0.1885  0.2120 -0.0759
  494loPI   C3B 7903   3.946   4.998   8.440  0.1635 -0.0977 -0.0991
  494loPI   C4B 7904   3.951   4.594   8.590 -0.2901  0.2634  0.2185
  495loPI    C1 7905  19.581   7.098   9.427  0.0037 -0.3385  0.3470
  495loPI    C2 7906  19.896   7.345   9.426 -0.2975  0.0642 -0.1199
  495loPI    C3 7907  19.690   7.285   9.764  0.0531  0.0853  0.1030
  495loPI   PO4 7908  19.675   6.831   9.224  0.3513 -0.1142 -0.1035
  495loPI   GL1 7909  19.682   6.860   8.832 -0.2346 -0.2640 -0.1543
  495loPI   GL2 7910  19.370   6.811   8.751  0.3218 -0.4208 -0.1011
  495loPI   C1A 7911  20.011   6.520   8.625 -0.3205 -0.1106 -0.0261
  495loPI   C2A 7912  20.150   6.355   8.240  0.5368 -0.2181 -0.2757
  495loPI   C3A 7913  20.051   6.236   7.775 -0.0801 -0.0442  0.1419
  495loPI   C4A 7914  19.725   6.167   7.492  0.0091  0.1575  0.3464
  495loPI   C5A 7915  19.408   6.008   7.176  0.1880  0.0486  0.2597
  495loPI   C6A 7916  19.633   6.052   6.778  0.0670  0.0332  0.2066
  495loPI   C1B 7917  19.414   7.052   8.385 -0.1271 -0.3444  0.1787
  495loPI   C2B 7918  19.700   7.330   8.321  0.0925 -0.2687 -0.0769
  495loPI   C3B 7919  19.796   7.486   7.892  0.3925 -0.0919 -0.0651
  495loPI   C4B 7920  20.072   7.436   7.575  0.0456 -0.3583  0.4183
  496loPI    C1 7921   1.741   9.844   9.612  0.0570 -0.1519 -0.0552
  496loPI    C2 7922   1.437   9.728   9.845  0.0847  0.3081  0.2234
  496loPI    C3 7923   1.812   9.633   9.944  0.0705  0.1881  0.1637
  496loPI   PO4 7924   1.709   9.761   9.370  0.3716 -0.4384  0.3961
  496loPI   GL1 7925   1.743   9.950   8.932  0.2681  0.2360  0.3057
  496loPI   GL2 7926   1.753  10.189   8.812 -0.1637  0.2055 -0.2678
  496loPI   C1A 7927   1.646   9.627   8.684 -0.0251  0.0275  0.1228
  496loPI   C2A 7928   1.534   9.516   8.347 -0.4134 -0.0872  0.2252
  496loPI   C3A 7929   1.540   9.456   7.866 -0.2242 -0.0631 -0.2469
  496loPI   C4A 7930   1.504   9.431   7.442 -0.0188 -0.1123 -0.0577
  496loPI   C5A 7931   1.310   9.432   6.985  0.0872  0.2207 -0.0409
  496loPI   C6A 7932   0.997   9.615   6.641  0.1506  0.0812 -0.1524
  496loPI   C1B 7933   2.069  10.476   8.703  0.1172 -0.1497  0.0434
  496loPI   C2B 7934   2.186  10.686   8.340  0.2033 -0.4476 -0.0021
  496loPI   C3B 7935   2.267  10.777   7.932 -0.1972 -0.4949  0.0231
  496loPI   C4B 7936   2.264  10.449   7.544  0.2168 -0.2016  0.0715
  497loPI    C1 7937   8.370   8.372   9.968 -0.0156  0.1284  0.2286
  497loPI    C2 7938   8.695   8.253   9.768 -0.0519  0.1212  0.1738
  497loPI    C3 7939   8.646   8.146  10.150 -0.1820 -0.2119  0.0672
  497loPI   PO4 7940   8.249   8.470   9.735  0.2049 -0.0218 -0.2915
  497loPI   GL1 7941   8.127   8.240   9.354  0.1145  0.1998  0.1486
  497loPI   GL2 7942   7.937   7.984   9.322  0.1141 -0.3922 -0.2184
  497loPI   C1A 7943   8.525   8.053   9.141 -0.0718  0.1491 -0.1156
  497loPI   C2A 7944   8.776   7.886   8.836 -0.2233  0.2054 -0.1662
  497loPI   C3A 7945   8.819   7.772   8.351 -0.0899  0.3216 -0.0316
  497loPI   C4A 7946   8.970   7.778   8.088  0.0936  0.1851  0.2344
  497loPI   C5A 7947   8.786   7.777   7.614 -0.1649 -0.0162  0.1250
  497loPI   C6A 7948   8.785   8.077   7.246 -0.1491  0.1206 -0.2061
  497loPI   C1B 7949   8.075   8.003   8.847 -0.3573  0.0231 -0.1404
  497loPI   C2B 7950   8.408   8.087   8.563 -0.0969  0.0797 -0.0085
  497loPI   C3B 7951   8.556   8.300   8.282 -0.1388  0.1723  0.3040
  497loPI   C4B 7952   8.811   8.255   7.992  0.0473  0.0639 -0.2521
  498loPI    C1 7953  11.783  10.154   9.945  0.0774 -0.2355 -0.2931
  498loPI    C2 7954  11.402  10.212   9.840  0.0475 -0.2307 -0.1830
  498loPI    C3 7955  11.501   9.899  10.069  0.0570 -0.0384  0.0805
  498loPI   PO4 7956  11.937  10.190   9.733  0.4221 -0.1481 -0.3500
  498loPI   GL1 7957  11.937  10.432   9.333  0.0621  0.0562  0.0629
  498loPI   GL2 7958  11.643  10.241   9.341 -0.0418 -0.3550 -0.2645
  498loPI   C1A 7959  11.902  10.540   8.896 -0.1538  0.0526 -0.2505
  498loPI   C2A 7960  11.840  10.672   8.559 -0.0270 -0.0076 -0.2594
  498loPI   C3A 7961  11.687  10.938   8.232 -0.1488  0.0903 -0.1671
  498loPI   C4A 7962  11.596  11.187   7.775  0.0331  0.0241  0.1418
  498loPI   C5A 7963  11.437  11.393   7.404  0.0377 -0.0795 -0.1065
  498loPI   C6A 7964  11.047  11.350   7.194  0.0918  0.0727 -0.1887
  498loPI   C1B 7965  11.465  10.289   9.130  0.1154 -0.2000  0.1216
  498loPI   C2B 7966  11.206  10.182   8.714 -0.3330  0.1721  0.0128
  498loPI   C3B 7967  10.926   9.976   8.329 -0.0499 -0.1739 -0.0544
  498loPI   C4B 7968  11.017   9.808   8.024 -0.4003  0.2608 -0.0003
  499loPI    C1 7969  16.710  18.283   9.183 -0.0537  0.0919  0.0018
  499loPI    C2 7970  16.571  17.946   9.017  0.0068 -0.1034  0.3375
  499loPI    C3 7971  16.960  17.981   9.103  0.0096  0.0744  0.2562
  499loPI   PO4 7972  16.589  18.455   9.024 -0.1353  0.1598  0.0747
  499loPI   GL1 7973  16.516  18.448   8.536 -0.3869  0.4260 -0.1403
  499loPI   GL2 7974  16.904  18.191   8.625 -0.0623  0.0317  0.1028
  499loPI   C1A 7975  16.499  18.663   8.203 -0.3032  0.1387  0.3034
  499loPI   C2A 7976  16.662  18.705   7.840 -0.4354  0.0700  0.0899
  499loPI   C3A 7977  16.719  19.035   7.607 -0.0452 -0.0453  0.1320
  499loPI   C4A 7978  16.756  19.357   7.300  0.2654  0.0385  0.1099
  499loPI   C5A 7979  16.714  19.741   7.054  0.0338  0.1031 -0.1868
  499loPI   C6A 7980  16.720  19.731   6.572 -0.1999 -0.1684 -0.2162
  499loPI   C1B 7981  16.930  18.362   8.136  0.1036  0.1733 -0.0896
  499loPI   C2B 7982  16.927  18.312   7.708 -0.0587  0.1258  0.0898
  499loPI   C3B 7983  17.078  18.382   7.227 -0.0507  0.1016 -0.6494
  499loPI   C4B 7984  17.428  18.539   6.918  0.1053 -0.0606  0.1676
  500loPI    C1 7985   1.750   6.050   9.594 -0.2441  0.2676  0.2711
  500loPI    C2 7986   1.381   5.901   9.637 -0.0985 -0.1234  0.2063
  500loPI    C3 7987   1.551   6.104   9.936 -0.3314 -0.0165  0.2682
  500loPI   PO4 7988   1.777   6.063   9.283  0.0221  0.0726  0.0406
  500loPI   GL1 7989   1.566   6.001   8.796  0.3085 -0.2488 -0.0223
  500loPI   GL2 7990   1.364   6.242   8.642 -0.0314  0.0044  0.1383
  500loPI   C1A 7991   1.933   5.744   8.757  0.0489 -0.2495  0.4674
  500loPI   C2A 7992   2.043   5.535   8.310  0.0247 -0.0174 -0.1184
  500loPI   C3A 7993   2.069   5.294   7.942  0.3483  0.1869  0.0488
  500loPI   C4A 7994   2.042   5.158   7.500 -0.0884 -0.1446 -0.2565
  500loPI   C5A 7995   2.114   5.211   7.047  0.1517 -0.1950  0.0614
  500loPI   C6A 7996   2.125   5.181   6.562  0.1047 -0.2487  0.1201
  500loPI   C1B 7997   1.341   6.053   8.245  0.0537 -0.2208  0.1006
  500loPI   C2B 7998   1.342   6.008   7.791  0.2350 -0.0797 -0.2191
  500loPI   C3B 7999   1.589   6.064   7.361  0.1465  0.2585  0.3826
  500loPI   C4B 8000   1.829   5.943   7.034  0.1223  0.0057 -0.1109
  501loPI    C1 8001  11.514   0.900   9.568 -0.0576  0.1918  0.0230
  501loPI    C2 8002  11.421   1.107   9.239 -0.0098 -0.1274 -0.1960
  501loPI    C3 8003  11.210   1.160   9.575 -0.0365  0.2267 -0.2641
  501loPI   PO4 8004  11.615   0.687   9.462 -0.2552 -0.0911  0.1265
  501loPI   GL1 8005  11.566   0.667   9.099 -0.0491 -0.1552  0.2046
  501loPI   GL2 8006  11.797   0.582   8.897 -0.1672 -0.0213 -0.0181
  501loPI   C1A 8007  11.494   0.894   8.665 -0.3576 -0.1898 -0.1439
  501loPI   C2A 8008  11.373   1.238   8.451  0.0322  0.1554  0.2032
  501loPI   C3A 8009  11.167   1.207   8.115  0.0138 -0.2600 -0.1716
  501loPI   C4A 8010  10.969   1.239   7.759  0.4348 -0.4594  0.0282
  501loPI   C5A 8011  10.840   1.113   7.338 -0.0937 -0.2671  0.1871
  501loPI   C6A 8012  10.795   0.881   6.977 -0.1202  0.0786 -0.0352
  501loPI   C1B 8013  11.934   0.632   8.540 -0.0523  0.2463  0.1167
  501loPI   C2B 8014  11.726   0.530   8.124  0.2246  0.0307  0.4987
  501loPI   C3B 8015  11.698   0.403   7.771 -0.0666  0.2031 -0.1933
  501loPI   C4B 8016  11.869   0.345   7.364 -0.0068  0.2407 -0.1179
  502loPI    C1 8017   7.499   5.609   9.541  0.2229  0.0827  0.0715
  502loPI    C2 8018   7.618   5.227   9.535 -0.3863 -0.1162 -0.0487
  502loPI    C3 8019   7.587   5.421   9.883 -0.1448 -0.1962  0.0193
  502loPI   PO4 8020   7.649   5.689   9.316 -0.2602  0.1964 -0.1810
  502loPI   GL1 8021   7.754   5.794   8.933  0.1508 -0.1355  0.1040
  502loPI   GL2 8022   7.519   5.987   8.892  0.0408 -0.0470 -0.3080
  502loPI   C1A 8023   7.772   5.728   8.504  0.2376 -0.3328  0.0589
  502loPI   C2A 8024   7.556   5.908   8.139 -0.0922  0.1134  0.0407
  502loPI   C3A 8025   7.633   5.891   7.662  0.1287  0.0090  0.0180
  502loPI   C4A 8026   7.636   6.070   7.281  0.1068 -0.0757  0.2520
  502loPI   C5A 8027   7.806   5.931   6.833 -0.1483  0.0866  0.0073
  502loPI   C6A 8028   7.696   5.652   6.523  0.3467  0.1373 -0.1218
  502loPI   C1B 8029   7.560   6.216   8.575 -0.0626 -0.2346 -0.1675
  502loPI   C2B 8030   7.838   6.285   8.122 -0.2619  0.1205 -0.1623
  502loPI   C3B 8031   8.038   6.276   7.805  0.0840  0.2655 -0.0024
  502loPI   C4B 8032   8.219   5.909   7.621 -0.0391  0.0722  0.1581
  503loPI    C1 8033  13.735   9.252   9.499  0.2047 -0.0474 -0.0676
  503loPI    C2 8034  13.677   9.012   9.813  0.0089 -0.0625 -0.1147
  503loPI    C3 8035  13.938   9.313   9.838 -0.0641 -0.0149  0.0899
  503loPI   PO4 8036  13.796   9.092   9.251  0.2647  0.0228  0.0261
  503loPI   GL1 8037  13.889   9.174   8.863  0.2513  0.2030 -0.3680
  503loPI   GL2 8038  13.736   9.023   8.680 -0.0812 -0.1188  0.3410
  503loPI   C1A 8039  14.062   9.523   8.557  0.0101 -0.0497  0.0724
  503loPI   C2A 8040  14.029   9.719   8.221  0.1636  0.3650  0.5191
  503loPI   C3A 8041  14.171   9.898   7.839 -0.3875  0.1214 -0.0998
  503loPI   C4A 8042  14.144  10.297   7.697  0.0558 -0.0601  0.0244
  503loPI   C5A 8043  14.126  10.205   7.272  0.0229 -0.1507 -0.3419
  503loPI   C6A 8044  14.015  10.204   6.936 -0.2635 -0.0741 -0.0723
  503loPI   C1B 8045  13.705   8.838   8.253 -0.0060  0.3050 -0.3136
  503loPI   C2B 8046  13.766   8.600   7.850  0.0678  0.0287  0.2074
  503loPI   C3B 8047  13.910   8.209   7.770 -0.0674 -0.1185  0.2906
  503loPI   C4B 8048  14.081   7.928   7.577 -0.1384 -0.0040 -0.0998
  504loPI    C1 8049   6.455   7.858   9.786  0.1272 -0.0902 -0.1477
  504loPI    C2 8050   6.365   7.887  10.175 -0.0135  0.1378 -0.1954
  504loPI    C3 8051   6.594   7.586  10.044  0.0926  0.0991  0.0735
  504loPI   PO4 8052   6.182   7.916   9.684  0.0355  0.1744 -0.2328
  504loPI   GL1 8053   6.044   7.837   9.317 -0.0622  0.0394  0.1570
  504loPI   GL2 8054   6.051   7.585   9.125 -0.1595  0.1596  0.0932
  504loPI   C1A 8055   5.923   8.126   8.990 -0.0627 -0.3720 -0.3771
  504loPI   C2A 8056   6.091   8.241   8.574 -0.1128  0.0056 -0.1123
  504loPI   C3A 8057   5.909   8.217   8.071 -0.0067 -0.0089 -0.1388
  504loPI   C4A 8058   6.016   8.008   7.771 -0.0552 -0.2567 -0.2350
  504loPI   C5A 8059   6.306   8.202   7.432 -0.0493 -0.0155  0.0487
  504loPI   C6A 8060   6.320   8.534   6.972  0.1013  0.3732 -0.1620
  504loPI   C1B 8061   6.034   7.739   8.639 -0.0259 -0.1258 -0.0219
  504loPI   C2B 8062   6.245   7.880   8.305 -0.2235  0.0130  0.2477
  504loPI   C3B 8063   6.546   8.066   8.005 -0.2208 -0.4427  0.2900
  504loPI   C4B 8064   6.714   8.056   7.672 -0.2460  0.1697  0.1415
  505loPI    C1 8065  18.685  19.262   9.707  0.1348 -0.1473 -0.0189
  505loPI    C2 8066  18.545  19.287  10.080  0.2882  0.2154  0.0184
  505loPI    C3 8067  18.340  19.084   9.803  0.1000  0.0658  0.2626
  505loPI   PO4 8068  18.889  19.145   9.655  0.0039  0.1883  0.1849
  505loPI   GL1 8069  19.056  18.993   9.225  0.1122 -0.4907  0.1783
  505loPI   GL2 8070  18.962  18.592   9.186  0.1597 -0.0443 -0.0886
  505loPI   C1A 8071  18.988  19.110   8.771 -0.1132  0.1071  0.0319
  505loPI   C2A 8072  18.784  19.065   8.340 -0.0925  0.2217  0.0156
  505loPI   C3A 8073  18.885  18.750   8.011  0.1696 -0.2492 -0.0823
  505loPI   C4A 8074  19.070  18.584   7.628 -0.0837  0.1396  0.2203
  505loPI   C5A 8075  19.297  18.630   7.231  0.1271 -0.1758  0.0616
  505loPI   C6A 8076  19.449  18.898   6.924 -0.1071 -0.2369 -0.2835
  505loPI   C1B 8077  18.928  18.602   8.762 -0.0020  0.2606  0.1029
  505loPI   C2B 8078  18.568  18.426   8.440 -0.3355 -0.0435  0.2683
  505loPI   C3B 8079  18.259  18.498   8.038  0.2022 -0.0552  0.1150
  505loPI   C4B 8080  17.998  18.468   7.696 -0.1744 -0.2766 -0.1475
  506loPI    C1 8081  18.506  11.954   9.234 -0.0758 -0.3199  0.2580
  506loPI    C2 8082  18.262  12.222   9.403  0.1202 -0.0327  0.0934
  506loPI    C3 8083  18.657  12.286   9.398  0.1637 -0.2966 -0.0013
  506loPI   PO4 8084  18.345  11.828   9.134 -0.1446 -0.3080  0.1760
  506loPI   GL1 8085  18.350  11.791   8.672  0.1347  0.4567  0.3212
  506loPI   GL2 8086  18.552  11.583   8.431 -0.0568 -0.1643 -0.1199
  506loPI   C1A 8087  18.086  11.631   8.354  0.1931 -0.1157  0.0840
  506loPI   C2A 8088  17.927  11.573   7.934 -0.3412  0.3122 -0.1269
  506loPI   C3A 8089  17.887  11.240   7.604 -0.0521 -0.0079  0.2267
  506loPI   C4A 8090  17.979  11.182   7.254 -0.2439  0.0331  0.1033
  506loPI   C5A 8091  18.126  10.989   6.895 -0.1125  0.2419  0.1176
  506loPI   C6A 8092  18.338  10.903   6.576 -0.0767 -0.2424  0.1217
  506loPI   C1B 8093  18.522  11.670   8.044 -0.5646 -0.1169  0.0268
  506loPI   C2B 8094  18.622  12.031   7.806 -0.0988 -0.3776  0.0148
  506loPI   C3B 8095  18.618  12.179   7.449 -0.0409 -0.2329  0.2022
  506loPI   C4B 8096  18.903  12.163   7.081  0.0343 -0.1540  0.0998
  507loPI    C1 8097   2.301   8.186   9.441  0.0957 -0.1946 -0.0491
  507loPI    C2 8098   2.041   8.462   9.567  0.2683  0.0345 -0.1886
  507loPI    C3 8099   2.284   8.281   9.829  0.1835  0.0450 -0.1024
  507loPI   PO4 8100   2.157   8.036   9.295  0.0685  0.0872  0.0734
  507loPI   GL1 8101   2.087   8.057   8.858 -0.3717  0.3498  0.0281
  507loPI   GL2 8102   1.710   7.928   8.765 -0.3198  0.1000 -0.0585
  507loPI   C1A 8103   2.181   7.752   8.623 -0.2386 -0.0992 -0.2377
  507loPI   C2A 8104   2.525   7.599   8.329  0.0384  0.1695 -0.0882
  507loPI   C3A 8105   2.529   7.604   7.901 -0.1384 -0.4853 -0.0608
  507loPI   C4A 8106   2.573   7.871   7.534 -0.1366  0.0446  0.0389
  507loPI   C5A 8107   2.548   8.136   7.256  0.3278  0.1880  0.1333
  507loPI   C6A 8108   2.541   7.984   6.817 -0.0015 -0.2711  0.0011
  507loPI   C1B 8109   1.751   7.792   8.355 -0.0066  0.0905  0.0224
  507loPI   C2B 8110   1.937   7.658   8.065  0.0710 -0.0939 -0.1117
  507loPI   C3B 8111   2.005   7.603   7.712  0.1507  0.1876  0.3516
  507loPI   C4B 8112   2.134   7.594   7.181  0.0582 -0.1338 -0.0214
  508loPI    C1 8113   2.998  14.563   9.862 -0.1725 -0.2393  0.1814
  508loPI    C2 8114   3.252  14.258   9.815 -0.0376 -0.1264  0.1718
  508loPI    C3 8115   2.945  14.224  10.069  0.0193 -0.2432  0.2260
  508loPI   PO4 8116   3.107  14.657   9.574 -0.2428  0.2424 -0.2900
  508loPI   GL1 8117   3.040  14.853   9.147  0.1077 -0.6040  0.2693
  508loPI   GL2 8118   2.888  14.549   9.064  0.2183  0.2889 -0.0815
  508loPI   C1A 8119   3.277  15.180   8.906 -0.0753 -0.2645 -0.2582
  508loPI   C2A 8120   3.292  15.230   8.445  0.3406  0.1804  0.1907
  508loPI   C3A 8121   3.354  15.274   8.024  0.1070 -0.1864  0.0732
  508loPI   C4A 8122   3.537  15.394   7.685 -0.0242  0.2536 -0.4426
  508loPI   C5A 8123   3.600  15.792   7.438 -0.0213  0.0603 -0.0992
  508loPI   C6A 8124   3.773  16.014   7.075  0.1665 -0.0288  0.1450
  508loPI   C1B 8125   3.059  14.237   8.744  0.3966  0.2045  0.4177
  508loPI   C2B 8126   3.075  14.394   8.337 -0.0067 -0.0986 -0.2938
  508loPI   C3B 8127   3.340  14.134   7.981  0.1065  0.1003  0.3645
  508loPI   C4B 8128   3.579  14.084   7.610 -0.3211  0.1319  0.0181
  509loPI    C1 8129  13.081  19.669   9.158 -0.1341  0.0323 -0.0341
  509loPI    C2 8130  12.931  20.037   9.106  0.0641  0.1132 -0.0421
  509loPI    C3 8131  13.171  19.960   9.417  0.0665  0.0038 -0.0703
  509loPI   PO4 8132  13.157  19.600   8.902  0.1169  0.2184 -0.1904
  509loPI   GL1 8133  13.246  19.285   8.650 -0.0389 -0.3623  0.1219
  509loPI   GL2 8134  13.363  18.993   8.625 -0.1314 -0.0350  0.2358
  509loPI   C1A 8135  13.297  19.559   8.321 -0.1817 -0.0406 -0.0482
  509loPI   C2A 8136  13.361  19.416   7.980 -0.1633 -0.0229 -0.3628
  509loPI   C3A 8137  13.562  19.720   7.665 -0.1402 -0.0272 -0.1499
  509loPI   C4A 8138  13.281  19.813   7.312  0.3837 -0.3072  0.2173
  509loPI   C5A 8139  12.891  20.170   7.181  0.0165  0.0267 -0.3154
  509loPI   C6A 8140  12.633  20.463   7.038 -0.0898  0.1004 -0.2114
  509loPI   C1B 8141  13.379  18.888   8.236  0.1175  0.2626 -0.0549
  509loPI   C2B 8142  13.424  18.779   7.805 -0.1138 -0.4244  0.1089
  509loPI   C3B 8143  13.453  18.296   7.671 -0.3463 -0.1545  0.0597
  509loPI   C4B 8144  13.267  18.065   7.451 -0.0326 -0.0874  0.2178
  510loPI    C1 8145   4.417   0.452  10.131  0.1356 -0.2770 -0.0548
  510loPI    C2 8146   4.696   0.441  10.418  0.0603  0.0738  0.0367
  510loPI    C3 8147   4.308   0.418  10.514  0.0412  0.0162 -0.0530
  510loPI   PO4 8148   4.503   0.604   9.829 -0.2152  0.0201 -0.1145
  510loPI   GL1 8149   4.661   0.620   9.398  0.1124 -0.0530 -0.0224
  510loPI   GL2 8150   4.429   0.858   9.426 -0.0979 -0.3247  0.0186
  510loPI   C1A 8151   4.493   0.609   9.008  0.1868 -0.0167  0.0814
  510loPI   C2A 8152   4.547   0.503   8.596  0.2435  0.2839  0.0669
  510loPI   C3A 8153   4.791   0.400   8.340  0.0208  0.0975 -0.1548
  510loPI   C4A 8154   5.011   0.216   8.066  0.0590  0.2481 -0.0744
  510loPI   C5A 8155   5.195   0.010   7.718 -0.1062 -0.0422 -0.1538
  510loPI   C6A 8156   5.204  -0.353   7.592 -0.0586 -0.1698 -0.1881
  510loPI   C1B 8157   3.981   0.824   9.206 -0.0504 -0.2420  0.0743
  510loPI   C2B 8158   3.608   0.642   8.969 -0.3238  0.1166  0.2807
  510loPI   C3B 8159   3.612   0.435   8.588  0.3943 -0.0163  0.2928
  510loPI   C4B 8160   3.846   0.269   8.284  0.2081  0.1948 -0.3672
  511loPI    C1 8161  11.235   7.864   9.731  0.0439 -0.0862 -0.1239
  511loPI    C2 8162  10.953   8.138   9.806  0.0354 -0.1404  0.0477
  511loPI    C3 8163  11.339   8.225   9.870  0.0631 -0.0535 -0.2224
  511loPI   PO4 8164  11.094   7.733   9.456  0.1711  0.1388  0.3555
  511loPI   GL1 8165  11.000   7.738   9.072  0.1054  0.4195  0.2131
  511loPI   GL2 8166  10.861   7.993   8.919  0.2332 -0.0406  0.0908
  511loPI   C1A 8167  11.171   7.758   8.680 -0.1101  0.2541 -0.1369
  511loPI   C2A 8168  11.003   7.838   8.195 -0.1773 -0.1007 -0.2103
  511loPI   C3A 8169  10.902   7.799   7.789 -0.2718  0.0651  0.2330
  511loPI   C4A 8170  10.931   7.869   7.382 -0.0006  0.2330 -0.0137
  511loPI   C5A 8171  11.246   7.664   7.121 -0.0839  0.0116  0.0901
  511loPI   C6A 8172  11.664   7.371   7.192 -0.2963 -0.0817 -0.2273
  511loPI   C1B 8173  10.678   8.055   8.552 -0.3065 -0.0906 -0.0911
  511loPI   C2B 8174  10.440   8.333   8.333  0.4474 -0.0061 -0.3247
  511loPI   C3B 8175  10.376   8.581   7.952 -0.2496 -0.2071  0.2880
  511loPI   C4B 8176  10.380   8.690   7.608  0.1533  0.3370  0.0113
  512loPI    C1 8177   3.843  10.314   9.782  0.1059  0.1116 -0.1743
  512loPI    C2 8178   3.999  10.053  10.042  0.0016  0.0581 -0.1651
  512loPI    C3 8179   4.230  10.218   9.761  0.1245  0.1483 -0.0125
  512loPI   PO4 8180   3.691  10.149   9.579 -0.0021 -0.0184 -0.0496
  512loPI   GL1 8181   3.824  10.267   9.111 -0.0885  0.0437 -0.2145
  512loPI   GL2 8182   4.174  10.232   9.283  0.2981 -0.0611  0.0618
  512loPI   C1A 8183   3.748  10.395   8.659  0.0361 -0.1704  0.0379
  512loPI   C2A 8184   3.718  10.569   8.282 -0.0812  0.2259  0.0653
  512loPI   C3A 8185   3.788  10.584   7.954 -0.1710 -0.2156 -0.0592
  512loPI   C4A 8186   3.980  10.564   7.493  0.1961 -0.1543 -0.0347
  512loPI   C5A 8187   4.266  10.389   7.189  0.4354  0.3002  0.1144
  512loPI   C6A 8188   4.456   9.979   6.969 -0.1411  0.0119  0.2598
  512loPI   C1B 8189   4.225  10.633   9.025  0.0698 -0.2110  0.2956
  512loPI   C2B 8190   4.033  10.842   8.556 -0.2321 -0.0138 -0.2522
  512loPI   C3B 8191   4.039  10.951   8.118 -0.0882  0.2845  0.0862
  512loPI   C4B 8192   4.192  11.041   7.617 -0.1614 -0.1527 -0.0309
  513loPI    C1 8193   7.353   4.127   9.555  0.0521 -0.0081  0.1946
  513loPI    C2 8194   7.258   4.433   9.795 -0.0408  0.2778 -0.1950
  513loPI    C3 8195   6.972   4.185   9.664  0.0357  0.0112  0.1275
  513loPI   PO4 8196   7.482   4.232   9.344 -0.0475 -0.1102  0.1527
  513loPI   GL1 8197   7.687   4.481   9.054 -0.0410 -0.0586  0.1038
  513loPI   GL2 8198   7.558   4.418   8.872  0.0612  0.0042  0.2108
  513loPI   C1A 8199   7.835   4.480   8.506  0.2598 -0.0227  0.1978
  513loPI   C2A 8200   7.742   4.183   8.323 -0.0697 -0.0431 -0.0617
  513loPI   C3A 8201   7.854   3.984   7.892  0.1016  0.0012 -0.0346
  513loPI   C4A 8202   7.971   3.783   7.448 -0.1546  0.2712 -0.0309
  513loPI   C5A 8203   8.069   3.614   7.129 -0.2102 -0.2005  0.0816
  513loPI   C6A 8204   8.490   3.571   7.063  0.1286 -0.1759 -0.1534
  513loPI   C1B 8205   7.414   4.022   8.743  0.1319  0.0042 -0.3394
  513loPI   C2B 8206   7.303   3.879   8.337  0.5094  0.0174  0.2265
  513loPI   C3B 8207   7.378   3.662   8.015 -0.0563 -0.2420  0.0020
  513loPI   C4B 8208   7.542   3.566   7.689  0.5689 -0.2459 -0.3654
  514loPI    C1 8209   9.689   5.068   9.880 -0.1023 -0.1249  0.0021
  514loPI    C2 8210   9.448   5.385   9.846 -0.0350 -0.0746 -0.0080
  514loPI    C3 8211   9.295   5.026   9.933 -0.1148 -0.0456 -0.0273
  514loPI   PO4 8212   9.878   5.068   9.703 -0.3854 -0.0717 -0.1416
  514loPI   GL1 8213   9.855   4.954   9.160  0.1053  0.0372 -0.1320
  514loPI   GL2 8214  10.095   4.704   9.044 -0.5009 -0.0855  0.2086
  514loPI   C1A 8215   9.465   4.815   9.017 -0.1355 -0.1788 -0.0280
  514loPI   C2A 8216   9.265   4.849   8.705 -0.1213  0.0043 -0.0823
  514loPI   C3A 8217   9.140   5.127   8.344 -0.0637  0.0378  0.1865
  514loPI   C4A 8218   9.106   5.309   7.922 -0.0762 -0.3089 -0.0236
  514loPI   C5A 8219   8.851   5.661   7.643  0.0310  0.1745 -0.2305
  514loPI   C6A 8220   8.460   5.590   7.303 -0.0852  0.2301  0.0296
  514loPI   C1B 8221   9.808   4.887   8.684 -0.0404  0.0848 -0.0565
  514loPI   C2B 8222   9.641   4.983   8.341  0.0803 -0.1351 -0.0812
  514loPI   C3B 8223   9.477   4.793   7.962 -0.2339  0.1169 -0.2883
  514loPI   C4B 8224   9.550   4.522   7.589  0.4017  0.1646 -0.0557
  515loPI    C1 8225  14.057   0.844   9.299  0.0840 -0.1679 -0.1398
  515loPI    C2 8226  13.936   1.220   9.360 -0.0943 -0.2331 -0.0822
  515loPI    C3 8227  13.903   0.950   9.652  0.0513 -0.2897 -0.1172
  515loPI   PO4 8228  13.976   0.763   9.077  0.0617 -0.2082 -0.4565
  515loPI   GL1 8229  14.172   0.738   8.729 -0.1169 -0.1135  0.0936
  515loPI   GL2 8230  14.417   0.479   8.661  0.0319 -0.0877  0.0992
  515loPI   C1A 8231  14.012   0.927   8.335 -0.0852 -0.0260  0.0693
  515loPI   C2A 8232  13.893   0.858   8.001 -0.0529  0.3593 -0.2371
  515loPI   C3A 8233  13.583   0.708   7.665  0.1270 -0.0414 -0.0234
  515loPI   C4A 8234  13.576   0.720   7.158  0.2135 -0.0520  0.0236
  515loPI   C5A 8235  13.438   0.975   6.765 -0.1311 -0.1488  0.4444
  515loPI   C6A 8236  13.400   1.199   6.405  0.0310  0.0760  0.3865
  515loPI   C1B 8237  14.470   0.859   8.304 -0.0352 -0.2369 -0.2753
  515loPI   C2B 8238  14.621   1.259   8.188  0.1698  0.1005  0.1016
  515loPI   C3B 8239  14.683   1.441   7.829  0.2206 -0.3317  0.1573
  515loPI   C4B 8240  14.550   1.728   7.481 -0.0476  0.1036 -0.0491
  516loPI    C1 8241   8.816   3.495   9.895 -0.3063 -0.0951  0.0185
  516loPI    C2 8242   8.880   3.245  10.200 -0.2486 -0.1490 -0.0375
  516loPI    C3 8243   8.697   3.595  10.264  0.0056 -0.0397  0.1070
  516loPI   PO4 8244   8.644   3.316   9.646 -0.0365 -0.2557 -0.0766
  516loPI   GL1 8245   8.596   3.322   9.255  0.2427  0.0432 -0.0153
  516loPI   GL2 8246   8.859   3.139   9.227  0.3231  0.0914  0.0883
  516loPI   C1A 8247   8.491   3.271   8.799 -0.1678  0.2078  0.2657
  516loPI   C2A 8248   8.692   3.298   8.429  0.0177  0.1519  0.0426
  516loPI   C3A 8249   8.744   3.576   8.003  0.0199 -0.1371  0.0812
  516loPI   C4A 8250   8.880   3.882   7.785  0.0141  0.0082  0.0126
  516loPI   C5A 8251   8.756   4.018   7.337  0.0218  0.1452 -0.1442
  516loPI   C6A 8252   8.572   4.106   6.923 -0.0670  0.0129  0.1941
  516loPI   C1B 8253   8.841   2.905   8.788  0.1918  0.1522 -0.1176
  516loPI   C2B 8254   9.035   2.816   8.439 -0.0223  0.2347  0.0933
  516loPI   C3B 8255   9.392   2.701   8.238  0.0187 -0.0388 -0.1537
  516loPI   C4B 8256   9.825   2.681   8.069  0.4886  0.2056  0.0310
  517loPI    C1 8257   3.253  10.275   9.794  0.0850  0.1629  0.1304
  517loPI    C2 8258   3.495  10.051  10.020  0.0650  0.0203  0.0113
  517loPI    C3 8259   3.127  10.140  10.149  0.0187 -0.1421 -0.0065
  517loPI   PO4 8260   3.163  10.163   9.593 -0.0441 -0.1312 -0.1666
  517loPI   GL1 8261   3.326  10.000   9.228  0.1558  0.0906 -0.1181
  517loPI   GL2 8262   2.919  10.069   9.156 -0.2462  0.1142  0.1518
  517loPI   C1A 8263   3.453  10.079   8.876 -0.0812 -0.0117 -0.0967
  517loPI   C2A 8264   3.369  10.106   8.390  0.0563 -0.1993  0.2381
  517loPI   C3A 8265   3.446  10.059   8.088 -0.1426 -0.0723  0.1591
  517loPI   C4A 8266   3.624  10.143   7.643  0.0247 -0.1022 -0.0480
  517loPI   C5A 8267   3.758   9.987   7.315 -0.3454 -0.0560 -0.0134
  517loPI   C6A 8268   3.850  10.239   6.897  0.0538 -0.0237  0.0741
  517loPI   C1B 8269   2.964  10.136   8.721 -0.0478 -0.2980  0.0425
  517loPI   C2B 8270   3.007   9.781   8.455 -0.0766 -0.0550 -0.3107
  517loPI   C3B 8271   3.097   9.687   7.928  0.0210  0.0505 -0.2432
  517loPI   C4B 8272   3.275   9.802   7.608  0.0374  0.0667  0.4962
  518loPI    C1 8273   9.232  17.851  10.099  0.1577  0.3989 -0.1975
  518loPI    C2 8274   9.001  18.128  10.272 -0.0461  0.0206  0.1538
  518loPI    C3 8275   9.316  17.980  10.469  0.0457 -0.0182 -0.0207
  518loPI   PO4 8276   9.233  17.930   9.870 -0.0820  0.0102  0.3557
  518loPI   GL1 8277   9.210  17.864   9.447  0.0894  0.1952 -0.2942
  518loPI   GL2 8278   9.460  17.833   9.315 -0.0296  0.4961  0.0031
  518loPI   C1A 8279   8.999  18.042   9.108 -0.0489 -0.0772 -0.0845
  518loPI   C2A 8280   9.069  18.071   8.703  0.1725  0.0596  0.0726
  518loPI   C3A 8281   9.067  18.107   8.228  0.4000  0.0069  0.1112
  518loPI   C4A 8282   9.151  17.824   7.921 -0.1855 -0.1417 -0.2991
  518loPI   C5A 8283   9.023  17.655   7.542 -0.0561  0.2155 -0.1313
  518loPI   C6A 8284   8.760  17.664   7.229 -0.3239 -0.2810 -0.3094
  518loPI   C1B 8285   9.426  17.846   8.912  0.2360 -0.1182  0.2556
  518loPI   C2B 8286   9.315  17.661   8.505  0.0997 -0.3417 -0.0294
  518loPI   C3B 8287   9.595  17.576   8.110  0.0311 -0.2016 -0.1082
  518loPI   C4B 8288   9.747  17.781   7.833 -0.3406 -0.2465 -0.0978
  519loPI    C1 8289   5.194   2.989   9.498  0.0502 -0.3035  0.3832
  519loPI    C2 8290   5.124   3.232   9.808  0.1214 -0.0708  0.2201
  519loPI    C3 8291   5.476   3.247   9.618 -0.1108  0.1681 -0.2050
  519loPI   PO4 8292   4.993   2.891   9.340 -0.0683  0.0622 -0.3213
  519loPI   GL1 8293   4.904   3.038   8.874  0.0962  0.2170 -0.1838
  519loPI   GL2 8294   4.691   3.225   9.058  0.0407 -0.1376  0.2077
  519loPI   C1A 8295   4.737   2.923   8.447 -0.0203 -0.1856  0.1235
  519loPI   C2A 8296   4.646   2.786   8.089  0.0663  0.0488 -0.1157
  519loPI   C3A 8297   4.561   2.543   7.652 -0.2267  0.0406  0.0098
  519loPI   C4A 8298   4.563   2.128   7.679 -0.3307  0.2228 -0.0802
  519loPI   C5A 8299   4.586   1.785   7.326  0.0233  0.1573 -0.0128
  519loPI   C6A 8300   4.386   1.526   7.163 -0.0308 -0.2675  0.0556
  519loPI   C1B 8301   4.364   3.048   8.817 -0.0471 -0.1580  0.0847
  519loPI   C2B 8302   4.253   2.881   8.383  0.2224  0.1019 -0.0083
  519loPI   C3B 8303   4.246   3.156   7.985  0.3558 -0.2680 -0.2537
  519loPI   C4B 8304   4.245   3.412   7.685 -0.0315 -0.2072 -0.0254
  520loPI    C1 8305   5.642  13.723   9.754  0.1940  0.1189  0.1014
  520loPI    C2 8306   5.894  13.992   9.600  0.1400  0.1533  0.0724
  520loPI    C3 8307   5.911  13.902   9.989  0.4055 -0.0760  0.0110
  520loPI   PO4 8308   5.363  13.808   9.652  0.0052 -0.0887 -0.0078
  520loPI   GL1 8309   5.453  14.061   9.314 -0.1123  0.0507 -0.0809
  520loPI   GL2 8310   5.476  13.828   9.175 -0.0498 -0.0942  0.2388
  520loPI   C1A 8311   5.318  14.359   8.948 -0.1141 -0.0573  0.3301
  520loPI   C2A 8312   5.223  14.462   8.562 -0.0945  0.4303 -0.1124
  520loPI   C3A 8313   5.302  14.468   8.100  0.1074  0.0044  0.3328
  520loPI   C4A 8314   5.717  14.416   8.000 -0.1303  0.0407 -0.0577
  520loPI   C5A 8315   6.143  14.454   7.723 -0.1096 -0.0874 -0.0344
  520loPI   C6A 8316   6.472  14.585   7.377 -0.2219 -0.1137 -0.1729
  520loPI   C1B 8317   5.841  13.599   9.022  0.2157  0.0476 -0.1715
  520loPI   C2B 8318   6.138  13.634   8.770  0.2032 -0.0538 -0.2728
  520loPI   C3B 8319   6.556  13.652   8.472  0.2062  0.1613 -0.2744
  520loPI   C4B 8320   6.777  13.893   8.214  0.2062 -0.0410  0.0859
  521loPI    C1 8321   0.688   0.311   9.930 -0.2768 -0.0875  0.0117
  521loPI    C2 8322   0.547   0.643  10.103  0.1310  0.1316 -0.0633
  521loPI    C3 8323   0.847   0.441  10.274 -0.1440 -0.2280  0.0044
  521loPI   PO4 8324   0.599   0.389   9.620 -0.1133 -0.0763 -0.1155
  521loPI   GL1 8325   0.458   0.524   9.301  0.0977 -0.3538 -0.0615
  521loPI   GL2 8326   0.201   0.346   9.302 -0.2292  0.1042 -0.2285
  521loPI   C1A 8327   0.562   0.730   8.904  0.1541 -0.0005 -0.0264
  521loPI   C2A 8328   0.546   0.791   8.551 -0.1870  0.1930  0.1607
  521loPI   C3A 8329   0.447   0.747   8.021  0.1580  0.1706 -0.3489
  521loPI   C4A 8330   0.575   0.707   7.645 -0.0767 -0.1186 -0.1145
  521loPI   C5A 8331   0.244   0.716   7.326 -0.0054 -0.3314  0.0290
  521loPI   C6A 8332   0.086   0.596   6.990  0.2605  0.0859 -0.2604
  521loPI   C1B 8333   0.064   0.472   8.954 -0.2093  0.0739  0.0148
  521loPI   C2B 8334   0.007   0.664   8.529 -0.1360 -0.0847 -0.0675
  521loPI   C3B 8335  -0.001   0.544   8.156 -0.0202 -0.1057  0.2998
  521loPI   C4B 8336   0.031   0.478   7.690  0.3348 -0.0720 -0.1469
  522loPI    C1 8337  19.302   3.086   9.493 -0.0680 -0.1534  0.1601
  522loPI    C2 8338  19.666   2.930   9.436 -0.0555 -0.0832  0.0439
  522loPI    C3 8339  19.510   2.945   9.804  0.0300 -0.1766  0.0846
  522loPI   PO4 8340  19.419   3.338   9.257 -0.1171  0.0261 -0.0211
  522loPI   GL1 8341  19.571   3.310   8.864 -0.3043 -0.0600 -0.0044
  522loPI   GL2 8342  19.908   3.369   8.814  0.1084 -0.0462  0.1414
  522loPI   C1A 8343  19.581   3.176   8.411  0.0099 -0.0501 -0.1645
  522loPI   C2A 8344  19.835   3.080   8.055  0.2062 -0.1511  0.2045
  522loPI   C3A 8345  19.896   3.127   7.638 -0.2688  0.1400  0.5009
  522loPI   C4A 8346  20.097   3.382   7.395  0.0542  0.2649 -0.0557
  522loPI   C5A 8347  20.160   3.624   7.068  0.1849  0.2582 -0.1487
  522loPI   C6A 8348  20.565   3.742   7.001  0.3592 -0.0314  0.2388
  522loPI   C1B 8349  19.639   3.689   8.595  0.1702  0.0755 -0.3142
  522loPI   C2B 8350  19.565   3.662   8.314 -0.1680 -0.1151 -0.3199
  522loPI   C3B 8351  19.733   3.734   8.004  0.1627 -0.1499 -0.0168
  522loPI   C4B 8352  19.878   3.868   7.562  0.2364 -0.2196  0.0813
  523loPI    C1 8353  13.409   4.331   9.403 -0.1290 -0.1250 -0.1119
  523loPI    C2 8354  13.470   3.979   9.223  0.0048 -0.1361 -0.0457
  523loPI    C3 8355  13.581   4.032   9.604  0.0965  0.0153 -0.0928
  523loPI   PO4 8356  13.507   4.479   9.299 -0.2601  0.1162  0.0878
  523loPI   GL1 8357  13.442   4.546   8.888 -0.0539  0.1178 -0.1759
  523loPI   GL2 8358  13.427   4.223   8.672  0.0571  0.1865 -0.0374
  523loPI   C1A 8359  12.979   4.675   8.771 -0.0660  0.4538  0.0386
  523loPI   C2A 8360  12.730   4.466   8.416  0.0794  0.0068 -0.1375
  523loPI   C3A 8361  12.696   4.240   8.073  0.1839 -0.3589  0.5020
  523loPI   C4A 8362  12.801   4.414   7.728 -0.0371  0.1895 -0.0763
  523loPI   C5A 8363  12.875   4.834   7.602 -0.2128 -0.1010 -0.2421
  523loPI   C6A 8364  13.160   5.086   7.353  0.1177 -0.2294  0.0119
  523loPI   C1B 8365  13.609   3.930   8.367  0.3632 -0.3186 -0.0352
  523loPI   C2B 8366  14.001   4.028   8.119 -0.0032  0.1732 -0.1521
  523loPI   C3B 8367  14.426   4.088   8.018  0.3468 -0.0324  0.0606
  523loPI   C4B 8368  14.612   4.267   7.680  0.1722  0.0461  0.0064
  524loPI    C1 8369  16.234   3.530   9.294 -0.1895  0.2510  0.1829
  524loPI    C2 8370  16.610   3.462   9.413 -0.1464 -0.1985 -0.1845
  524loPI    C3 8371  16.304   3.339   9.639 -0.0779  0.1241  0.0911
  524loPI   PO4 8372  16.143   3.361   9.076 -0.2920 -0.1506 -0.3524
  524loPI   GL1 8373  16.021   3.540   8.680  0.1975 -0.2240  0.3639
  524loPI   GL2 8374  16.304   3.553   8.636  0.0172 -0.4073 -0.1124
  524loPI   C1A 8375  15.947   3.477   8.219  0.0470 -0.0322 -0.1317
  524loPI   C2A 8376  15.780   3.480   7.785 -0.0528 -0.0734  0.0288
  524loPI   C3A 8377  15.757   3.483   7.357  0.0256 -0.0443 -0.1693
  524loPI   C4A 8378  16.138   3.665   7.170 -0.0373 -0.1684  0.2038
  524loPI   C5A 8379  16.441   4.041   7.149  0.0626 -0.0188 -0.3401
  524loPI   C6A 8380  16.544   4.354   6.785  0.1395 -0.0480 -0.2891
  524loPI   C1B 8381  16.419   3.670   8.255 -0.0551 -0.0889 -0.0028
  524loPI   C2B 8382  16.472   3.877   7.845 -0.1368 -0.0047 -0.3662
  524loPI   C3B 8383  16.573   4.149   7.580 -0.3420 -0.1545  0.0984
  524loPI   C4B 8384  16.837   4.425   7.225 -0.1690  0.0559  0.1785
  525loPI    C1 8385   0.477   7.289   9.386  0.2578  0.0996 -0.0470
  525loPI    C2 8386   0.789   7.343   9.631  0.2521  0.0226 -0.0224
  525loPI    C3 8387   0.437   7.222   9.778  0.2282  0.0480 -0.0587
  525loPI   PO4 8388   0.485   7.392   9.217 -0.2961  0.0554 -0.0787
  525loPI   GL1 8389   0.571   7.369   8.804 -0.0015  0.0748 -0.3637
  525loPI   GL2 8390   0.411   7.675   8.728 -0.1940 -0.0116 -0.0040
  525loPI   C1A 8391   0.835   7.041   8.572 -0.0879 -0.0898 -0.0751
  525loPI   C2A 8392   1.027   6.994   8.194 -0.3029 -0.1435 -0.0174
  525loPI   C3A 8393   1.434   6.973   7.909  0.1972  0.2444 -0.0446
  525loPI   C4A 8394   1.337   6.879   7.412  0.0830 -0.0022 -0.0935
  525loPI   C5A 8395   1.244   6.510   7.264  0.0136  0.0243 -0.1702
  525loPI   C6A 8396   0.874   6.323   6.988 -0.0952  0.0987 -0.0906
  525loPI   C1B 8397   0.604   7.736   8.361 -0.2250  0.0127  0.0479
  525loPI   C2B 8398   0.925   7.419   8.257 -0.0591 -0.1406 -0.0779
  525loPI   C3B 8399   1.116   7.299   7.792 -0.1190 -0.1605 -0.0816
  525loPI   C4B 8400   1.145   7.381   7.390 -0.2163  0.1152 -0.2081
  526loPI    C1 8401   4.287   9.545  10.074  0.1656 -0.3131 -0.1412
  526loPI    C2 8402   4.191   9.326  10.395  0.0873 -0.3413 -0.1832
  526loPI    C3 8403   4.366   9.683  10.441  0.0962 -0.3548 -0.1103
  526loPI   PO4 8404   4.082   9.499   9.895  0.2404  0.2204 -0.0181
  526loPI   GL1 8405   3.977   9.754   9.505 -0.2175  0.2686  0.0380
  526loPI   GL2 8406   3.910   9.468   9.391 -0.2273 -0.4375  0.1246
  526loPI   C1A 8407   4.286   9.776   9.167 -0.1989 -0.1254 -0.0115
  526loPI   C2A 8408   4.193  10.172   8.805 -0.3764  0.0644  0.2465
  526loPI   C3A 8409   4.349  10.401   8.452  0.0932 -0.2127  0.1414
  526loPI   C4A 8410   4.318  10.526   7.994 -0.1078 -0.1722  0.3891
  526loPI   C5A 8411   4.552  10.579   7.568  0.2537 -0.0627 -0.0438
  526loPI   C6A 8412   4.871  10.291   7.411 -0.1737  0.3482  0.0450
  526loPI   C1B 8413   3.793   9.729   9.043 -0.0202 -0.0390 -0.1404
  526loPI   C2B 8414   3.822   9.930   8.564 -0.0142  0.2232  0.2112
  526loPI   C3B 8415   3.951  10.150   8.161 -0.0121 -0.2646  0.0890
  526loPI   C4B 8416   4.167  10.165   7.686  0.0958 -0.1159  0.2399
  527loPI    C1 8417  13.982  17.017   9.460 -0.0006 -0.0219  0.1623
  527loPI    C2 8418  13.677  17.068   9.714 -0.0669  0.0716  0.0652
  527loPI    C3 8419  14.003  16.867   9.830 -0.1393  0.0250  0.1901
  527loPI   PO4 8420  13.841  17.005   9.205  0.3503  0.0542  0.0464
  527loPI   GL1 8421  13.567  17.143   8.864 -0.2725  0.0104 -0.4042
  527loPI   GL2 8422  13.554  16.818   8.815  0.0188 -0.0602 -0.2070
  527loPI   C1A 8423  13.797  17.217   8.544 -0.1928  0.5202 -0.0535
  527loPI   C2A 8424  13.966  17.213   8.118 -0.2266  0.1142 -0.1629
  527loPI   C3A 8425  14.227  17.226   7.741 -0.0743  0.3558  0.2092
  527loPI   C4A 8426  14.367  17.064   7.387 -0.2329 -0.0242 -0.0209
  527loPI   C5A 8427  14.470  17.096   7.023  0.0638  0.4323 -0.1247
  527loPI   C6A 8428  14.412  17.004   6.620  0.1054  0.1519  0.1378
  527loPI   C1B 8429  13.407  16.690   8.371 -0.1886 -0.0425  0.2267
  527loPI   C2B 8430  13.340  16.573   7.962 -0.2494  0.2667 -0.1306
  527loPI   C3B 8431  13.560  16.464   7.608 -0.0620 -0.2032  0.1433
  527loPI   C4B 8432  13.469  15.933   7.367  0.2254 -0.1554  0.1642
  528loPI    C1 8433  10.495  17.084   9.939 -0.2999  0.0899 -0.0991
  528loPI    C2 8434  10.560  16.800  10.212  0.3011  0.3696  0.0647
  528loPI    C3 8435  10.257  17.056  10.259 -0.0154 -0.0035  0.1083
  528loPI   PO4 8436  10.441  16.963   9.604 -0.2751  0.0299 -0.0238
  528loPI   GL1 8437  10.363  16.812   9.089 -0.0930  0.1118 -0.2822
  528loPI   GL2 8438  10.558  17.000   8.977  0.1351  0.1166  0.1246
  528loPI   C1A 8439   9.991  17.065   8.845  0.1217 -0.1437 -0.2624
  528loPI   C2A 8440   9.916  17.439   8.643  0.1022  0.0639 -0.0359
  528loPI   C3A 8441  10.030  17.577   8.305  0.4001  0.0105  0.0611
  528loPI   C4A 8442  10.243  17.741   7.864 -0.1004  0.0694 -0.0687
  528loPI   C5A 8443  10.316  17.946   7.469  0.1322 -0.0919 -0.0281
  528loPI   C6A 8444  10.329  18.208   7.168  0.0167  0.0495  0.0341
  528loPI   C1B 8445  10.537  17.198   8.577 -0.1966  0.2047 -0.1009
  528loPI   C2B 8446  10.600  17.567   8.304 -0.0162  0.1214 -0.1547
  528loPI   C3B 8447  10.812  17.821   8.113 -0.0644 -0.0459 -0.0996
  528loPI   C4B 8448  11.279  17.837   8.042  0.1817 -0.1231  0.3323
  529loPI    C1 8449   9.819  18.692   9.595 -0.0784  0.0393 -0.0009
  529loPI    C2 8450   9.946  18.333   9.717  0.0543 -0.0066 -0.2656
  529loPI    C3 8451   9.729  18.563   9.963  0.1522 -0.1752 -0.0172
  529loPI   PO4 8452   9.751  18.607   9.293 -0.2941 -0.0519 -0.0019
  529loPI   GL1 8453   9.842  18.863   8.865  0.0992 -0.0695  0.1557
  529loPI   GL2 8454  10.227  18.913   8.745 -0.1156 -0.0674 -0.2164
  529loPI   C1A 8455   9.906  18.992   8.408 -0.0059 -0.2151 -0.1319
  529loPI   C2A 8456   9.784  19.232   7.990  0.2712 -0.4110  0.0266
  529loPI   C3A 8457   9.486  19.218   7.615 -0.2858 -0.2175 -0.0678
  529loPI   C4A 8458   9.433  19.426   7.214 -0.3599  0.1616  0.0980
  529loPI   C5A 8459   9.446  19.800   6.908 -0.0312 -0.2217 -0.1241
  529loPI   C6A 8460   9.178  20.089   6.859  0.2374 -0.1120  0.1664
  529loPI   C1B 8461  10.519  19.039   8.434 -0.0338 -0.0985 -0.0392
  529loPI   C2B 8462  10.394  19.266   7.976  0.1101  0.2537  0.1213
  529loPI   C3B 8463  10.285  19.483   7.615  0.1107 -0.1625 -0.2206
  529loPI   C4B 8464   9.997  19.731   7.479  0.0286 -0.0612 -0.0220
  530loPI    C1 8465   9.473  10.553   9.901  0.0387  0.2792 -0.0542
  530loPI    C2 8466   9.770  10.723  10.108  0.1979  0.1376 -0.1628
  530loPI    C3 8467   9.392  10.758  10.235  0.2944  0.0318  0.1654
  530loPI   PO4 8468   9.665  10.363   9.689 -0.0535  0.1023 -0.2090
  530loPI   GL1 8469   9.865  10.155   9.386 -0.0812  0.2033  0.1847
  530loPI   GL2 8470   9.885   9.902   9.331  0.2184 -0.1341 -0.1700
  530loPI   C1A 8471   9.565  10.251   8.994  0.4533  0.0478  0.1699
  530loPI   C2A 8472   9.398  10.094   8.612 -0.1020  0.0812  0.1667
  530loPI   C3A 8473   9.449  10.069   8.134  0.0772 -0.1406 -0.0387
  530loPI   C4A 8474   9.714  10.298   7.698  0.0103 -0.0256 -0.3975
  530loPI   C5A 8475   9.909  10.537   7.247  0.0257 -0.3128 -0.0520
  530loPI   C6A 8476  10.224  10.778   7.156  0.1005  0.0044 -0.0798
  530loPI   C1B 8477   9.690   9.711   8.992 -0.2054  0.0500  0.1143
  530loPI   C2B 8478   9.627   9.690   8.528  0.0088  0.1386  0.1275
  530loPI   C3B 8479   9.404   9.564   8.131 -0.3025  0.2289  0.0220
  530loPI   C4B 8480   9.246   9.432   7.771 -0.2171  0.2831  0.0087
  531loPI    C1 8481   9.131   3.981   9.363 -0.2849 -0.0839 -0.1190
  531loPI    C2 8482   9.073   3.960   9.758 -0.1173 -0.1719 -0.0982
  531loPI    C3 8483   8.901   4.253   9.547 -0.1830 -0.1065  0.0440
  531loPI   PO4 8484   9.062   3.706   9.333 -0.0507  0.2569  0.0551
  531loPI   GL1 8485   8.874   3.676   9.034  0.0396 -0.1655  0.1716
  531loPI   GL2 8486   9.033   3.639   8.778  0.0519 -0.2142  0.0774
  531loPI   C1A 8487   8.493   3.782   8.781 -0.0166 -0.2893  0.5119
  531loPI   C2A 8488   8.309   3.662   8.385 -0.1321 -0.1182 -0.1983
  531loPI   C3A 8489   8.240   3.590   7.908  0.2289  0.0092  0.0199
  531loPI   C4A 8490   8.432   3.651   7.534 -0.1744 -0.2771  0.0371
  531loPI   C5A 8491   8.881   3.530   7.342  0.3525  0.1794  0.0712
  531loPI   C6A 8492   9.223   3.577   7.076  0.2789  0.1567  0.1131
  531loPI   C1B 8493   8.905   3.748   8.434  0.0208  0.1246 -0.0341
  531loPI   C2B 8494   8.727   4.055   8.191  0.0262  0.1025 -0.1981
  531loPI   C3B 8495   8.879   4.330   7.864 -0.3746  0.1810  0.0716
  531loPI   C4B 8496   9.097   4.386   7.452 -0.0384 -0.0957  0.0523
  532loPI    C1 8497   2.132  12.827   9.714 -0.0013 -0.5058  0.1942
  532loPI    C2 8498   1.899  13.088   9.907  0.0588 -0.1777 -0.1644
  532loPI    C3 8499   2.117  12.824  10.113 -0.1132 -0.0426  0.1989
  532loPI   PO4 8500   2.233  13.066   9.503 -0.0981 -0.5027  0.1454
  532loPI   GL1 8501   2.135  13.210   9.083  0.2129 -0.2051  0.0875
  532loPI   GL2 8502   2.114  13.565   9.127  0.0090  0.1685  0.2749
  532loPI   C1A 8503   1.987  13.030   8.774 -0.0686  0.0338  0.1177
  532loPI   C2A 8504   1.888  12.833   8.285 -0.0880 -0.0077 -0.2877
  532loPI   C3A 8505   1.582  12.663   8.083 -0.0481  0.2827 -0.1125
  532loPI   C4A 8506   1.207  12.788   7.807  0.0102  0.2642  0.3623
  532loPI   C5A 8507   1.157  12.982   7.360 -0.1848  0.0923  0.1232
  532loPI   C6A 8508   1.146  12.942   6.970  0.2344  0.1154  0.0421
  532loPI   C1B 8509   2.171  13.531   8.676 -0.0804  0.4951  0.3520
  532loPI   C2B 8510   2.085  13.299   8.311  0.0140 -0.2602 -0.0561
  532loPI   C3B 8511   2.078  13.164   7.914 -0.2774 -0.0466  0.0306
  532loPI   C4B 8512   2.026  13.361   7.435 -0.5156  0.1561  0.0588
  533loPI    C1 8513   4.855   9.499  10.218  0.1361  0.0077  0.1921
  533loPI    C2 8514   4.661   9.151  10.185 -0.2009  0.2023  0.0569
  533loPI    C3 8515   4.761   9.291  10.546 -0.2168  0.0486  0.1217
  533loPI   PO4 8516   4.794   9.613   9.998 -0.0622  0.2439  0.3441
  533loPI   GL1 8517   4.537   9.736   9.695 -0.1742  0.1868  0.1688
  533loPI   GL2 8518   4.474   9.502   9.540  0.1484  0.1033  0.1146
  533loPI   C1A 8519   4.758   9.896   9.249 -0.1566 -0.1550 -0.0121
  533loPI   C2A 8520   4.780   9.817   8.792  0.0991 -0.4144 -0.2126
  533loPI   C3A 8521   4.861   9.992   8.404 -0.0304 -0.3656  0.0197
  533loPI   C4A 8522   4.669  10.190   8.075  0.0585  0.1110  0.0487
  533loPI   C5A 8523   4.605   9.956   7.688  0.2489 -0.1284  0.0925
  533loPI   C6A 8524   4.552   9.689   7.346 -0.2601 -0.0122 -0.0519
  533loPI   C1B 8525   4.851   9.423   9.303  0.3619  0.1592  0.0554
  533loPI   C2B 8526   5.244   9.398   8.999  0.0766  0.3937 -0.1080
  533loPI   C3B 8527   5.676   9.702   9.059 -0.0368 -0.4839  0.0324
  533loPI   C4B 8528   5.734  10.117   8.965  0.1317  0.2004  0.0634
  534loPI    C1 8529  11.401  11.015   9.700  0.2899  0.0160  0.0260
  534loPI    C2 8530  11.447  11.340   9.929  0.0713  0.0033  0.0899
  534loPI    C3 8531  11.528  10.977  10.078  0.3594  0.0301  0.0042
  534loPI   PO4 8532  11.145  11.055   9.563  0.1867 -0.2815 -0.1229
  534loPI   GL1 8533  11.062  10.903   9.171  0.5919 -0.1551  0.1548
  534loPI   GL2 8534  11.135  11.278   9.122 -0.1211  0.1255 -0.0391
  534loPI   C1A 8535  10.899  10.674   8.783 -0.0917 -0.2323 -0.1070
  534loPI   C2A 8536  10.888  10.437   8.455  0.1338 -0.2685  0.3323
  534loPI   C3A 8537  11.216  10.341   8.174  0.0043  0.1415  0.2699
  534loPI   C4A 8538  11.460  10.094   7.832  0.2409  0.1080  0.2196
  534loPI   C5A 8539  11.294   9.980   7.455  0.1587 -0.0489  0.1313
  534loPI   C6A 8540  11.391   9.969   7.120  0.1305 -0.1795 -0.0385
  534loPI   C1B 8541  10.965  11.185   8.712  0.1560  0.0663  0.1801
  534loPI   C2B 8542  10.656  10.970   8.441 -0.2127 -0.1236  0.0776
  534loPI   C3B 8543  10.670  10.767   8.117 -0.2672 -0.0886  0.0447
  534loPI   C4B 8544  10.966  10.529   7.745 -0.0850 -0.0112 -0.1783
  535loPI    C1 8545   0.883  10.621   9.222 -0.1981  0.4035 -0.3979
  535loPI    C2 8546   1.277  10.666   9.170 -0.0836  0.0102  0.0510
  535loPI    C3 8547   1.074  10.927   9.394 -0.0265  0.0585  0.0466
  535loPI   PO4 8548   0.793  10.658   9.052 -0.2051 -0.0880  0.2026
  535loPI   GL1 8549   1.048  10.521   8.735  0.3668  0.2323 -0.1409
  535loPI   GL2 8550   1.140  10.268   8.893  0.3667  0.0196  0.2379
  535loPI   C1A 8551   1.031  10.392   8.301  0.2325  0.0568  0.0079
  535loPI   C2A 8552   1.232  10.212   7.978 -0.2842 -0.1270  0.2592
  535loPI   C3A 8553   1.554  10.025   7.841 -0.3243  0.1012  0.1409
  535loPI   C4A 8554   2.040  10.034   7.674 -0.0552  0.2406  0.0455
  535loPI   C5A 8555   2.299   9.920   7.344 -0.1455  0.0786 -0.0202
  535loPI   C6A 8556   2.409   9.716   6.961 -0.2970 -0.2341 -0.3166
  535loPI   C1B 8557   1.316  10.029   8.515 -0.1272  0.1088 -0.1604
  535loPI   C2B 8558   1.634   9.989   8.349  0.0041  0.1390 -0.2990
  535loPI   C3B 8559   2.044  10.193   8.212  0.0802  0.0796 -0.0919
  535loPI   C4B 8560   2.386  10.281   7.957 -0.2040 -0.1425  0.1542
  536loPI    C1 8561   9.833   5.912   9.406  0.2045  0.1117  0.0274
  536loPI    C2 8562   9.758   6.099   9.752 -0.0070 -0.0172  0.0534
  536loPI    C3 8563   9.810   5.703   9.746  0.2247  0.0126 -0.0317
  536loPI   PO4 8564   9.679   5.879   9.201 -0.0877  0.1878  0.0722
  536loPI   GL1 8565   9.717   5.786   8.712  0.0146  0.0548  0.0567
  536loPI   GL2 8566   9.860   5.474   8.917 -0.4310 -0.2015  0.0357
  536loPI   C1A 8567   9.688   5.920   8.225 -0.0204 -0.1693  0.0268
  536loPI   C2A 8568   9.716   5.752   7.772  0.0110  0.2420 -0.1906
  536loPI   C3A 8569   9.734   5.728   7.271 -0.1374 -0.0266 -0.1664
  536loPI   C4A 8570   9.548   6.030   7.001 -0.2311  0.0406 -0.2853
  536loPI   C5A 8571   9.263   6.258   6.955 -0.0008 -0.0921 -0.1345
  536loPI   C6A 8572   8.866   6.440   6.827  0.1081 -0.0069 -0.1102
  536loPI   C1B 8573   9.883   5.357   8.498 -0.1496 -0.0087 -0.1715
  536loPI   C2B 8574   9.999   5.446   8.108  0.0199 -0.2928  0.0362
  536loPI   C3B 8575  10.284   5.362   7.790  0.0847  0.0175  0.1674
  536loPI   C4B 8576  10.310   5.142   7.415 -0.0721 -0.1533 -0.2809
  537loPI    C1 8577  17.014  19.159   9.122 -0.1395  0.2048  0.1128
  537loPI    C2 8578  17.310  18.927   9.260 -0.0349  0.3223  0.0874
  537loPI    C3 8579  16.929  18.831   9.336  0.0064  0.1258  0.0512
  537loPI   PO4 8580  17.021  19.185   8.847 -0.2968 -0.0306  0.1555
  537loPI   GL1 8581  16.847  19.176   8.449 -0.2187  0.0549 -0.0398
  537loPI   GL2 8582  16.957  18.902   8.386 -0.0379 -0.2071  0.2470
  537loPI   C1A 8583  16.637  19.252   8.052  0.4827 -0.1550 -0.1361
  537loPI   C2A 8584  16.523  19.538   7.682  0.2798 -0.1792  0.1176
  537loPI   C3A 8585  16.239  19.626   7.336 -0.0467 -0.2331  0.1382
  537loPI   C4A 8586  16.218  19.886   6.922  0.1055 -0.1482 -0.3440
  537loPI   C5A 8587  16.033  20.226   6.775  0.1266  0.0190 -0.1080
  537loPI   C6A 8588  15.798  20.625   6.788  0.0911  0.1718 -0.2224
  537loPI   C1B 8589  17.034  18.916   8.009  0.1659  0.0483 -0.1201
  537loPI   C2B 8590  17.171  18.743   7.564  0.1472 -0.1009 -0.0648
  537loPI   C3B 8591  17.636  18.717   7.331 -0.0111 -0.0265 -0.2778
  537loPI   C4B 8592  17.926  18.494   7.073 -0.2897  0.0569  0.2343
  538loPI    C1 8593  17.909   9.268   9.483 -0.2745  0.1511  0.0361
  538loPI    C2 8594  18.257   9.080   9.544 -0.1829  0.2235 -0.2499
  538loPI    C3 8595  18.002   9.132   9.848  0.1244  0.3106 -0.0009
  538loPI   PO4 8596  17.794   9.197   9.339 -0.0423  0.1054 -0.0668
  538loPI   GL1 8597  17.624   9.291   8.921  0.1721  0.0887  0.3607
  538loPI   GL2 8598  17.446   9.026   8.748  0.0830  0.0330  0.0090
  538loPI   C1A 8599  17.586   9.549   8.477  0.1448  0.1186 -0.1790
  538loPI   C2A 8600  17.511   9.564   8.056  0.2260 -0.2271  0.2846
  538loPI   C3A 8601  17.528   9.482   7.679  0.1293  0.0139  0.0099
  538loPI   C4A 8602  17.357   9.465   7.254  0.1146  0.1714 -0.1930
  538loPI   C5A 8603  17.248   9.716   6.977 -0.0852  0.2025 -0.1618
  538loPI   C6A 8604  16.938   9.770   6.599  0.0444  0.0114  0.1188
  538loPI   C1B 8605  17.428   9.084   8.314  0.1118 -0.0549  0.0508
  538loPI   C2B 8606  17.458   9.054   7.934 -0.0037 -0.0035 -0.0617
  538loPI   C3B 8607  17.579   8.927   7.624  0.0654  0.2655 -0.0015
  538loPI   C4B 8608  17.520   8.963   7.248 -0.2281 -0.2166  0.2638
  539loPI    C1 8609  14.573  15.968   9.552  0.2221 -0.0385 -0.0652
  539loPI    C2 8610  14.937  15.821   9.628  0.1604 -0.2237 -0.1231
  539loPI    C3 8611  14.614  15.651   9.791  0.1255  0.1776  0.2443
  539loPI   PO4 8612  14.534  16.007   9.276 -0.0055 -0.1431  0.3581
  539loPI   GL1 8613  14.586  16.081   8.838  0.0380  0.4142  0.1532
  539loPI   GL2 8614  14.793  15.902   8.773 -0.0257  0.0200 -0.3336
  539loPI   C1A 8615  14.855  16.227   8.317 -0.0445  0.2514  0.1821
  539loPI   C2A 8616  14.755  16.320   7.910 -0.0321 -0.0399 -0.3042
  539loPI   C3A 8617  14.547  16.139   7.619  0.2323 -0.4933  0.2581
  539loPI   C4A 8618  14.493  16.000   7.202  0.1699 -0.1864 -0.0846
  539loPI   C5A 8619  14.582  15.993   6.743  0.1925  0.0117 -0.0099
  539loPI   C6A 8620  14.542  16.410   6.409 -0.1216 -0.3737  0.0362
  539loPI   C1B 8621  14.859  15.717   8.403  0.0030 -0.4247  0.1295
  539loPI   C2B 8622  14.880  15.764   7.923  0.1177 -0.1574  0.0266
  539loPI   C3B 8623  14.904  15.721   7.439 -0.1487 -0.0955 -0.1130
  539loPI   C4B 8624  14.819  15.443   7.081  0.1273  0.1228  0.1411
  540loPI    C1 8625   6.716  17.540   9.798  0.3415 -0.0966  0.2193
  540loPI    C2 8626   6.424  17.406  10.036 -0.0139  0.0089 -0.1476
  540loPI    C3 8627   6.785  17.485  10.188 -0.2418  0.1075  0.3609
  540loPI   PO4 8628   6.660  17.367   9.577  0.2266 -0.1404  0.0124
  540loPI   GL1 8629   6.648  17.146   9.262 -0.1659 -0.0080  0.2051
  540loPI   GL2 8630   6.381  17.455   9.120 -0.2572 -0.2917  0.0085
  540loPI   C1A 8631   6.632  17.033   8.755 -0.1426  0.0377 -0.2681
  540loPI   C2A 8632   6.341  16.714   8.564  0.0474  0.0443 -0.1721
  540loPI   C3A 8633   6.495  16.650   8.115  0.4827  0.0885 -0.2961
  540loPI   C4A 8634   6.771  16.553   7.721  0.3415  0.1658 -0.2765
  540loPI   C5A 8635   7.091  16.316   7.489 -0.2404 -0.0685  0.2266
  540loPI   C6A 8636   7.364  15.991   7.297  0.1061 -0.2746 -0.1644
  540loPI   C1B 8637   6.346  17.706   8.692  0.2236  0.1525  0.0357
  540loPI   C2B 8638   6.247  17.892   8.371 -0.1283 -0.2098 -0.1088
  540loPI   C3B 8639   6.541  18.126   8.273  0.0490  0.0742  0.2017
  540loPI   C4B 8640   6.532  18.349   7.857 -0.0222 -0.0238 -0.3848
  541loPI    C1 8641   6.627   2.975   9.586  0.2135  0.1022 -0.0478
  541loPI    C2 8642   6.957   2.816   9.745 -0.0052 -0.0393  0.2748
  541loPI    C3 8643   6.614   2.813   9.951 -0.2329  0.0198 -0.0937
  541loPI   PO4 8644   6.630   2.819   9.366 -0.0835  0.0687  0.3354
  541loPI   GL1 8645   6.351   2.752   9.112  0.4157 -0.3851 -0.2729
  541loPI   GL2 8646   6.079   2.892   8.963 -0.1696  0.3947 -0.1041
  541loPI   C1A 8647   6.565   2.646   8.743 -0.0852 -0.1381  0.1701
  541loPI   C2A 8648   6.786   2.365   8.545  0.0973 -0.1445  0.0840
  541loPI   C3A 8649   6.714   2.037   8.271  0.1625 -0.0757  0.1787
  541loPI   C4A 8650   6.729   2.188   7.814  0.2788 -0.3185  0.3344
  541loPI   C5A 8651   6.559   2.599   7.678 -0.1935  0.0539  0.0436
  541loPI   C6A 8652   6.579   2.752   7.161 -0.0827 -0.0021 -0.2828
  541loPI   C1B 8653   6.171   2.939   8.605 -0.0620  0.2555  0.0179
  541loPI   C2B 8654   6.096   2.913   8.157  0.1169  0.1449 -0.4148
  541loPI   C3B 8655   6.083   2.749   7.731 -0.0689  0.1152  0.0375
  541loPI   C4B 8656   5.865   2.418   7.625 -0.0031  0.2497 -0.1183
  542loPI    C1 8657   9.116  15.216  10.036  0.0676 -0.1163  0.2935
  542loPI    C2 8658   8.773  15.041  10.144 -0.0995 -0.0456 -0.1049
  542loPI    C3 8659   9.046  15.135  10.421 -0.2090 -0.5010  0.1677
  542loPI   PO4 8660   9.244  15.048   9.757  0.2533  0.0551 -0.0391
  542loPI   GL1 8661   8.991  15.117   9.343 -0.1305 -0.4668 -0.3314
  542loPI   GL2 8662   8.787  15.220   9.229 -0.1813 -0.0396 -0.0213
  542loPI   C1A 8663   9.188  14.864   9.051  0.0796  0.0151 -0.1323
  542loPI   C2A 8664   9.351  15.026   8.529 -0.2890  0.2403 -0.1449
  542loPI   C3A 8665   9.454  15.036   8.159 -0.2567  0.1119  0.0292
  542loPI   C4A 8666   9.532  14.813   7.743  0.0958  0.1389 -0.0243
  542loPI   C5A 8667   9.069  14.717   7.428 -0.0984  0.2373 -0.3320
  542loPI   C6A 8668   8.674  14.739   7.130  0.1203 -0.4028 -0.0873
  542loPI   C1B 8669   8.902  15.191   8.752  0.0238 -0.0938 -0.1421
  542loPI   C2B 8670   8.983  15.331   8.356 -0.1169  0.2711 -0.0762
  542loPI   C3B 8671   9.305  15.491   8.052  0.1682 -0.3186  0.2572
  542loPI   C4B 8672   9.464  15.917   7.849  0.0584  0.0168 -0.1980
  543loPI    C1 8673   0.426  19.828   9.930  0.0511  0.0209 -0.0655
  543loPI    C2 8674   0.716  19.870  10.202  0.1834 -0.2003 -0.1699
  543loPI    C3 8675   0.368  20.060  10.251  0.2319 -0.1806  0.1164
  543loPI   PO4 8676   0.511  19.818   9.619 -0.0773 -0.2354 -0.1488
  543loPI   GL1 8677   0.708  19.946   9.360  0.0268 -0.0334  0.0564
  543loPI   GL2 8678   0.953  19.891   9.213  0.3568 -0.0660  0.1320
  543loPI   C1A 8679   0.541  20.115   9.026  0.1295 -0.2526 -0.2970
  543loPI   C2A 8680   0.450  20.210   8.632  0.1255 -0.0715 -0.1176
  543loPI   C3A 8681   0.517  20.288   8.268 -0.2795 -0.0016 -0.1775
  543loPI   C4A 8682   0.569  20.223   7.863 -0.1849  0.3295 -0.2363
  543loPI   C5A 8683   0.486  20.134   7.377  0.0697 -0.0518  0.0671
  543loPI   C6A 8684   0.666  19.923   6.983  0.1622  0.0291  0.0515
  543loPI   C1B 8685   0.952  19.889   8.835 -0.2102  0.2642 -0.3236
  543loPI   C2B 8686   0.954  19.993   8.445  0.0610 -0.0356  0.1174
  543loPI   C3B 8687   0.998  19.971   8.057  0.1434 -0.4681  0.0408
  543loPI   C4B 8688   0.845  19.826   7.574 -0.1520 -0.1638 -0.1432
  544loPI    C1 8689  16.458   6.972   9.329  0.1415 -0.0213  0.0677
  544loPI    C2 8690  16.576   6.862   9.695  0.2781 -0.1488 -0.0132
  544loPI    C3 8691  16.266   6.679   9.521  0.0654  0.0685  0.1299
  544loPI   PO4 8692  16.602   7.040   9.171  0.0781 -0.0518  0.1499
  544loPI   GL1 8693  16.526   6.927   8.797 -0.0608 -0.0973 -0.2847
  544loPI   GL2 8694  16.335   6.694   8.700 -0.0521  0.2010 -0.1314
  544loPI   C1A 8695  16.785   6.889   8.326  0.0019  0.1326 -0.0678
  544loPI   C2A 8696  17.039   7.042   8.012  0.0360 -0.0112 -0.1057
  544loPI   C3A 8697  17.128   7.106   7.520  0.1960 -0.0218  0.2863
  544loPI   C4A 8698  17.361   7.252   7.125  0.0256 -0.1334  0.0918
  544loPI   C5A 8699  17.485   7.572   6.897  0.2150  0.0850 -0.1477
  544loPI   C6A 8700  17.676   7.631   6.476 -0.0025  0.0879 -0.1913
  544loPI   C1B 8701  16.235   6.617   8.334 -0.0226 -0.1943 -0.0456
  544loPI   C2B 8702  16.071   6.706   7.950  0.1551 -0.0533  0.1124
  544loPI   C3B 8703  16.229   6.595   7.431 -0.2881 -0.0693 -0.0636
  544loPI   C4B 8704  16.657   6.547   7.373  0.0048 -0.1256  0.1503
  545loPI    C1 8705  12.784   6.328   9.911  0.1852 -0.0397  0.2579
  545loPI    C2 8706  12.638   6.696   9.968 -0.0345 -0.0759 -0.0452
  545loPI    C3 8707  13.032   6.641   9.926  0.0179  0.0980  0.1941
  545loPI   PO4 8708  12.557   6.246   9.673 -0.0261  0.0580 -0.1090
  545loPI   GL1 8709  12.479   6.003   9.312  0.0734 -0.0137 -0.2971
  545loPI   GL2 8710  12.214   6.261   9.270  0.1149  0.1648 -0.0344
  545loPI   C1A 8711  12.611   6.017   8.798  0.1595 -0.2041  0.1533
  545loPI   C2A 8712  12.729   6.238   8.458 -0.0979 -0.1600 -0.0557
  545loPI   C3A 8713  12.711   6.200   7.954  0.2775  0.0462 -0.0086
  545loPI   C4A 8714  12.761   5.937   7.481 -0.0451 -0.1851  0.1156
  545loPI   C5A 8715  12.566   6.039   7.047  0.0979 -0.2196 -0.0599
  545loPI   C6A 8716  12.417   6.403   6.829  0.0625  0.0941 -0.0333
  545loPI   C1B 8717  12.269   6.359   8.804  0.3218 -0.0193  0.0079
  545loPI   C2B 8718  12.319   6.483   8.318 -0.1179  0.0648 -0.2640
  545loPI   C3B 8719  12.235   6.550   7.912 -0.2292 -0.2389  0.1794
  545loPI   C4B 8720  11.890   6.494   7.624 -0.0417  0.2405 -0.0576
  546loPI    C1 8721   2.512  11.229   9.796 -0.3288  0.2085 -0.1058
  546loPI    C2 8722   2.602  11.140   9.417  0.0845  0.0895  0.0142
  546loPI    C3 8723   2.569  10.848   9.688 -0.0880  0.1841  0.0970
  546loPI   PO4 8724   2.629  11.444   9.787  0.1253  0.0962  0.0816
  546loPI   GL1 8725   2.917  11.660   9.429 -0.1674  0.0395 -0.1289
  546loPI   GL2 8726   2.834  11.896   9.206 -0.1379  0.1827  0.0608
  546loPI   C1A 8727   2.825  11.431   8.977 -0.1335  0.0684 -0.1001
  546loPI   C2A 8728   2.743  11.518   8.528  0.1415 -0.0820  0.0336
  546loPI   C3A 8729   2.808  11.662   8.056 -0.3791  0.0671 -0.0213
  546loPI   C4A 8730   3.099  11.875   7.814  0.1997 -0.0279 -0.0512
  546loPI   C5A 8731   3.218  11.858   7.378 -0.1250  0.0344 -0.0647
  546loPI   C6A 8732   3.441  11.731   6.968  0.0748  0.0185 -0.0965
  546loPI   C1B 8733   2.800  11.983   8.810  0.0504  0.1975  0.1327
  546loPI   C2B 8734   2.606  11.985   8.420  0.1761  0.0708  0.0142
  546loPI   C3B 8735   2.315  11.692   8.177  0.3201  0.3041  0.0158
  546loPI   C4B 8736   2.002  11.652   7.885 -0.0740  0.0064 -0.2453
  547loPI    C1 8737   5.979  14.428   9.933 -0.0970 -0.0887 -0.1074
  547loPI    C2 8738   6.039  14.778  10.115  0.1113 -0.1062 -0.1403
  547loPI    C3 8739   6.154  14.438  10.292 -0.2644 -0.1763 -0.0221
  547loPI   PO4 8740   6.064  14.434   9.730  0.0281 -0.2241 -0.0995
  547loPI   GL1 8741   5.738  14.448   9.371  0.0902  0.1228  0.1607
  547loPI   GL2 8742   5.981  14.692   9.326 -0.0174  0.0103  0.4033
  547loPI   C1A 8743   5.810  14.196   8.989 -0.1746  0.1548 -0.4763
  547loPI   C2A 8744   5.732  13.899   8.581  0.1449  0.0971 -0.2294
  547loPI   C3A 8745   5.662  13.923   8.168  0.0329  0.0962 -0.1483
  547loPI   C4A 8746   5.539  13.999   7.815 -0.0571  0.0829 -0.0945
  547loPI   C5A 8747   5.425  14.246   7.493 -0.0218  0.0341  0.1788
  547loPI   C6A 8748   5.514  14.539   7.123 -0.0343  0.0588  0.3379
  547loPI   C1B 8749   6.192  14.536   8.953 -0.0265  0.0585  0.0888
  547loPI   C2B 8750   6.370  14.555   8.540  0.0493 -0.1856 -0.0539
  547loPI   C3B 8751   6.387  14.758   8.143 -0.2824  0.0738 -0.3952
  547loPI   C4B 8752   6.279  14.936   7.824 -0.3006  0.2188 -0.0074
  548loPI    C1 8753   6.550   1.002   9.940  0.1734  0.1877 -0.1156
  548loPI    C2 8754   6.885   0.835  10.083  0.0018 -0.0591  0.0061
  548loPI    C3 8755   6.633   1.024  10.331 -0.0283 -0.0129 -0.0592
  548loPI   PO4 8756   6.641   1.119   9.717  0.0456 -0.1279 -0.2169
  548loPI   GL1 8757   6.749   1.313   9.305 -0.0564 -0.2603  0.0426
  548loPI   GL2 8758   6.885   1.110   9.088 -0.0235 -0.0597 -0.3797
  548loPI   C1A 8759   6.479   1.221   8.977 -0.0033  0.1187 -0.0169
  548loPI   C2A 8760   6.588   1.302   8.653  0.5561 -0.0334 -0.0701
  548loPI   C3A 8761   6.798   1.393   8.321  0.1858  0.0372 -0.0344
  548loPI   C4A 8762   6.704   1.609   7.879  0.1380 -0.2230  0.0932
  548loPI   C5A 8763   6.613   1.858   7.475  0.5422 -0.4129  0.1131
  548loPI   C6A 8764   6.275   2.104   7.387  0.0407 -0.2323  0.1036
  548loPI   C1B 8765   7.064   1.326   8.737 -0.0551 -0.0462  0.3432
  548loPI   C2B 8766   7.236   1.596   8.462 -0.0775 -0.2625 -0.0976
  548loPI   C3B 8767   7.194   1.837   8.109 -0.0842  0.2824  0.2948
  548loPI   C4B 8768   7.231   2.138   7.760 -0.3228  0.1970 -0.3063
  549loPI    C1 8769  12.883   3.549   9.350  0.3904  0.0537  0.1063
  549loPI    C2 8770  13.054   3.210   9.224 -0.0818 -0.0897 -0.1736
  549loPI    C3 8771  12.945   3.249   9.607  0.0880 -0.2027 -0.1126
  549loPI   PO4 8772  12.942   3.697   9.180  0.0629 -0.2011 -0.1102
  549loPI   GL1 8773  13.007   4.115   9.070 -0.2189 -0.0443 -0.3998
  549loPI   GL2 8774  13.081   3.905   8.756 -0.0659 -0.1783 -0.1552
  549loPI   C1A 8775  12.607   4.073   8.767  0.2093  0.1105  0.0511
  549loPI   C2A 8776  12.419   3.983   8.412 -0.3269  0.1343 -0.3185
  549loPI   C3A 8777  12.052   4.173   8.250  0.3075 -0.1261 -0.0487
  549loPI   C4A 8778  11.793   4.276   7.872  0.1596 -0.2705  0.3118
  549loPI   C5A 8779  11.843   4.636   7.712 -0.1149  0.1967 -0.1530
  549loPI   C6A 8780  11.836   5.027   7.659  0.1342 -0.0807 -0.3684
  549loPI   C1B 8781  13.020   4.041   8.344 -0.0351 -0.3048  0.1093
  549loPI   C2B 8782  13.162   4.158   8.010  0.0300 -0.1345 -0.0051
  549loPI   C3B 8783  13.276   4.379   7.630 -0.2405 -0.1006 -0.0994
  549loPI   C4B 8784  13.542   4.373   7.216 -0.1727  0.0423  0.0480
  550loPI    C1 8785   0.972  16.208   9.185 -0.2188  0.1860  0.0933
  550loPI    C2 8786   1.339  16.271   9.332 -0.0886 -0.0562 -0.1189
  550loPI    C3 8787   1.226  16.449   8.991 -0.1304 -0.0670 -0.1106
  550loPI   PO4 8788   0.908  15.944   9.094  0.1544 -0.0496  0.1340
  550loPI   GL1 8789   0.825  15.893   8.727  0.0035  0.3738 -0.0182
  550loPI   GL2 8790   1.072  16.166   8.652  0.1188  0.1225  0.3390
  550loPI   C1A 8791   0.697  15.758   8.367  0.2473 -0.1596  0.1397
  550loPI   C2A 8792   0.382  15.551   8.203  0.1826 -0.0942 -0.2386
  550loPI   C3A 8793   0.338  15.430   7.788  0.1778  0.0699  0.3361
  550loPI   C4A 8794   0.205  15.460   7.341  0.2178  0.0220  0.1286
  550loPI   C5A 8795  -0.283  15.566   7.228 -0.1332  0.0566  0.1520
  550loPI   C6A 8796  -0.637  15.800   7.330  0.2815 -0.0495 -0.0488
  550loPI   C1B 8797   0.968  16.066   8.102  0.1371 -0.1549  0.1307
  550loPI   C2B 8798   1.059  16.155   7.604 -0.0891  0.0492 -0.0949
  550loPI   C3B 8799   1.051  16.042   7.164 -0.0305  0.2506  0.0787
  550loPI   C4B 8800   1.254  15.617   6.760 -0.1323 -0.4337  0.0789
  551loPI    C1 8801  12.187   3.321   9.217  0.1487 -0.2254 -0.1235
  551loPI    C2 8802  12.090   3.232   9.594 -0.1516 -0.2779 -0.2104
  551loPI    C3 8803  12.450   3.385   9.511 -0.1577 -0.0706  0.1233
  551loPI   PO4 8804  12.070   3.173   9.058  0.0380  0.0367 -0.0422
  551loPI   GL1 8805  12.113   3.130   8.616 -0.0702 -0.1400  0.0283
  551loPI   GL2 8806  12.234   3.500   8.684 -0.2571  0.0090  0.1168
  551loPI   C1A 8807  12.187   3.196   8.275  0.0081 -0.0149  0.4145
  551loPI   C2A 8808  12.358   3.470   7.915 -0.0684 -0.5250 -0.3165
  551loPI   C3A 8809  12.331   3.913   7.883 -0.0404 -0.0297 -0.0530
  551loPI   C4A 8810  12.305   4.191   7.637 -0.0222 -0.0348  0.0596
  551loPI   C5A 8811  12.156   4.323   7.294 -0.1312 -0.4491  0.1303
  551loPI   C6A 8812  11.913   4.601   7.147 -0.0858  0.3143 -0.1375
  551loPI   C1B 8813  11.972   3.706   8.377 -0.5434 -0.0977 -0.1618
  551loPI   C2B 8814  11.855   3.689   8.000 -0.2665  0.0637  0.0025
  551loPI   C3B 8815  11.866   3.625   7.547 -0.1717  0.1574  0.1280
  551loPI   C4B 8816  11.984   3.855   7.088  0.1595 -0.3178 -0.0997
  552loPI    C1 8817  14.875   1.541   9.439  0.2051  0.1107  0.1208
  552loPI    C2 8818  15.129   1.303   9.637  0.1443 -0.0789 -0.0258
  552loPI    C3 8819  14.785   1.415   9.807  0.1857 -0.0731  0.0545
  552loPI   PO4 8820  14.955   1.381   9.135 -0.2075  0.1638 -0.0241
  552loPI   GL1 8821  14.917   1.525   8.720  0.0515  0.4616 -0.2373
  552loPI   GL2 8822  14.833   1.795   8.586  0.2354  0.2290 -0.2309
  552loPI   C1A 8823  15.058   1.363   8.385  0.2986 -0.2355  0.3415
  552loPI   C2A 8824  15.271   1.575   7.945 -0.1990  0.1766 -0.1292
  552loPI   C3A 8825  15.551   1.522   7.668  0.2656  0.2246 -0.1331
  552loPI   C4A 8826  15.575   1.625   7.241  0.1179 -0.1524  0.1354
  552loPI   C5A 8827  15.587   1.685   6.799 -0.3332 -0.2227 -0.0626
  552loPI   C6A 8828  15.773   1.638   6.440  0.0943 -0.1546 -0.1007
  552loPI   C1B 8829  14.835   1.770   8.203 -0.1142 -0.3184  0.1133
  552loPI   C2B 8830  14.934   1.933   7.789 -0.0332  0.2280 -0.2949
  552loPI   C3B 8831  15.133   1.877   7.375 -0.0398  0.2029 -0.0419
  552loPI   C4B 8832  15.070   1.876   6.935  0.1643  0.0577  0.0144
  553loPI    C1 8833   3.328   4.147   9.898  0.1989  0.0356 -0.0014
  553loPI    C2 8834   3.531   3.807   9.955 -0.1921 -0.2167 -0.0819
  553loPI    C3 8835   3.397   4.016  10.269 -0.2423 -0.3171 -0.0362
  553loPI   PO4 8836   3.457   4.343   9.669  0.0926 -0.0521 -0.2165
  553loPI   GL1 8837   3.467   4.265   9.271  0.1804  0.0978  0.1647
  553loPI   GL2 8838   3.536   4.411   9.046 -0.2662  0.0286  0.3144
  553loPI   C1A 8839   3.164   4.028   8.975 -0.1600 -0.1315  0.1336
  553loPI   C2A 8840   2.989   3.886   8.543 -0.1094 -0.0397 -0.1704
  553loPI   C3A 8841   3.189   3.815   8.070  0.0940 -0.1160 -0.2973
  553loPI   C4A 8842   3.193   3.547   7.613  0.2743 -0.0523 -0.0913
  553loPI   C5A 8843   3.235   3.470   7.180  0.0070  0.0173  0.3335
  553loPI   C6A 8844   3.544   3.224   6.892 -0.1067  0.1147  0.1630
  553loPI   C1B 8845   3.432   4.353   8.572 -0.1735  0.0117  0.1898
  553loPI   C2B 8846   3.640   4.606   8.198  0.3109  0.0628  0.0760
  553loPI   C3B 8847   3.795   4.900   8.025 -0.0460  0.0278  0.5349
  553loPI   C4B 8848   4.090   5.251   7.900 -0.0558  0.0854 -0.1351
  554loPI    C1 8849  12.713  10.777   9.991 -0.0058 -0.0171 -0.0130
  554loPI    C2 8850  12.618  10.484  10.247  0.1682  0.1317  0.2257
  554loPI    C3 8851  12.376  10.801  10.206  0.1180  0.0867  0.1720
  554loPI   PO4 8852  12.691  10.721   9.663 -0.0223 -0.0711  0.1824
  554loPI   GL1 8853  12.428  10.690   9.279 -0.0559  0.0082  0.0289
  554loPI   GL2 8854  12.529  10.715   9.015 -0.1021 -0.2380  0.0878
  554loPI   C1A 8855  12.165  10.997   9.004  0.0460  0.0446  0.1535
  554loPI   C2A 8856  12.192  11.082   8.518 -0.3075  0.0802 -0.1057
  554loPI   C3A 8857  12.067  11.368   8.165 -0.3898 -0.1506 -0.0165
  554loPI   C4A 8858  12.022  11.486   7.747 -0.0555  0.0659  0.1287
  554loPI   C5A 8859  12.161  11.775   7.549  0.0034  0.2082 -0.0550
  554loPI   C6A 8860  12.256  11.669   7.062  0.0655  0.0283  0.0195
  554loPI   C1B 8861  12.382  10.498   8.688  0.2591  0.0571 -0.0623
  554loPI   C2B 8862  12.254  10.461   8.349 -0.0974  0.1148 -0.0332
  554loPI   C3B 8863  12.158  10.832   8.072  0.0018 -0.0285  0.2424
  554loPI   C4B 8864  12.123  10.920   7.625  0.1797 -0.1134  0.2512
  555loPI    C1 8865   8.466  12.658  10.030 -0.1802 -0.0296  0.1216
  555loPI    C2 8866   8.442  12.312  10.228  0.1208  0.0526  0.3092
  555loPI    C3 8867   8.527  12.649  10.425 -0.1175  0.2270  0.1195
  555loPI   PO4 8868   8.294  12.598   9.808  0.0114 -0.0442 -0.1909
  555loPI   GL1 8869   8.087  12.506   9.462 -0.2203 -0.0680 -0.0776
  555loPI   GL2 8870   7.985  12.210   9.407  0.1385  0.0616  0.1787
  555loPI   C1A 8871   8.338  12.507   9.152 -0.3040  0.0180  0.4122
  555loPI   C2A 8872   8.489  12.801   8.984 -0.0491  0.1208  0.0995
  555loPI   C3A 8873   8.663  13.067   8.629 -0.1434 -0.2216 -0.3159
  555loPI   C4A 8874   8.486  13.113   8.159 -0.2320  0.0779  0.1130
  555loPI   C5A 8875   8.443  13.355   7.976 -0.0286 -0.4365 -0.0591
  555loPI   C6A 8876   8.099  13.699   7.957  0.1235 -0.1009  0.1361
  555loPI   C1B 8877   7.810  12.303   9.087  0.0449 -0.0429  0.1545
  555loPI   C2B 8878   7.792  12.310   8.650  0.1050 -0.2358 -0.1894
  555loPI   C3B 8879   7.509  12.314   8.260  0.1620  0.0160 -0.0466
  555loPI   C4B 8880   7.728  12.223   7.923  0.3917 -0.0121  0.1993
  556loPI    C1 8881   5.122   6.398   9.996  0.1574  0.0880  0.0094
  556loPI    C2 8882   5.282   6.032  10.003  0.1372  0.0821  0.3290
  556loPI    C3 8883   5.366   6.292  10.294 -0.0705  0.2371  0.2533
  556loPI   PO4 8884   4.967   6.425   9.773  0.0752  0.1055 -0.1775
  556loPI   GL1 8885   4.961   6.675   9.377  0.0904  0.0977  0.0541
  556loPI   GL2 8886   5.342   6.635   9.299 -0.1211 -0.3174 -0.1195
  556loPI   C1A 8887   4.896   6.855   9.047 -0.0248  0.1029  0.1877
  556loPI   C2A 8888   4.794   6.904   8.617  0.0645 -0.0460 -0.1446
  556loPI   C3A 8889   4.831   7.125   8.180 -0.4167  0.0322 -0.0098
  556loPI   C4A 8890   4.661   7.154   7.831  0.0763  0.3469  0.1006
  556loPI   C5A 8891   4.509   6.931   7.496 -0.1763  0.1051  0.1223
  556loPI   C6A 8892   4.560   6.634   7.167 -0.0213 -0.0574 -0.1597
  556loPI   C1B 8893   5.284   6.454   8.955 -0.0409  0.3365  0.2428
  556loPI   C2B 8894   5.054   6.492   8.531 -0.1586  0.2795 -0.1728
  556loPI   C3B 8895   4.747   6.459   8.174 -0.0954  0.3526  0.1987
  556loPI   C4B 8896   4.719   6.607   7.814 -0.1567 -0.3453  0.0892
  557loPI    C1 8897  15.096  16.269   9.395  0.0968 -0.0673 -0.1658
  557loPI    C2 8898  14.813  16.358   9.662  0.0942 -0.0282 -0.1817
  557loPI    C3 8899  15.186  16.283   9.784  0.1101  0.0634 -0.1732
  557loPI   PO4 8900  14.938  16.257   9.130 -0.1693  0.4750  0.0778
  557loPI   GL1 8901  15.174  16.317   8.682 -0.0298  0.0368  0.0780
  557loPI   GL2 8902  15.471  16.507   8.659  0.0899 -0.0864 -0.2166
  557loPI   C1A 8903  15.352  16.054   8.424 -0.2762  0.2133 -0.1046
  557loPI   C2A 8904  15.243  16.151   7.982  0.0822  0.0521  0.0014
  557loPI   C3A 8905  15.054  16.188   7.479  0.1590  0.0137  0.3162
  557loPI   C4A 8906  14.931  16.109   7.087  0.0702  0.0549  0.0366
  557loPI   C5A 8907  15.129  16.272   6.739 -0.0469  0.2702  0.1330
  557loPI   C6A 8908  15.106  16.524   6.380  0.4110  0.2100 -0.0245
  557loPI   C1B 8909  15.352  16.583   8.263  0.1602  0.0578  0.1014
  557loPI   C2B 8910  15.140  16.649   7.894 -0.0714 -0.3486 -0.0111
  557loPI   C3B 8911  14.918  16.702   7.609 -0.1452  0.0096  0.1542
  557loPI   C4B 8912  14.898  17.011   7.379  0.1484 -0.0233  0.2054
  558loPI    C1 8913  14.842   7.080   9.832 -0.0957 -0.0971 -0.0446
  558loPI    C2 8914  15.209   7.239   9.846  0.0862 -0.5028 -0.0676
  558loPI    C3 8915  14.908   7.413  10.044  0.1983  0.0584 -0.3710
  558loPI   PO4 8916  14.815   6.945   9.608 -0.0384 -0.4024  0.2844
  558loPI   GL1 8917  14.643   7.029   9.146 -0.4731  0.0036  0.1016
  558loPI   GL2 8918  14.838   6.820   9.112 -0.0405 -0.3038 -0.1223
  558loPI   C1A 8919  14.712   7.218   8.774 -0.1807  0.2445  0.1151
  558loPI   C2A 8920  14.724   7.429   8.293  0.1358 -0.0624  0.0196
  558loPI   C3A 8921  14.835   7.305   7.874 -0.3427 -0.3817 -0.0255
  558loPI   C4A 8922  14.711   7.142   7.464  0.0966  0.0495 -0.1270
  558loPI   C5A 8923  14.776   6.981   7.024  0.0845  0.2324 -0.0893
  558loPI   C6A 8924  15.144   7.120   6.800  0.0095 -0.2529  0.2034
  558loPI   C1B 8925  14.635   6.737   8.707  0.4846  0.1706 -0.0415
  558loPI   C2B 8926  14.594   6.488   8.364 -0.2526  0.1515 -0.1232
  558loPI   C3B 8927  14.526   6.249   8.035 -0.1376 -0.0537 -0.1632
  558loPI   C4B 8928  14.351   6.253   7.675 -0.2249  0.1859 -0.1035
  559loPI    C1 8929  11.504  13.964   9.781 -0.2163 -0.0473 -0.1131
  559loPI    C2 8930  11.681  14.143  10.091  0.0582 -0.1052 -0.2332
  559loPI    C3 8931  11.314  14.255   9.979  0.1041  0.1697 -0.1173
  559loPI   PO4 8932  11.695  13.840   9.523  0.0338 -0.3627 -0.2133
  559loPI   GL1 8933  11.656  14.010   9.187 -0.0085  0.2524 -0.0232
  559loPI   GL2 8934  11.913  13.802   9.081  0.0376  0.0245 -0.1399
  559loPI   C1A 8935  11.495  14.068   8.830  0.0595  0.0629  0.0366
  559loPI   C2A 8936  11.457  13.650   8.512  0.2512 -0.1471 -0.0503
  559loPI   C3A 8937  11.418  13.478   8.171 -0.0018  0.1120  0.2729
  559loPI   C4A 8938  11.248  13.442   7.704 -0.1415  0.2738 -0.0105
  559loPI   C5A 8939  11.247  13.405   7.345  0.0850  0.0041  0.1074
  559loPI   C6A 8940  11.264  13.200   6.985 -0.0534  0.0153  0.0170
  559loPI   C1B 8941  11.859  13.413   8.823  0.0982  0.0463  0.1393
  559loPI   C2B 8942  11.695  13.187   8.492  0.0917  0.1449  0.0917
  559loPI   C3B 8943  11.840  13.008   8.240 -0.1302  0.1571  0.1020
  559loPI   C4B 8944  12.195  12.721   8.238 -0.3302 -0.0156  0.2552
  560loPI    C1 8945   7.979   0.328   9.601  0.1583 -0.0789  0.0352
  560loPI    C2 8946   8.238   0.601   9.735 -0.0276  0.0806  0.0734
  560loPI    C3 8947   8.072   0.341   9.990 -0.0655  0.1154  0.0842
  560loPI   PO4 8948   7.961   0.420   9.376  0.0689 -0.0426 -0.1211
  560loPI   GL1 8949   8.054   0.349   8.930 -0.1505  0.2348  0.2044
  560loPI   GL2 8950   7.676   0.185   8.749 -0.3855 -0.1368  0.4653
  560loPI   C1A 8951   8.256   0.081   8.621  0.2579 -0.1527 -0.0283
  560loPI   C2A 8952   8.462  -0.113   8.300  0.0942  0.0211  0.0346
  560loPI   C3A 8953   8.440  -0.218   7.886  0.1798 -0.2161  0.1645
  560loPI   C4A 8954   8.602  -0.408   7.533  0.0288  0.2523 -0.0358
  560loPI   C5A 8955   8.589  -0.218   7.186  0.1012 -0.2029 -0.2386
  560loPI   C6A 8956   8.332  -0.347   6.933  0.0471 -0.1591 -0.1271
  560loPI   C1B 8957   7.788   0.134   8.357  0.1026 -0.4471 -0.0487
  560loPI   C2B 8958   7.731   0.369   8.033  0.2692 -0.1006 -0.0617
  560loPI   C3B 8959   7.962   0.720   7.798  0.0859 -0.2629 -0.1929
  560loPI   C4B 8960   8.037   0.945   7.405 -0.0952 -0.3220 -0.0907
  561loPI    C1 8961  11.588  14.943   9.501  0.1732  0.0344 -0.2165
  561loPI    C2 8962  11.307  15.210   9.600  0.2574  0.0253  0.0562
  561loPI    C3 8963  11.688  15.271   9.708  0.3168 -0.0904 -0.0846
  561loPI   PO4 8964  11.579  14.908   9.108 -0.0329 -0.2296  0.3243
  561loPI   GL1 8965  11.828  14.863   8.764 -0.0066 -0.0869 -0.0044
  561loPI   GL2 8966  11.840  15.160   8.744  0.1362 -0.0525 -0.1837
  561loPI   C1A 8967  11.888  14.868   8.288 -0.1643  0.3285 -0.1574
  561loPI   C2A 8968  11.679  14.846   7.790  0.4257 -0.1287  0.1798
  561loPI   C3A 8969  11.513  14.677   7.515 -0.0202 -0.0591 -0.0888
  561loPI   C4A 8970  11.535  14.463   7.175 -0.0468  0.2000  0.0651
  561loPI   C5A 8971  11.497  14.406   6.774  0.1099 -0.2151 -0.0459
  561loPI   C6A 8972  11.365  14.281   6.430 -0.1602 -0.3472 -0.1101
  561loPI   C1B 8973  12.237  15.169   8.509  0.1401 -0.2103  0.1250
  561loPI   C2B 8974  12.261  15.460   8.190 -0.0959  0.1305 -0.1088
  561loPI   C3B 8975  12.285  15.545   7.822 -0.2031  0.0334 -0.1559
  561loPI   C4B 8976  12.363  15.691   7.457  0.1669 -0.1624  0.0267
  562loPI    C1 8977   8.897  11.752  10.066 -0.2134  0.0445 -0.0474
  562loPI    C2 8978   9.277  11.783  10.186 -0.1315 -0.4133 -0.1679
  562loPI    C3 8979   8.980  11.867  10.440  0.0460 -0.0634 -0.0697
  562loPI   PO4 8980   8.841  11.967   9.868 -0.2497  0.3284 -0.2692
  562loPI   GL1 8981   8.977  12.031   9.457 -0.0240  0.0646 -0.2785
  562loPI   GL2 8982   9.000  11.677   9.234  0.0278 -0.1305  0.3018
  562loPI   C1A 8983   8.725  12.095   9.139  0.1332 -0.0331  0.2712
  562loPI   C2A 8984   8.710  12.009   8.730 -0.1842 -0.0444  0.1537
  562loPI   C3A 8985   8.806  12.035   8.279  0.3137  0.0329  0.0250
  562loPI   C4A 8986   8.563  12.100   7.972 -0.2662 -0.2117  0.2464
  562loPI   C5A 8987   8.835  12.373   7.580  0.3214 -0.1925  0.0204
  562loPI   C6A 8988   8.844  12.626   7.360  0.0841 -0.1147 -0.0711
  562loPI   C1B 8989   9.079  11.567   8.795  0.1500 -0.0266 -0.2515
  562loPI   C2B 8990   9.021  11.569   8.276 -0.1843 -0.1209 -0.1029
  562loPI   C3B 8991   8.771  11.611   8.011  0.2504 -0.0680  0.3992
  562loPI   C4B 8992   8.866  11.474   7.599 -0.1305 -0.2645  0.1694
  563loPI    C1 8993   8.709   6.766  10.276  0.1963  0.0834  0.0196
  563loPI    C2 8994   8.640   6.499  10.566  0.2971 -0.0650 -0.0912
  563loPI    C3 8995   8.904   6.794  10.624  0.0000  0.1654  0.1247
  563loPI   PO4 8996   8.828   6.570  10.063 -0.0627  0.0455 -0.0288
  563loPI   GL1 8997   8.898   6.585   9.745  0.5199  0.1004 -0.1093
  563loPI   GL2 8998   8.800   6.248   9.625 -0.2457  0.3146 -0.2354
  563loPI   C1A 8999   8.957   6.674   9.258  0.0312  0.0216  0.0454
  563loPI   C2A 9000   8.855   6.748   8.865  0.2385  0.0922  0.0674
  563loPI   C3A 9001   8.532   6.596   8.563 -0.1163 -0.1121 -0.1037
  563loPI   C4A 9002   8.337   6.473   8.140  0.2483 -0.0345 -0.2203
  563loPI   C5A 9003   8.479   6.319   7.658 -0.0258 -0.1394  0.0766
  563loPI   C6A 9004   8.538   6.110   7.308  0.0607  0.1695 -0.2789
  563loPI   C1B 9005   8.826   6.061   9.373  0.0882 -0.1041 -0.1628
  563loPI   C2B 9006   9.047   5.880   9.052 -0.1703  0.1097  0.0975
  563loPI   C3B 9007   9.198   5.848   8.566 -0.0921  0.3308  0.2373
  563loPI   C4B 9008   9.019   5.609   8.297  0.0852 -0.1522 -0.0645
  564loPI    C1 9009  17.975   6.670   9.449 -0.0138  0.0764  0.1024
  564loPI    C2 9010  17.880   6.894   9.767 -0.1136 -0.0625  0.1715
  564loPI    C3 9011  18.167   6.616   9.796 -0.0818 -0.0347  0.1236
  564loPI   PO4 9012  18.000   6.729   9.257 -0.0271  0.1653 -0.1632
  564loPI   GL1 9013  17.939   6.663   8.921 -0.1881 -0.0020  0.2456
  564loPI   GL2 9014  17.785   6.873   8.775 -0.1462 -0.0883 -0.1717
  564loPI   C1A 9015  17.947   6.481   8.528 -0.0082 -0.0929  0.1329
  564loPI   C2A 9016  17.910   6.247   8.145 -0.0455  0.7531  0.2526
  564loPI   C3A 9017  17.882   5.797   8.015 -0.0401 -0.0691 -0.0627
  564loPI   C4A 9018  17.985   5.382   7.866 -0.1628  0.0110 -0.0511
  564loPI   C5A 9019  18.115   5.494   7.374 -0.1127  0.0940  0.0911
  564loPI   C6A 9020  18.105   5.279   6.982  0.1248  0.2837 -0.0153
  564loPI   C1B 9021  17.871   6.916   8.225  0.1704 -0.4152  0.1703
  564loPI   C2B 9022  17.890   6.996   7.770  0.0702  0.3161 -0.1344
  564loPI   C3B 9023  17.976   6.961   7.208  0.1325  0.1137 -0.0401
  564loPI   C4B 9024  18.222   6.977   6.771 -0.0692 -0.0035 -0.4842
  565loPI    C1 9025  14.489   3.495   9.186  0.1360  0.1272  0.0819
  565loPI    C2 9026  14.355   3.257   9.478  0.2474  0.0081  0.0367
  565loPI    C3 9027  14.456   3.635   9.560  0.2209 -0.0069  0.1404
  565loPI   PO4 9028  14.551   3.214   9.038 -0.0769 -0.1193  0.0880
  565loPI   GL1 9029  14.730   3.192   8.656  0.0937 -0.1845 -0.1042
  565loPI   GL2 9030  14.870   3.384   8.693 -0.0633 -0.0737  0.0356
  565loPI   C1A 9031  14.660   3.089   8.264 -0.0307  0.4014  0.3293
  565loPI   C2A 9032  14.503   2.985   7.785  0.1082  0.1645  0.1200
  565loPI   C3A 9033  14.389   2.974   7.472 -0.1700 -0.0089  0.0581
  565loPI   C4A 9034  14.393   2.702   7.214  0.2598  0.0218  0.1447
  565loPI   C5A 9035  14.153   2.454   7.053  0.1460 -0.0109 -0.1255
  565loPI   C6A 9036  13.801   2.482   6.949 -0.2542 -0.0582 -0.3179
  565loPI   C1B 9037  15.022   3.378   8.293 -0.1571 -0.0658 -0.0084
  565loPI   C2B 9038  14.880   3.308   7.825 -0.0937  0.3099 -0.3600
  565loPI   C3B 9039  15.007   3.288   7.453 -0.1265  0.0356 -0.2089
  565loPI   C4B 9040  14.776   3.260   7.023 -0.0344 -0.0444  0.1548
  566loPI    C1 9041  17.758   0.982   9.492  0.1322 -0.1048  0.1713
  566loPI    C2 9042  17.680   0.638   9.680  0.0632 -0.1149  0.1247
  566loPI    C3 9043  17.860   0.937   9.876 -0.0294 -0.1171  0.2136
  566loPI   PO4 9044  17.842   0.927   9.283 -0.1115  0.1304 -0.1378
  566loPI   GL1 9045  18.109   1.001   8.952 -0.1723 -0.0563 -0.1576
  566loPI   GL2 9046  18.278   1.165   8.940 -0.2656 -0.3667  0.0930
  566loPI   C1A 9047  18.235   0.741   8.654 -0.2671  0.1610  0.1522
  566loPI   C2A 9048  18.118   0.664   8.238  0.2158 -0.0916  0.3865
  566loPI   C3A 9049  18.088   1.021   7.981 -0.1431 -0.0488 -0.0475
  566loPI   C4A 9050  18.134   1.401   7.738  0.1358 -0.2752  0.2059
  566loPI   C5A 9051  18.020   1.644   7.480 -0.1209 -0.1464 -0.2290
  566loPI   C6A 9052  18.122   1.934   7.287 -0.1340 -0.1163 -0.1782
  566loPI   C1B 9053  18.227   1.232   8.470  0.3955  0.0241 -0.0567
  566loPI   C2B 9054  17.921   1.498   8.238 -0.0750 -0.1689  0.1170
  566loPI   C3B 9055  17.673   1.388   7.883  0.3081  0.0998  0.1757
  566loPI   C4B 9056  17.235   1.271   7.871 -0.0926 -0.0729  0.3223
  567loPI    C1 9057  11.378  16.994   9.382  0.1497 -0.1268 -0.1590
  567loPI    C2 9058  11.668  16.849   9.616 -0.0418 -0.2003  0.0373
  567loPI    C3 9059  11.285  16.792   9.715 -0.1238 -0.0294 -0.1737
  567loPI   PO4 9060  11.466  16.989   9.206 -0.0806  0.1001  0.2975
  567loPI   GL1 9061  11.548  17.272   8.844  0.1033  0.0219 -0.2126
  567loPI   GL2 9062  11.827  17.051   8.875 -0.3483 -0.0022  0.0032
  567loPI   C1A 9063  11.433  17.028   8.470 -0.0286 -0.3804  0.2896
  567loPI   C2A 9064  11.141  16.895   8.120  0.0601 -0.2219 -0.1213
  567loPI   C3A 9065  11.123  16.943   7.719  0.2675 -0.1364 -0.0539
  567loPI   C4A 9066  11.250  17.081   7.293 -0.1469  0.2805 -0.2599
  567loPI   C5A 9067  11.270  16.987   6.885  0.0789  0.2135  0.4236
  567loPI   C6A 9068  10.991  16.820   6.639  0.1108  0.0756  0.1832
  567loPI   C1B 9069  11.947  17.092   8.502  0.1376  0.0234 -0.0006
  567loPI   C2B 9070  12.010  17.185   8.062 -0.1273 -0.0150 -0.0422
  567loPI   C3B 9071  11.980  17.474   7.773 -0.2564 -0.1270 -0.1566
  567loPI   C4B 9072  12.129  17.710   7.428 -0.0667 -0.0835 -0.0194
  568loPI    C1 9073  18.536  10.375   8.868  0.0258 -0.1554  0.1396
  568loPI    C2 9074  18.137  10.362   8.892  0.0262 -0.0195  0.2293
  568loPI    C3 9075  18.359  10.109   9.108 -0.0095 -0.0308  0.2528
  568loPI   PO4 9076  18.551  10.558   8.668  0.1087 -0.0504 -0.1188
  568loPI   GL1 9077  18.434  10.507   8.289 -0.2251 -0.0442 -0.0082
  568loPI   GL2 9078  18.169  10.232   8.429 -0.2027  0.3935 -0.0155
  568loPI   C1A 9079  18.429  10.578   7.955  0.1401  0.2621  0.3594
  568loPI   C2A 9080  18.326  10.331   7.729  0.0211 -0.2101  0.1193
  568loPI   C3A 9081  18.393  10.143   7.301  0.3216  0.0095  0.2065
  568loPI   C4A 9082  18.122   9.960   6.975  0.1910  0.0794  0.1155
  568loPI   C5A 9083  17.727   9.745   6.814 -0.0628  0.2025  0.1647
  568loPI   C6A 9084  17.669   9.365   6.852 -0.0338  0.1366 -0.4783
  568loPI   C1B 9085  17.929  10.426   8.201  0.2960  0.0657 -0.2016
  568loPI   C2B 9086  17.490  10.641   8.135 -0.0743 -0.0082 -0.1760
  568loPI   C3B 9087  17.111  10.388   7.838  0.1733  0.3436  0.0101
  568loPI   C4B 9088  16.882  10.256   7.556  0.1090 -0.2726 -0.0840
  569loPI    C1 9089   1.045  13.582   9.021 -0.1639  0.0164  0.1336
  569loPI    C2 9090   1.178  13.287   8.785 -0.5419 -0.0571  0.0050
  569loPI    C3 9091   1.172  13.238   9.182  0.1868  0.1029  0.0516
  569loPI   PO4 9092   1.120  13.823   8.914 -0.3120 -0.2123  0.0015
  569loPI   GL1 9093   1.419  14.025   8.637  0.3558 -0.2449 -0.0464
  569loPI   GL2 9094   1.741  14.207   8.630  0.0775  0.0542 -0.1538
  569loPI   C1A 9095   1.331  14.199   8.289  0.2986  0.0011 -0.0125
  569loPI   C2A 9096   1.308  14.242   7.853 -0.0300  0.0295 -0.3039
  569loPI   C3A 9097   1.541  14.401   7.476 -0.0009  0.4722 -0.0825
  569loPI   C4A 9098   1.972  14.508   7.329  0.2613 -0.0357  0.0411
  569loPI   C5A 9099   2.457  14.478   7.259 -0.1487 -0.3725  0.1683
  569loPI   C6A 9100   2.596  14.115   7.067  0.1524 -0.0576  0.1453
  569loPI   C1B 9101   1.819  14.206   8.222 -0.1469 -0.2452 -0.0891
  569loPI   C2B 9102   1.839  14.216   7.878 -0.2202 -0.1867  0.1233
  569loPI   C3B 9103   1.942  13.960   7.463  0.2999 -0.2081 -0.0381
  569loPI   C4B 9104   2.193  13.773   7.141 -0.2810  0.0457  0.0330
  570loPI    C1 9105  12.905  18.569   9.202 -0.1778  0.0151 -0.1062
  570loPI    C2 9106  12.684  18.857   9.370 -0.2152 -0.0300 -0.0777
  570loPI    C3 9107  12.801  18.542   9.587  0.3020  0.2369  0.0465
  570loPI   PO4 9108  12.746  18.505   9.051  0.0083  0.3736 -0.0107
  570loPI   GL1 9109  12.805  18.295   8.692  0.2243  0.1332  0.1725
  570loPI   GL2 9110  12.873  18.034   8.832 -0.0752 -0.2067  0.1476
  570loPI   C1A 9111  12.919  18.017   8.302 -0.1158  0.0758  0.0524
  570loPI   C2A 9112  12.896  17.980   7.750  0.0576 -0.3379 -0.1773
  570loPI   C3A 9113  12.764  17.989   7.376 -0.2545 -0.2976  0.2039
  570loPI   C4A 9114  12.406  17.873   7.067 -0.3743 -0.3539 -0.3576
  570loPI   C5A 9115  11.935  17.832   6.972 -0.0231  0.2483 -0.0053
  570loPI   C6A 9116  11.488  17.875   7.150 -0.3121  0.1689  0.2414
  570loPI   C1B 9117  12.530  17.780   8.659 -0.2900 -0.1840  0.2591
  570loPI   C2B 9118  12.490  17.807   8.193 -0.1027 -0.1241  0.0544
  570loPI   C3B 9119  12.533  17.615   7.808 -0.2006 -0.1978 -0.2942
  570loPI   C4B 9120  12.593  17.496   7.333  0.0067  0.0252 -0.2102
  571loPI    C1 9121   4.586   3.402   9.800 -0.1062 -0.1013  0.1824
  571loPI    C2 9122   4.689   3.623  10.117 -0.3116  0.1182  0.0990
  571loPI    C3 9123   4.692   3.224  10.142 -0.2210  0.1326  0.3423
  571loPI   PO4 9124   4.782   3.412   9.486  0.0291 -0.0363 -0.0661
  571loPI   GL1 9125   4.826   3.785   9.216  0.0236 -0.0929 -0.3596
  571loPI   GL2 9126   4.984   4.067   9.320 -0.1517  0.0479 -0.0318
  571loPI   C1A 9127   4.584   3.715   8.821  0.0003 -0.0751 -0.1506
  571loPI   C2A 9128   4.636   3.948   8.336  0.0824  0.2457 -0.1138
  571loPI   C3A 9129   4.437   3.865   7.912 -0.1912 -0.1823 -0.0880
  571loPI   C4A 9130   4.744   3.663   7.552  0.0929 -0.2538  0.0907
  571loPI   C5A 9131   4.502   3.599   7.180  0.0841  0.1004 -0.0155
  571loPI   C6A 9132   4.240   3.706   6.762  0.1486 -0.2535 -0.0874
  571loPI   C1B 9133   4.541   4.162   8.977  0.4925 -0.1807  0.1913
  571loPI   C2B 9134   4.309   4.290   8.623  0.2856  0.0932  0.1801
  571loPI   C3B 9135   4.204   4.378   8.139 -0.2676  0.0191  0.0448
  571loPI   C4B 9136   4.210   4.295   7.577  0.0554 -0.1339  0.2916
  572loPI    C1 9137  17.359   5.941   9.266  0.1373 -0.0192  0.1003
  572loPI    C2 9138  17.376   5.592   9.461  0.1690  0.1961  0.4934
  572loPI    C3 9139  17.090   5.857   9.550 -0.0499  0.1464 -0.0255
  572loPI   PO4 9140  17.375   5.884   9.037 -0.1609 -0.2008 -0.2741
  572loPI   GL1 9141  17.323   5.766   8.548  0.3637  0.0116  0.4050
  572loPI   GL2 9142  16.980   5.939   8.743 -0.2005 -0.0959  0.0402
  572loPI   C1A 9143  17.450   5.862   8.235 -0.0966 -0.0858 -0.0890
  572loPI   C2A 9144  17.392   6.191   7.914  0.4121  0.1572 -0.1928
  572loPI   C3A 9145  17.414   6.030   7.540 -0.0511 -0.1337 -0.0171
  572loPI   C4A 9146  17.277   5.952   7.122  0.2715  0.2387 -0.0527
  572loPI   C5A 9147  16.968   5.676   6.891 -0.0657 -0.1027 -0.0012
  572loPI   C6A 9148  16.502   5.747   7.016 -0.1965 -0.0827 -0.0298
  572loPI   C1B 9149  16.971   5.979   8.264  0.0448  0.1712  0.0140
  572loPI   C2B 9150  16.972   5.832   7.884 -0.5606 -0.1506  0.1585
  572loPI   C3B 9151  16.957   6.186   7.578 -0.3495 -0.0166  0.0599
  572loPI   C4B 9152  17.250   6.408   7.263 -0.2102  0.2145 -0.1168
  573loPI    C1 9153   5.601  10.577  10.206 -0.0091  0.1917  0.1104
  573loPI    C2 9154   5.458  10.257  10.399  0.2188  0.1679  0.2434
  573loPI    C3 9155   5.555  10.587  10.603 -0.0394  0.3337  0.1037
  573loPI   PO4 9156   5.390  10.434   9.863  0.1324 -0.1115 -0.0681
  573loPI   GL1 9157   5.494  10.363   9.397 -0.1201 -0.0705 -0.1499
  573loPI   GL2 9158   5.241  10.222   9.360 -0.3438 -0.1136  0.1065
  573loPI   C1A 9159   5.427  10.430   8.930  0.0057 -0.0995  0.0188
  573loPI   C2A 9160   5.319  10.245   8.662 -0.2704 -0.1057 -0.1462
  573loPI   C3A 9161   5.567  10.190   8.257 -0.0546 -0.0515 -0.3254
  573loPI   C4A 9162   5.603  10.161   7.768  0.1271 -0.1240 -0.2710
  573loPI   C5A 9163   5.382  10.075   7.383  0.0614  0.1996 -0.2508
  573loPI   C6A 9164   5.272  10.292   7.020  0.0240 -0.0799  0.0992
  573loPI   C1B 9165   5.250   9.911   9.024  0.3316  0.2424 -0.3840
  573loPI   C2B 9166   5.290   9.756   8.632  0.3778  0.1279 -0.2697
  573loPI   C3B 9167   5.376   9.695   8.250  0.0110  0.3082  0.0455
  573loPI   C4B 9168   5.699   9.706   8.048  0.0577  0.2702  0.2036
  574loPI    C1 9169  15.287   7.314   9.154 -0.3080 -0.0330 -0.2058
  574loPI    C2 9170  14.990   7.391   9.410 -0.1330  0.2331 -0.0780
  574loPI    C3 9171  14.991   7.562   9.048 -0.1776  0.1661 -0.1100
  574loPI   PO4 9172  15.309   7.040   9.080 -0.2275 -0.1760 -0.0283
  574loPI   GL1 9173  15.083   6.857   8.696  0.1077 -0.1436  0.1676
  574loPI   GL2 9174  15.363   6.906   8.601 -0.0540 -0.3001  0.0906
  574loPI   C1A 9175  15.064   6.643   8.301 -0.6020  0.2380  0.0210
  574loPI   C2A 9176  15.042   6.373   7.977  0.2600 -0.0429  0.1226
  574loPI   C3A 9177  15.345   6.098   7.698 -0.1815 -0.3780  0.2380
  574loPI   C4A 9178  15.645   5.946   7.365  0.1537  0.1414 -0.2857
  574loPI   C5A 9179  15.582   5.989   6.953  0.0086  0.1332  0.3091
  574loPI   C6A 9180  15.423   6.221   6.601 -0.0953  0.0422  0.3193
  574loPI   C1B 9181  15.202   7.078   8.218 -0.3949  0.0776 -0.0876
  574loPI   C2B 9182  15.156   6.950   7.855  0.2779  0.1782 -0.1280
  574loPI   C3B 9183  15.190   7.011   7.338  0.2766  0.2024 -0.2347
  574loPI   C4B 9184  15.546   7.191   7.120  0.0164  0.0029 -0.0380
  575loPI    C1 9185  10.578  14.896   9.820  0.0906 -0.1933  0.2032
  575loPI    C2 9186  10.923  15.053   9.950 -0.0652  0.2536  0.0963
  575loPI    C3 9187  10.576  15.224  10.050 -0.2360  0.0470 -0.1307
  575loPI   PO4 9188  10.671  14.809   9.561 -0.3966 -0.0416  0.0431
  575loPI   GL1 9189  10.321  14.687   9.286 -0.0211 -0.0030  0.1253
  575loPI   GL2 9190  10.626  14.971   9.074  0.1650  0.2194  0.0495
  575loPI   C1A 9191  10.230  14.793   8.799 -0.1182 -0.3785 -0.0420
  575loPI   C2A 9192  10.321  14.727   8.321 -0.2426 -0.0025  0.0219
  575loPI   C3A 9193  10.414  14.674   7.941 -0.0496 -0.0742  0.2959
  575loPI   C4A 9194  10.659  14.625   7.513 -0.1181  0.1367  0.0721
  575loPI   C5A 9195  10.971  14.598   7.102 -0.2680 -0.0415  0.0469
  575loPI   C6A 9196  11.347  14.857   6.848  0.0484 -0.0533 -0.2687
  575loPI   C1B 9197  10.711  14.669   8.736 -0.0696 -0.4056  0.2828
  575loPI   C2B 9198  10.759  14.499   8.296 -0.0448  0.1507  0.0843
  575loPI   C3B 9199  10.795  14.234   7.913 -0.1437 -0.2352  0.2211
  575loPI   C4B 9200  10.909  13.858   7.644 -0.2140 -0.2069 -0.4404
  576loPI    C1 9201   5.691   5.880   9.734 -0.0271  0.1202 -0.0995
  576loPI    C2 9202   6.039   5.744   9.876  0.0210  0.0466 -0.2848
  576loPI    C3 9203   5.797   5.958  10.112  0.1694  0.0583 -0.1407
  576loPI   PO4 9204   5.746   5.956   9.544  0.0208 -0.5591  0.1026
  576loPI   GL1 9205   5.876   5.679   9.162  0.0868  0.2574  0.1265
  576loPI   GL2 9206   5.959   5.906   8.969 -0.2601 -0.1089  0.1422
  576loPI   C1A 9207   5.788   5.523   8.760 -0.1500 -0.1012  0.2289
  576loPI   C2A 9208   5.791   5.247   8.290  0.4302  0.1164  0.2153
  576loPI   C3A 9209   5.750   4.904   7.957 -0.2933 -0.0337  0.1004
  576loPI   C4A 9210   5.642   4.529   7.686 -0.2094  0.0797 -0.0295
  576loPI   C5A 9211   5.694   4.315   7.242  0.0191 -0.0172  0.3110
  576loPI   C6A 9212   5.788   4.468   6.797  0.1078 -0.1100  0.1463
  576loPI   C1B 9213   5.960   5.969   8.588 -0.2119  0.1618  0.0561
  576loPI   C2B 9214   5.828   5.852   8.145  0.2255  0.0289  0.3624
  576loPI   C3B 9215   5.603   5.559   7.864  0.3596 -0.0419  0.4921
  576loPI   C4B 9216   5.466   5.510   7.445 -0.0854 -0.2152 -0.1346
  577loPI    C1 9217  13.401  18.771   9.253 -0.1355  0.0500 -0.0345
  577loPI    C2 9218  13.561  18.995   9.543  0.1034  0.0141 -0.1360
  577loPI    C3 9219  13.166  18.933   9.533  0.0660  0.2108  0.0441
  577loPI   PO4 9220  13.499  18.798   9.063 -0.1278 -0.3418  0.0174
  577loPI   GL1 9221  13.453  18.460   8.685 -0.1295 -0.0447  0.0472
  577loPI   GL2 9222  13.151  18.594   8.782 -0.2227 -0.1211 -0.1609
  577loPI   C1A 9223  13.374  18.247   8.246 -0.0170 -0.1177 -0.0665
  577loPI   C2A 9224  13.345  17.869   7.939 -0.2364  0.2229  0.1780
  577loPI   C3A 9225  13.289  17.634   7.605 -0.2391 -0.3047 -0.4685
  577loPI   C4A 9226  13.448  17.619   7.275 -0.1055 -0.0556  0.0496
  577loPI   C5A 9227  13.770  17.731   7.132 -0.3432 -0.0268  0.1969
  577loPI   C6A 9228  14.097  17.436   6.854 -0.3507 -0.0619  0.0819
  577loPI   C1B 9229  12.990  18.544   8.379 -0.1339 -0.1897  0.0108
  577loPI   C2B 9230  13.009  18.466   7.975  0.4282 -0.1671  0.1527
  577loPI   C3B 9231  13.091  18.588   7.488  0.0889 -0.0206  0.1297
  577loPI   C4B 9232  13.100  18.487   7.103  0.2987  0.1719  0.0938
  578loPI    C1 9233  16.390   1.018   9.118 -0.1591  0.0134 -0.2094
  578loPI    C2 9234  16.285   0.930   9.494  0.0940  0.4712 -0.0238
  578loPI    C3 9235  16.428   0.643   9.254 -0.1604  0.1550  0.1941
  578loPI   PO4 9236  16.264   1.224   9.041  0.1140  0.1382 -0.1649
  578loPI   GL1 9237  16.067   1.272   8.722 -0.1325  0.0736 -0.0326
  578loPI   GL2 9238  15.928   1.420   8.667  0.1306  0.3269 -0.0482
  578loPI   C1A 9239  16.103   0.941   8.361  0.3200 -0.1205  0.4304
  578loPI   C2A 9240  15.929   0.751   8.024 -0.3370  0.0057 -0.2080
  578loPI   C3A 9241  15.634   0.817   7.571 -0.1324  0.0586 -0.4048
  578loPI   C4A 9242  15.427   1.074   7.267 -0.0482  0.2257 -0.3761
  578loPI   C5A 9243  15.196   1.319   6.995  0.0555 -0.2478  0.1813
  578loPI   C6A 9244  15.134   1.324   6.561  0.0660  0.2168 -0.2993
  578loPI   C1B 9245  15.853   1.767   8.290 -0.1743  0.1124 -0.1842
  578loPI   C2B 9246  15.978   1.696   7.817 -0.0074 -0.1190 -0.2031
  578loPI   C3B 9247  16.074   1.967   7.361  0.0457 -0.1721  0.0307
  578loPI   C4B 9248  16.266   2.073   7.072  0.1188  0.1471  0.1107
  579loPI    C1 9249   6.403  11.720   9.977 -0.1011  0.0361 -0.1157
  579loPI    C2 9250   6.553  11.658  10.342  0.1544  0.0457 -0.2166
  579loPI    C3 9251   6.312  11.970  10.275  0.0258 -0.0127 -0.0351
  579loPI   PO4 9252   6.606  11.618   9.799 -0.2871 -0.1881 -0.1188
  579loPI   GL1 9253   6.654  11.407   9.402 -0.0535 -0.2511 -0.1871
  579loPI   GL2 9254   6.607  11.117   9.300 -0.2833  0.0762  0.0239
  579loPI   C1A 9255   6.882  11.595   9.097  0.3385 -0.1264 -0.0707
  579loPI   C2A 9256   7.186  11.765   8.907 -0.3040 -0.0403 -0.0268
  579loPI   C3A 9257   7.545  11.893   8.569  0.2025  0.0357 -0.0741
  579loPI   C4A 9258   7.774  11.747   8.202 -0.0194  0.2405 -0.0038
  579loPI   C5A 9259   7.538  11.799   7.792  0.0928 -0.0229  0.0614
  579loPI   C6A 9260   7.388  12.114   7.559  0.0824  0.0181 -0.2220
  579loPI   C1B 9261   6.372  11.417   8.972  0.0943  0.0700 -0.0788
  579loPI   C2B 9262   6.223  11.777   8.863 -0.0243 -0.0781 -0.2600
  579loPI   C3B 9263   6.289  12.098   8.512  0.1165  0.3046  0.0615
  579loPI   C4B 9264   6.311  12.257   8.144 -0.0671  0.1580 -0.2513
  580loPI    C1 9265   2.965   3.736   9.765 -0.0177  0.0136 -0.0949
  580loPI    C2 9266   2.975   3.740  10.165 -0.2006 -0.0241 -0.0890
  580loPI    C3 9267   3.122   3.427   9.964  0.0731  0.0824 -0.0591
  580loPI   PO4 9268   2.721   3.765   9.653 -0.0270  0.2460  0.0052
  580loPI   GL1 9269   2.561   3.506   9.243 -0.1255 -0.2739  0.0117
  580loPI   GL2 9270   2.962   3.464   9.308 -0.0322 -0.0075 -0.0968
  580loPI   C1A 9271   2.578   3.239   8.950 -0.1875 -0.1087  0.0719
  580loPI   C2A 9272   2.473   3.203   8.543 -0.0625  0.2821  0.0875
  580loPI   C3A 9273   2.552   3.134   8.098 -0.0335 -0.0008 -0.0566
  580loPI   C4A 9274   2.828   3.186   7.752  0.2634  0.3153 -0.0111
  580loPI   C5A 9275   3.095   3.007   7.380 -0.1323  0.0100  0.0881
  580loPI   C6A 9276   3.076   2.995   6.930  0.3547 -0.1125  0.0427
  580loPI   C1B 9277   3.073   3.510   8.898  0.0394 -0.0231  0.0144
  580loPI   C2B 9278   2.918   3.394   8.506  0.0900  0.1860  0.1246
  580loPI   C3B 9279   2.769   3.547   8.179 -0.2314  0.1828  0.2774
  580loPI   C4B 9280   2.685   3.652   7.696 -0.0395  0.2662  0.3136
  581loPI    C1 9281   0.109   8.090   9.429  0.1079 -0.1876 -0.0646
  581loPI    C2 9282  -0.062   7.809   9.657  0.1515 -0.0385  0.1540
  581loPI    C3 9283   0.318   7.767   9.540  0.1268 -0.1190  0.1021
  581loPI   PO4 9284  -0.080   8.182   9.239  0.1656  0.0858 -0.0753
  581loPI   GL1 9285  -0.219   8.078   8.879 -0.0061 -0.0664  0.2364
  581loPI   GL2 9286   0.110   8.111   8.710  0.0896 -0.1797  0.0990
  581loPI   C1A 9287  -0.313   8.217   8.457 -0.1595  0.0944  0.3883
  581loPI   C2A 9288  -0.445   7.923   8.058 -0.0751  0.0233  0.0066
  581loPI   C3A 9289  -0.472   7.892   7.625 -0.1007  0.0411 -0.1679
  581loPI   C4A 9290  -0.265   7.660   7.288 -0.1961 -0.0099 -0.0139
  581loPI   C5A 9291  -0.088   7.425   6.986  0.2668 -0.0628  0.1201
  581loPI   C6A 9292   0.360   7.175   6.932 -0.1720  0.0889  0.1547
  581loPI   C1B 9293   0.157   7.893   8.279  0.2599  0.0582  0.2873
  581loPI   C2B 9294   0.383   7.638   7.943 -0.0404  0.1102 -0.0942
  581loPI   C3B 9295   0.568   7.628   7.518 -0.0869  0.3292 -0.2225
  581loPI   C4B 9296   0.730   7.374   7.209  0.2606 -0.1910 -0.0668
  582loPI    C1 9297  10.550  10.310   9.901  0.1229 -0.2420 -0.0295
  582loPI    C2 9298  10.471  10.067  10.209 -0.0701  0.0476  0.1555
  582loPI    C3 9299  10.250  10.395  10.152  0.1070  0.1161 -0.1639
  582loPI   PO4 9300  10.866  10.251   9.750 -0.0006  0.0755 -0.0387
  582loPI   GL1 9301  11.016  10.021   9.437  0.2666  0.2090  0.0103
  582loPI   GL2 9302  11.099   9.719   9.375 -0.1434 -0.0369  0.2399
  582loPI   C1A 9303  10.896  10.313   9.108  0.0439  0.2690  0.0765
  582loPI   C2A 9304  10.583  10.245   8.826  0.1611  0.1564 -0.1628
  582loPI   C3A 9305  10.435  10.229   8.431 -0.0703 -0.0166 -0.1656
  582loPI   C4A 9306  10.612  10.208   8.009  0.1926 -0.1056 -0.0934
  582loPI   C5A 9307  10.685  10.052   7.562 -0.0212 -0.1409 -0.2757
  582loPI   C6A 9308  10.881   9.990   7.179  0.1079  0.0967 -0.0351
  582loPI   C1B 9309  11.030   9.728   8.961 -0.2679  0.0308  0.0626
  582loPI   C2B 9310  11.098   9.521   8.489 -0.0818 -0.0761 -0.0566
  582loPI   C3B 9311  11.458   9.235   8.300 -0.0722 -0.2338 -0.1815
  582loPI   C4B 9312  11.566   9.026   7.905  0.0317 -0.0925  0.0816
  583loPI    C1 9313  12.213  19.138   9.478 -0.2084  0.0222  0.0452
  583loPI    C2 9314  12.015  19.304   9.783 -0.1827 -0.0959  0.1266
  583loPI    C3 9315  12.403  19.384   9.731 -0.1060 -0.3306  0.3187
  583loPI   PO4 9316  11.982  19.209   9.268 -0.2611  0.2583 -0.3440
  583loPI   GL1 9317  12.120  19.381   8.890  0.1034  0.1059  0.0214
  583loPI   GL2 9318  11.887  19.114   8.776  0.2014  0.3458  0.3497
  583loPI   C1A 9319  12.190  19.631   8.520  0.1670 -0.0072 -0.3519
  583loPI   C2A 9320  12.332  19.645   8.099  0.0636 -0.2739 -0.0852
  583loPI   C3A 9321  12.371  19.630   7.737  0.0156 -0.0568  0.3522
  583loPI   C4A 9322  12.208  19.664   7.284  0.3305 -0.0408  0.1286
  583loPI   C5A 9323  12.245  19.664   6.877  0.0221 -0.2393  0.0591
  583loPI   C6A 9324  12.090  19.841   6.573  0.1023 -0.2595 -0.1353
  583loPI   C1B 9325  11.793  19.322   8.436  0.2550  0.1942  0.0589
  583loPI   C2B 9326  11.682  19.365   8.006 -0.0762 -0.0853 -0.0553
  583loPI   C3B 9327  11.929  19.407   7.602  0.0212  0.2542  0.0841
  583loPI   C4B 9328  12.338  19.131   7.484 -0.5024  0.2897 -0.2699
  584loPI    C1 9329  19.006   8.736   9.491  0.1477  0.0046 -0.1067
  584loPI    C2 9330  19.269   8.545   9.724  0.0185  0.0798  0.1041
  584loPI    C3 9331  19.065   8.858   9.867  0.0671  0.2393 -0.1683
  584loPI   PO4 9332  19.010   8.565   9.314  0.0466 -0.0694  0.1800
  584loPI   GL1 9333  18.670   8.486   8.977  0.0987 -0.0788 -0.1047
  584loPI   GL2 9334  18.766   8.651   8.680 -0.1785 -0.1518 -0.0347
  584loPI   C1A 9335  18.502   8.169   8.658 -0.0866 -0.0418 -0.0762
  584loPI   C2A 9336  18.543   8.171   8.243 -0.1630  0.0590  0.3074
  584loPI   C3A 9337  18.479   8.276   7.825  0.1369 -0.2704  0.1521
  584loPI   C4A 9338  18.613   8.225   7.422  0.0276  0.0085 -0.0149
  584loPI   C5A 9339  18.519   8.083   7.066 -0.2296 -0.1073 -0.3123
  584loPI   C6A 9340  18.362   8.050   6.694 -0.3293 -0.3172  0.0946
  584loPI   C1B 9341  18.770   8.743   8.216 -0.0805 -0.1409 -0.2076
  584loPI   C2B 9342  18.757   8.646   7.660 -0.3068 -0.0898  0.1267
  584loPI   C3B 9343  18.524   8.636   7.194 -0.0702 -0.0264  0.0501
  584loPI   C4B 9344  18.242   8.590   6.888  0.3183  0.1111 -0.3371
  585loPI    C1 9345  12.978   1.650   9.250 -0.2023 -0.0259 -0.2202
  585loPI    C2 9346  12.625   1.556   9.414 -0.0040 -0.3113  0.0564
  585loPI    C3 9347  12.962   1.508   9.624  0.2056 -0.0767 -0.2174
  585loPI   PO4 9348  12.987   1.663   8.993  0.0386  0.0485  0.5824
  585loPI   GL1 9349  12.908   1.798   8.396  0.0225  0.3627 -0.1606
  585loPI   GL2 9350  12.697   1.846   8.632 -0.1241 -0.2249 -0.2983
  585loPI   C1A 9351  12.895   1.960   8.017  0.0890 -0.2071 -0.3581
  585loPI   C2A 9352  12.781   2.054   7.568  0.1488  0.1331 -0.0547
  585loPI   C3A 9353  12.976   2.410   7.318  0.0614  0.2500 -0.0876
  585loPI   C4A 9354  12.877   2.740   6.996  0.0557 -0.1238  0.0269
  585loPI   C5A 9355  12.999   3.163   6.848  0.1014 -0.2728 -0.1045
  585loPI   C6A 9356  13.111   3.540   6.659 -0.4331  0.1255  0.1836
  585loPI   C1B 9357  12.408   1.946   8.427  0.0164  0.1394 -0.2185
  585loPI   C2B 9358  12.298   1.978   7.995 -0.1201  0.1326 -0.2083
  585loPI   C3B 9359  12.296   1.886   7.533 -0.2314  0.0982 -0.0989
  585loPI   C4B 9360  12.146   1.873   7.122  0.2040 -0.2987  0.1985
  586loPI    C1 9361  15.701   1.281   9.591 -0.1237 -0.2195  0.0147
  586loPI    C2 9362  15.563   1.168   9.949  0.1336  0.0484  0.2028
  586loPI    C3 9363  15.930   1.325   9.916 -0.0168  0.3439 -0.1262
  586loPI   PO4 9364  15.751   1.069   9.463 -0.2527 -0.0173 -0.0877
  586loPI   GL1 9365  15.809   1.009   9.065 -0.0144 -0.0540  0.0980
  586loPI   GL2 9366  15.925   0.701   8.895  0.1051 -0.0504  0.1439
  586loPI   C1A 9367  15.623   0.978   8.648  0.2680 -0.3336  0.4194
  586loPI   C2A 9368  15.458   0.928   8.282 -0.2465 -0.2893  0.0357
  586loPI   C3A 9369  15.320   1.072   7.898  0.0082  0.0272 -0.1195
  586loPI   C4A 9370  15.074   1.322   7.548 -0.2467  0.0851 -0.1302
  586loPI   C5A 9371  14.697   1.309   7.229 -0.0908 -0.1738 -0.0832
  586loPI   C6A 9372  14.440   0.889   7.150 -0.1175 -0.0801 -0.0287
  586loPI   C1B 9373  16.242   0.648   8.727  0.2436 -0.0057  0.0080
  586loPI   C2B 9374  16.396   0.544   8.273 -0.1631  0.2041  0.1268
  586loPI   C3B 9375  16.515   0.682   7.860  0.1099  0.0249 -0.2684
  586loPI   C4B 9376  16.817   0.518   7.638 -0.1108  0.3366  0.2410
  587loPI    C1 9377  15.423  19.456   9.146  0.2489 -0.2498  0.0652
  587loPI    C2 9378  15.303  19.647   9.476  0.0409  0.1015 -0.2063
  587loPI    C3 9379  15.058  19.389   9.293  0.1654 -0.1122 -0.0770
  587loPI   PO4 9380  15.645  19.679   9.057 -0.0823 -0.0812  0.0020
  587loPI   GL1 9381  15.579  19.744   8.662  0.0383 -0.1405  0.2324
  587loPI   GL2 9382  15.446  19.526   8.559 -0.0302  0.3270 -0.0592
  587loPI   C1A 9383  15.491  19.942   8.284 -0.2396  0.1892 -0.0866
  587loPI   C2A 9384  15.579  19.884   7.827  0.1409 -0.1305 -0.0625
  587loPI   C3A 9385  15.897  19.927   7.633 -0.0387  0.2405 -0.3252
  587loPI   C4A 9386  15.903  20.336   7.533 -0.0435 -0.2490  0.1432
  587loPI   C5A 9387  16.232  20.643   7.361 -0.2976  0.1219  0.0015
  587loPI   C6A 9388  16.474  21.018   7.349 -0.2784 -0.0933 -0.0008
  587loPI   C1B 9389  15.385  19.503   8.039  0.2204  0.0111 -0.3119
  587loPI   C2B 9390  15.335  19.402   7.662  0.0405  0.0109  0.2381
  587loPI   C3B 9391  15.463  19.642   7.340 -0.0232  0.1384 -0.0206
  587loPI   C4B 9392  15.718  19.934   7.100 -0.4834  0.0642 -0.0405
  588loPI    C1 9393   8.160   3.820   9.696 -0.2921 -0.0236 -0.1798
  588loPI    C2 9394   7.878   4.070   9.561 -0.2435  0.1679  0.0662
  588loPI    C3 9395   7.801   3.830   9.872 -0.1642  0.1560  0.0769
  588loPI   PO4 9396   8.220   3.658   9.464 -0.1551 -0.0912  0.2100
  588loPI   GL1 9397   8.125   3.875   9.090 -0.2277  0.3631  0.2455
  588loPI   GL2 9398   7.841   3.997   9.077 -0.1697  0.0288  0.0248
  588loPI   C1A 9399   8.008   3.584   8.812 -0.2105 -0.2990 -0.1453
  588loPI   C2A 9400   7.804   3.619   8.337 -0.0792 -0.1965  0.0607
  588loPI   C3A 9401   7.817   3.325   8.001  0.0114  0.1978  0.3859
  588loPI   C4A 9402   7.838   2.983   7.867 -0.0689 -0.0865 -0.1874
  588loPI   C5A 9403   7.922   2.738   7.631  0.2420  0.0253 -0.1494
  588loPI   C6A 9404   8.178   2.630   7.187  0.0653 -0.3359 -0.1223
  588loPI   C1B 9405   8.072   4.105   8.700 -0.0130 -0.0871  0.1164
  588loPI   C2B 9406   8.217   4.108   8.286 -0.4867  0.0693 -0.3698
  588loPI   C3B 9407   8.412   4.082   7.829  0.2872 -0.0522 -0.4167
  588loPI   C4B 9408   8.298   4.154   7.463  0.1480 -0.2003  0.0779
  589loPI    C1 9409   0.589  14.103   9.394  0.1365  0.0957  0.1197
  589loPI    C2 9410   0.711  14.043   9.770 -0.0135  0.1230  0.1736
  589loPI    C3 9411   0.434  14.321   9.691  0.0481  0.1466  0.0370
  589loPI   PO4 9412   0.808  14.153   9.244  0.0420 -0.2876  0.2954
  589loPI   GL1 9413   0.903  14.287   8.831 -0.2700  0.0462  0.2074
  589loPI   GL2 9414   0.779  14.122   8.508 -0.3197  0.1266 -0.2196
  589loPI   C1A 9415   1.030  14.590   8.508  0.1699  0.2519  0.1170
  589loPI   C2A 9416   0.959  14.600   8.008  0.3101 -0.5870  0.2124
  589loPI   C3A 9417   1.061  14.847   7.640 -0.0940  0.1013 -0.2791
  589loPI   C4A 9418   1.372  15.130   7.444  0.2502 -0.3036 -0.0768
  589loPI   C5A 9419   1.767  15.278   7.219 -0.0822 -0.0362 -0.1707
  589loPI   C6A 9420   1.890  15.591   6.942  0.0164 -0.3104 -0.0464
  589loPI   C1B 9421   0.463  13.961   8.213 -0.0834  0.1447  0.1278
  589loPI   C2B 9422   0.121  13.702   7.862  0.1296  0.0268 -0.0909
  589loPI   C3B 9423   0.159  13.804   7.417 -0.2596 -0.0561  0.0983
  589loPI   C4B 9424  -0.092  14.077   7.094 -0.3836  0.0997  0.0376
  590loPI    C1 9425  17.912  15.560   9.285  0.0344 -0.3926 -0.0748
  590loPI    C2 9426  17.733  15.682   9.622 -0.3170 -0.3947 -0.2566
  590loPI    C3 9427  17.958  15.351   9.623 -0.2258 -0.3340 -0.0012
  590loPI   PO4 9428  17.984  15.738   9.160  0.3535 -0.1236  0.0271
  590loPI   GL1 9429  18.112  15.904   8.749  0.2095 -0.1492 -0.0938
  590loPI   GL2 9430  18.307  16.167   8.737 -0.0572  0.0242  0.1479
  590loPI   C1A 9431  17.769  15.694   8.391 -0.0582 -0.0394  0.1878
  590loPI   C2A 9432  17.558  15.713   7.993 -0.2016 -0.0480 -0.3056
  590loPI   C3A 9433  17.243  15.627   7.737  0.1208  0.1150  0.5075
  590loPI   C4A 9434  17.090  15.767   7.303  0.0777 -0.0058  0.3074
  590loPI   C5A 9435  16.770  15.612   7.037 -0.2443  0.1058  0.2323
  590loPI   C6A 9436  16.525  15.377   6.797  0.2029 -0.0525  0.3396
  590loPI   C1B 9437  18.562  16.127   8.358 -0.2748  0.0530  0.1819
  590loPI   C2B 9438  18.582  16.008   7.909  0.3473  0.1964 -0.1863
  590loPI   C3B 9439  18.432  15.885   7.501  0.0708 -0.0825  0.0104
  590loPI   C4B 9440  18.442  15.922   7.068  0.1457  0.1301 -0.2009
  591loPI    C1 9441  13.560   5.399   9.515  0.0679  0.0701 -0.0971
  591loPI    C2 9442  13.340   5.441   9.184 -0.3049 -0.0215  0.1329
  591loPI    C3 9443  13.161   5.373   9.535  0.1023 -0.2551  0.3019
  591loPI   PO4 9444  13.844   5.319   9.332 -0.1184  0.0601  0.2322
  591loPI   GL1 9445  13.811   5.345   9.029  0.3613  0.0927  0.0453
  591loPI   GL2 9446  13.561   5.267   8.765 -0.2858  0.2223  0.1209
  591loPI   C1A 9447  14.036   5.110   8.607  0.2271  0.3074  0.1410
  591loPI   C2A 9448  14.204   4.968   8.136  0.0853 -0.2714  0.2008
  591loPI   C3A 9449  14.123   5.162   7.811  0.1751 -0.0034 -0.0186
  591loPI   C4A 9450  14.108   5.243   7.358  0.0865 -0.0744  0.1159
  591loPI   C5A 9451  14.224   5.576   6.988 -0.0611  0.0767  0.3009
  591loPI   C6A 9452  14.272   6.017   7.006 -0.0325 -0.1256 -0.0281
  591loPI   C1B 9453  13.457   4.849   8.506  0.2233  0.1146 -0.3227
  591loPI   C2B 9454  13.134   4.776   8.230 -0.0313 -0.0194  0.1447
  591loPI   C3B 9455  13.259   4.962   7.868  0.3188 -0.0396 -0.0301
  591loPI   C4B 9456  13.398   5.377   7.690 -0.1121 -0.2588  0.1888
  592loPI    C1 9457  16.746  16.424   9.399 -0.2574 -0.1638  0.0047
  592loPI    C2 9458  16.643  16.775   9.560  0.0880  0.0409 -0.2072
  592loPI    C3 9459  16.749  16.471   9.796 -0.5102 -0.0259 -0.0077
  592loPI   PO4 9460  16.951  16.524   9.207  0.1100 -0.1410 -0.1401
  592loPI   GL1 9461  16.937  16.627   8.810 -0.1610  0.1619 -0.0526
  592loPI   GL2 9462  17.091  16.741   8.620 -0.0023  0.1029 -0.4473
  592loPI   C1A 9463  16.748  16.462   8.291  0.0124  0.3576 -0.1790
  592loPI   C2A 9464  16.809  16.509   7.882 -0.1039  0.1568  0.0527
  592loPI   C3A 9465  16.861  16.611   7.590  0.0098  0.1367  0.1162
  592loPI   C4A 9466  16.844  16.544   7.155  0.0052 -0.2057 -0.0015
  592loPI   C5A 9467  16.864  16.175   6.927 -0.2952  0.0116 -0.1764
  592loPI   C6A 9468  16.639  15.863   6.544 -0.0262 -0.1020 -0.1863
  592loPI   C1B 9469  17.281  16.678   8.173 -0.2005  0.0818 -0.0084
  592loPI   C2B 9470  17.372  16.585   7.851 -0.0665  0.0771 -0.0803
  592loPI   C3B 9471  17.644  16.391   7.463  0.1089 -0.0036 -0.0519
  592loPI   C4B 9472  17.986  16.223   7.102 -0.0499  0.1636  0.3349
  593loPI    C1 9473  10.090  13.668   9.844 -0.1097 -0.0403  0.2651
  593loPI    C2 9474  10.410  13.893   9.926 -0.0245 -0.0332 -0.0709
  593loPI    C3 9475  10.049  14.001  10.060  0.0483  0.1886 -0.0496
  593loPI   PO4 9476  10.147  13.705   9.515  0.3385 -0.1143  0.0115
  593loPI   GL1 9477  10.338  13.945   9.134  0.2631  0.1375 -0.2048
  593loPI   GL2 9478  10.629  14.179   9.182  0.2907 -0.2299  0.0830
  593loPI   C1A 9479  10.269  13.805   8.642 -0.0888  0.2938  0.0340
  593loPI   C2A 9480  10.085  13.711   8.269  0.0733 -0.3739 -0.0216
  593loPI   C3A 9481  10.029  13.759   7.887  0.1985 -0.0469  0.1132
  593loPI   C4A 9482   9.975  13.854   7.477 -0.1290  0.1727 -0.0555
  593loPI   C5A 9483  10.243  13.950   7.101  0.2347  0.3405 -0.3030
  593loPI   C6A 9484  10.523  13.709   6.879  0.1100  0.3483 -0.3463
  593loPI   C1B 9485  10.692  14.106   8.754 -0.1083 -0.0216 -0.1300
  593loPI   C2B 9486  10.582  14.038   8.365  0.1419 -0.0104 -0.0848
  593loPI   C3B 9487  10.485  13.808   7.937 -0.3309 -0.3240  0.3139
  593loPI   C4B 9488  10.460  13.740   7.561  0.3090  0.0783 -0.1595
  594loPI    C1 9489   7.057   3.682   9.629 -0.1372 -0.1652 -0.0528
  594loPI    C2 9490   7.018   3.324   9.803  0.1480 -0.2481 -0.1532
  594loPI    C3 9491   7.349   3.540   9.862 -0.0017 -0.0206 -0.1323
  594loPI   PO4 9492   7.002   3.595   9.382 -0.0269 -0.0239 -0.1196
  594loPI   GL1 9493   7.217   3.407   9.129 -0.1639 -0.2893 -0.1715
  594loPI   GL2 9494   6.957   3.172   9.146 -0.1285  0.0646 -0.1944
  594loPI   C1A 9495   7.075   3.607   8.670  0.0163  0.0813  0.0661
  594loPI   C2A 9496   6.959   3.490   8.337  0.2675  0.0377 -0.2871
  594loPI   C3A 9497   6.830   3.456   7.963 -0.1473 -0.0786  0.2171
  594loPI   C4A 9498   6.694   3.547   7.570 -0.1298 -0.4048  0.0700
  594loPI   C5A 9499   6.628   3.276   7.215 -0.1001  0.0644  0.1619
  594loPI   C6A 9500   6.447   3.002   6.790  0.1282  0.1424 -0.0695
  594loPI   C1B 9501   7.116   3.099   8.748  0.2108  0.0301 -0.0287
  594loPI   C2B 9502   6.973   2.969   8.377  0.0629  0.1156 -0.1574
  594loPI   C3B 9503   6.648   2.708   8.210 -0.2903 -0.1386  0.0154
  594loPI   C4B 9504   6.298   2.401   8.335  0.0622 -0.2854 -0.0215
  595loPI    C1 9505   9.419  17.116  10.037 -0.1268  0.0919  0.3395
  595loPI    C2 9506   9.070  16.939  10.119 -0.1665  0.0686  0.1243
  595loPI    C3 9507   9.084  17.333  10.053 -0.1875  0.0364 -0.0780
  595loPI   PO4 9508   9.573  16.992   9.845 -0.1500 -0.0680 -0.3199
  595loPI   GL1 9509   9.462  17.003   9.341 -0.0021  0.0709 -0.0537
  595loPI   GL2 9510   9.547  17.270   9.073 -0.2366  0.2324 -0.3805
  595loPI   C1A 9511   9.199  16.827   9.048 -0.1468  0.0532  0.0629
  595loPI   C2A 9512   9.079  16.775   8.547  0.0896 -0.0232  0.1991
  595loPI   C3A 9513   8.927  16.669   8.123  0.1135  0.0769  0.4920
  595loPI   C4A 9514   8.904  16.747   7.617 -0.2250  0.2895  0.1042
  595loPI   C5A 9515   8.647  16.694   7.269 -0.0902  0.0072  0.1823
  595loPI   C6A 9516   8.761  16.694   6.826 -0.1786 -0.0564  0.3027
  595loPI   C1B 9517   9.558  16.962   8.697 -0.1476 -0.2516  0.0829
  595loPI   C2B 9518   9.566  17.092   8.301  0.2978 -0.0764  0.1481
  595loPI   C3B 9519   9.458  16.990   7.904  0.0666  0.0989 -0.2528
  595loPI   C4B 9520   9.334  16.959   7.445  0.0482 -0.0960 -0.2963
  596loPI    C1 9521  12.909  11.546   9.484 -0.3543 -0.1125  0.4008
  596loPI    C2 9522  13.061  11.580   9.853 -0.2264 -0.1083  0.3481
  596loPI    C3 9523  12.898  11.234   9.735 -0.0636 -0.1808  0.3326
  596loPI   PO4 9524  13.131  11.617   9.342  0.0414  0.2153 -0.2560
  596loPI   GL1 9525  13.189  11.479   8.911  0.0966 -0.0386  0.2792
  596loPI   GL2 9526  13.024  11.285   9.006  0.1339  0.1044  0.1222
  596loPI   C1A 9527  13.116  11.233   8.456 -0.2806  0.1823 -0.1003
  596loPI   C2A 9528  13.224  11.392   8.092  0.2923 -0.2696 -0.1377
  596loPI   C3A 9529  13.040  11.391   7.714 -0.0582 -0.0075 -0.0471
  596loPI   C4A 9530  12.864  10.999   7.460  0.2811  0.2272  0.1999
  596loPI   C5A 9531  12.545  10.704   7.357 -0.1583 -0.3181 -0.2198
  596loPI   C6A 9532  12.677  10.296   7.213  0.1614  0.2698 -0.0588
  596loPI   C1B 9533  12.638  11.104   8.747  0.0886 -0.0489  0.1634
  596loPI   C2B 9534  12.634  10.824   8.330  0.1181 -0.0145  0.0345
  596loPI   C3B 9535  12.658  10.568   7.936  0.2105 -0.1951 -0.2883
  596loPI   C4B 9536  12.733  10.238   7.691 -0.0564  0.0459 -0.1289
  597loPI    C1 9537   3.793  12.857  10.153 -0.1527  0.2757 -0.2917
  597loPI    C2 9538   4.048  13.132  10.015  0.1841  0.1828  0.1237
  597loPI    C3 9539   3.764  13.236  10.277  0.2501  0.1540  0.2070
  597loPI   PO4 9540   3.749  12.679   9.903 -0.1750 -0.2182 -0.2037
  597loPI   GL1 9541   3.816  12.826   9.499  0.0537 -0.3786 -0.0473
  597loPI   GL2 9542   4.075  12.770   9.533 -0.2643  0.0323 -0.1347
  597loPI   C1A 9543   3.789  12.887   9.071 -0.0037  0.2613 -0.0378
  597loPI   C2A 9544   3.956  12.803   8.716 -0.0031 -0.3217 -0.1129
  597loPI   C3A 9545   4.131  12.996   8.311 -0.0098 -0.0162 -0.0210
  597loPI   C4A 9546   3.945  13.181   8.063  0.1710 -0.2249 -0.1412
  597loPI   C5A 9547   3.780  13.313   7.786 -0.0987  0.2219 -0.1399
  597loPI   C6A 9548   3.401  13.676   7.753 -0.1636 -0.0551  0.0513
  597loPI   C1B 9549   4.294  12.970   9.218 -0.0233  0.0905  0.1306
  597loPI   C2B 9550   4.369  13.161   8.823  0.2722  0.1398  0.0512
  597loPI   C3B 9551   4.359  13.470   8.499  0.1240 -0.0414 -0.1622
  597loPI   C4B 9552   4.364  13.395   8.063  0.1635 -0.2501 -0.0818
  598loPI    C1 9553   8.225  14.471   9.794  0.2228  0.0539 -0.0804
  598loPI    C2 9554   7.942  14.584  10.053  0.1781 -0.0621 -0.0784
  598loPI    C3 9555   8.206  14.300  10.155  0.0142 -0.2775 -0.2437
  598loPI   PO4 9556   8.096  14.482   9.599 -0.0454  0.1817  0.0923
  598loPI   GL1 9557   7.827  14.292   9.443 -0.0754  0.2330  0.0868
  598loPI   GL2 9558   8.072  14.159   9.207 -0.0339  0.0619  0.0568
  598loPI   C1A 9559   7.585  14.206   9.079  0.0234 -0.2453 -0.1160
  598loPI   C2A 9560   7.693  14.096   8.701 -0.0773  0.0988  0.1150
  598loPI   C3A 9561   7.966  13.802   8.503  0.1077 -0.0508  0.2521
  598loPI   C4A 9562   8.301  13.544   8.423 -0.0114  0.1078 -0.1102
  598loPI   C5A 9563   8.814  13.464   8.395 -0.2187  0.5076 -0.1180
  598loPI   C6A 9564   9.356  13.430   8.316 -0.0246  0.1115  0.0770
  598loPI   C1B 9565   8.220  14.243   8.716  0.3643  0.0280  0.1188
  598loPI   C2B 9566   8.354  14.086   8.232  0.3177 -0.0578  0.1946
  598loPI   C3B 9567   8.660  13.881   8.149  0.1727 -0.0307  0.3402
  598loPI   C4B 9568   8.867  13.585   7.903 -0.5252 -0.0542  0.0082
  599loPI    C1 9569   1.510  19.247   9.805 -0.0559  0.3048 -0.0626
  599loPI    C2 9570   1.202  19.261  10.060 -0.0159 -0.0863  0.0144
  599loPI    C3 9571   1.570  19.354  10.186 -0.0538  0.0889 -0.0008
  599loPI   PO4 9572   1.482  19.087   9.622  0.0765  0.2327  0.3139
  599loPI   GL1 9573   1.218  18.864   9.283 -0.2336 -0.1096 -0.0531
  599loPI   GL2 9574   0.837  18.908   9.152  0.0283  0.1268 -0.1346
  599loPI   C1A 9575   1.246  18.684   8.848 -0.1163  0.1439  0.1712
  599loPI   C2A 9576   1.334  18.520   8.478 -0.2628 -0.2426  0.2320
  599loPI   C3A 9577   1.426  18.601   8.095  0.0354 -0.2324 -0.0142
  599loPI   C4A 9578   1.627  18.505   7.775 -0.3433  0.2566 -0.0008
  599loPI   C5A 9579   1.910  18.271   7.511 -0.0958  0.1043 -0.0277
  599loPI   C6A 9580   1.926  17.764   7.270 -0.0836  0.0697 -0.1787
  599loPI   C1B 9581   0.842  18.908   8.715  0.0338 -0.1624 -0.0795
  599loPI   C2B 9582   0.891  19.018   8.303 -0.0125 -0.0255 -0.2124
  599loPI   C3B 9583   1.000  18.991   7.981 -0.1546  0.0590  0.1368
  599loPI   C4B 9584   1.279  18.950   7.686  0.0565 -0.3568 -0.3185
  600loPI    C1 9585  14.436   6.202   9.726  0.1130  0.2240  0.3904
  600loPI    C2 9586  14.335   5.863   9.913  0.0577  0.0459  0.0465
  600loPI    C3 9587  14.405   6.195  10.125 -0.0939 -0.1250  0.3726
  600loPI   PO4 9588  14.222   6.263   9.421  0.2091 -0.5047 -0.3293
  600loPI   GL1 9589  13.882   6.293   9.064 -0.0546 -0.1356  0.2437
  600loPI   GL2 9590  14.157   6.066   8.996  0.0070 -0.3603  0.1750
  600loPI   C1A 9591  13.979   6.527   8.790 -0.0713  0.2012  0.1609
  600loPI   C2A 9592  13.984   6.657   8.418 -0.1672 -0.3363 -0.0962
  600loPI   C3A 9593  14.065   6.579   7.983  0.0824 -0.2423  0.0329
  600loPI   C4A 9594  14.127   6.726   7.579 -0.0112  0.0918  0.0146
  600loPI   C5A 9595  14.246   7.055   7.345 -0.2198  0.2934 -0.0493
  600loPI   C6A 9596  14.099   7.208   6.908 -0.2653 -0.0410 -0.1830
  600loPI   C1B 9597  14.310   6.174   8.639  0.0898  0.2018 -0.1171
  600loPI   C2B 9598  14.069   6.193   8.263  0.1406 -0.1055  0.1212
  600loPI   C3B 9599  13.942   6.050   7.820  0.0255 -0.1427  0.1141
  600loPI   C4B 9600  13.828   5.641   7.636 -0.0084  0.1487 -0.0342
  601loPI    C1 9601  13.757  14.916   9.617 -0.1503 -0.4355 -0.2429
  601loPI    C2 9602  13.450  15.108   9.787  0.1757 -0.1032 -0.0134
  601loPI    C3 9603  13.464  14.708   9.794 -0.2759 -0.1263 -0.0798
  601loPI   PO4 9604  13.770  14.984   9.422  0.1098  0.0094  0.1039
  601loPI   GL1 9605  13.547  15.009   8.999 -0.1681 -0.1198  0.1294
  601loPI   GL2 9606  13.237  14.824   8.884  0.1176 -0.0829 -0.0180
  601loPI   C1A 9607  13.716  15.004   8.631 -0.0845 -0.1633 -0.3768
  601loPI   C2A 9608  13.787  15.201   8.153  0.1174  0.0721 -0.0231
  601loPI   C3A 9609  13.885  15.132   7.724 -0.1827  0.1347 -0.0453
  601loPI   C4A 9610  14.065  15.083   7.212 -0.1346 -0.2993 -0.0286
  601loPI   C5A 9611  14.474  14.973   7.122 -0.0022 -0.1545 -0.2228
  601loPI   C6A 9612  14.800  15.028   6.817  0.0532 -0.3436  0.2365
  601loPI   C1B 9613  13.315  14.937   8.391  0.2198 -0.1613  0.1658
  601loPI   C2B 9614  13.252  15.172   8.009 -0.2239  0.3890  0.1759
  601loPI   C3B 9615  13.283  15.315   7.638  0.0193 -0.1486 -0.2138
  601loPI   C4B 9616  13.264  15.465   7.223 -0.2178  0.3187  0.0105
  602loPI    C1 9617  10.613  12.317   9.858 -0.3462 -0.0130 -0.1284
  602loPI    C2 9618  10.622  11.935   9.977 -0.1123  0.0150 -0.0509
  602loPI    C3 9619  10.538  12.225  10.240  0.0235  0.0437 -0.0387
  602loPI   PO4 9620  10.725  12.416   9.691 -0.0097  0.0194  0.0718
  602loPI   GL1 9621  10.890  12.343   9.401  0.0114  0.0773 -0.0344
  602loPI   GL2 9622  10.741  11.966   9.489  0.2248 -0.1587 -0.0393
  602loPI   C1A 9623  10.978  12.559   9.085 -0.3595 -0.2929  0.4162
  602loPI   C2A 9624  10.686  12.624   8.559  0.1203  0.0321  0.0004
  602loPI   C3A 9625  10.506  12.745   8.080  0.0843 -0.2449  0.0802
  602loPI   C4A 9626  10.029  12.798   7.758  0.2093  0.1429 -0.1466
  602loPI   C5A 9627   9.682  12.861   7.486 -0.1185 -0.1926  0.0268
  602loPI   C6A 9628   9.230  13.072   7.292  0.2996  0.0514  0.1513
  602loPI   C1B 9629  10.852  11.658   9.208 -0.0784  0.2730 -0.1942
  602loPI   C2B 9630  10.857  11.679   8.760  0.0553  0.3090 -0.3491
  602loPI   C3B 9631  11.130  11.747   8.514 -0.0577  0.0747  0.0689
  602loPI   C4B 9632  10.974  11.860   8.207  0.1701 -0.0128 -0.0587
  603loPI    C1 9633   0.284   8.550   9.349  0.0810  0.1667 -0.0181
  603loPI    C2 9634  -0.031   8.677   9.560  0.0328 -0.0533  0.0446
  603loPI    C3 9635   0.258   8.466   9.739  0.1580  0.0464 -0.0383
  603loPI   PO4 9636   0.252   8.551   9.105  0.3306 -0.1025 -0.1871
  603loPI   GL1 9637   0.466   8.592   8.685  0.3569 -0.0043  0.2163
  603loPI   GL2 9638   0.283   8.900   8.696 -0.1141  0.0190 -0.2027
  603loPI   C1A 9639   0.274   8.546   8.311 -0.1700  0.0976 -0.3427
  603loPI   C2A 9640   0.111   8.691   7.992 -0.1078  0.0785 -0.0250
  603loPI   C3A 9641   0.149   8.588   7.613 -0.2942  0.1926 -0.0973
  603loPI   C4A 9642   0.096   8.718   7.308  0.4334 -0.0236 -0.3606
  603loPI   C5A 9643  -0.136   8.984   7.086 -0.1397  0.2725 -0.1426
  603loPI   C6A 9644  -0.248   8.938   6.692  0.1921 -0.2426 -0.0645
  603loPI   C1B 9645   0.183   9.112   8.243 -0.1638  0.0150  0.1140
  603loPI   C2B 9646   0.303   9.230   7.908 -0.0180  0.1318  0.0145
  603loPI   C3B 9647   0.379   9.079   7.569 -0.0880 -0.1427 -0.4184
  603loPI   C4B 9648   0.634   9.087   7.204 -0.0482 -0.1999 -0.1744
  604loPI    C1 9649  14.071  11.272   9.026 -0.0204  0.0632 -0.0528
  604loPI    C2 9650  13.893  11.550   9.252  0.1423  0.1227  0.0035
  604loPI    C3 9651  14.118  11.268   9.423 -0.1993 -0.1782 -0.0318
  604loPI   PO4 9652  14.209  11.447   8.841  0.2103 -0.1978 -0.3855
  604loPI   GL1 9653  14.112  11.372   8.489  0.3790  0.1744 -0.1186
  604loPI   GL2 9654  14.449  11.243   8.504  0.1302 -0.0871  0.0911
  604loPI   C1A 9655  14.165  11.437   8.034 -0.5515  0.1896 -0.1101
  604loPI   C2A 9656  14.146  11.636   7.703 -0.1987 -0.2791 -0.0079
  604loPI   C3A 9657  14.174  11.796   7.284  0.0844 -0.0204  0.0691
  604loPI   C4A 9658  14.098  12.066   6.981 -0.1079  0.1438 -0.1478
  604loPI   C5A 9659  14.231  12.528   6.920  0.1295  0.3668 -0.0064
  604loPI   C6A 9660  14.546  12.797   6.772  0.1260 -0.1567  0.0043
  604loPI   C1B 9661  14.493  11.083   8.095  0.0961 -0.1206  0.1437
  604loPI   C2B 9662  14.464  11.195   7.687 -0.0597 -0.3544  0.5388
  604loPI   C3B 9663  14.522  11.336   7.290 -0.2397 -0.1593 -0.0465
  604loPI   C4B 9664  14.478  11.406   6.804 -0.0004  0.1779  0.1953
  605loPI    C1 9665  17.765  11.473   9.456 -0.0121  0.1547 -0.0633
  605loPI    C2 9666  17.597  11.246   9.739  0.2157 -0.0374 -0.0795
  605loPI    C3 9667  17.684  11.629   9.816  0.0069 -0.0070  0.0118
  605loPI   PO4 9668  17.597  11.432   9.211  0.0222 -0.1558 -0.0066
  605loPI   GL1 9669  17.478  11.362   8.779 -0.2935 -0.4928  0.0682
  605loPI   GL2 9670  17.457  11.647   8.653 -0.1701 -0.1252 -0.2265
  605loPI   C1A 9671  17.745  11.174   8.411 -0.1043 -0.1610 -0.1797
  605loPI   C2A 9672  17.928  10.982   8.039  0.0981  0.0260 -0.0774
  605loPI   C3A 9673  18.049  10.787   7.691 -0.0039 -0.0219  0.2080
  605loPI   C4A 9674  18.260  10.715   7.308 -0.0201  0.0463  0.0757
  605loPI   C5A 9675  18.259  10.521   6.934  0.2953 -0.0518  0.1761
  605loPI   C6A 9676  18.459  10.271   6.713  0.2240  0.1799 -0.1982
  605loPI   C1B 9677  17.485  11.594   8.247  0.0291  0.1865 -0.3489
  605loPI   C2B 9678  17.418  11.590   7.825  0.1945  0.2297 -0.1213
  605loPI   C3B 9679  17.408  11.587   7.345  0.1733 -0.1242  0.0709
  605loPI   C4B 9680  17.481  11.656   6.905 -0.0890 -0.1407 -0.1321
  606loPI    C1 9681  10.069   0.969   9.799  0.0299  0.0642  0.0536
  606loPI    C2 9682   9.960   1.100  10.161 -0.0337  0.2756 -0.0404
  606loPI    C3 9683   9.704   0.885   9.940  0.0673 -0.0050  0.1100
  606loPI   PO4 9684  10.271   0.873   9.756  0.0089 -0.0834 -0.1511
  606loPI   GL1 9685  10.573   0.711   9.379 -0.0362  0.1623  0.2107
  606loPI   GL2 9686  10.691   0.386   9.114 -0.2794  0.0050  0.0192
  606loPI   C1A 9687  10.424   0.841   8.982 -0.3235 -0.0604 -0.2441
  606loPI   C2A 9688  10.192   0.643   8.598 -0.1358  0.1702  0.0333
  606loPI   C3A 9689  10.007   0.810   8.307 -0.0605 -0.0138 -0.0672
  606loPI   C4A 9690  10.065   0.956   7.864 -0.0008  0.0125 -0.1362
  606loPI   C5A 9691   9.961   0.980   7.454 -0.2133 -0.0844 -0.0929
  606loPI   C6A 9692   9.922   0.705   7.136  0.2534 -0.0132  0.1238
  606loPI   C1B 9693  10.731   0.507   8.690  0.1179 -0.2473  0.2232
  606loPI   C2B 9694  10.613   0.667   8.350 -0.0028 -0.0037  0.1921
  606loPI   C3B 9695  10.341   0.529   8.037 -0.0916  0.0490  0.1804
  606loPI   C4B 9696  10.014   0.495   7.733 -0.1220 -0.0653 -0.1435
  607loPI    C1 9697   7.010   5.473   9.783 -0.0125  0.0239 -0.0667
  607loPI    C2 9698   7.142   5.339  10.136 -0.1998 -0.1977 -0.0781
  607loPI    C3 9699   7.183   5.725  10.040  0.2165 -0.2139  0.0167
  607loPI   PO4 9700   7.102   5.282   9.612 -0.0717  0.0557  0.1710
  607loPI   GL1 9701   7.232   5.338   9.152 -0.3748  0.2820  0.2389
  607loPI   GL2 9702   7.029   5.460   8.956 -0.1975 -0.0076  0.1617
  607loPI   C1A 9703   7.344   4.922   8.956 -0.0942 -0.1040  0.1482
  607loPI   C2A 9704   7.483   4.828   8.645 -0.0634  0.0591  0.3419
  607loPI   C3A 9705   7.626   4.790   8.192 -0.0170  0.1092  0.0992
  607loPI   C4A 9706   7.545   4.847   7.721  0.0610 -0.0181 -0.0261
  607loPI   C5A 9707   7.480   4.668   7.431 -0.0010 -0.1693 -0.3100
  607loPI   C6A 9708   7.439   4.463   7.169  0.0786 -0.3119 -0.1887
  607loPI   C1B 9709   6.758   5.530   8.595  0.2193 -0.3580  0.0244
  607loPI   C2B 9710   6.663   5.181   8.371 -0.0541 -0.0991  0.1746
  607loPI   C3B 9711   6.604   4.940   7.871  0.2687 -0.0380  0.3721
  607loPI   C4B 9712   6.407   5.004   7.355 -0.3881  0.0594 -0.2093
  608loPI    C1 9713  10.351  17.970   9.645 -0.0758 -0.1749  0.4344
  608loPI    C2 9714  10.734  17.981   9.757  0.0594  0.2167 -0.0325
  608loPI    C3 9715  10.509  18.311   9.783 -0.2616 -0.0185  0.2678
  608loPI   PO4 9716  10.397  17.938   9.285 -0.2800 -0.1187  0.5313
  608loPI   GL1 9717  10.329  18.120   9.031  0.0590 -0.3449 -0.0016
  608loPI   GL2 9718  10.065  18.402   8.941  0.3895  0.1315 -0.2562
  608loPI   C1A 9719   9.883  17.997   8.759 -0.6979 -0.2025 -0.0773
  608loPI   C2A 9720   9.544  18.122   8.491  0.0382 -0.0618 -0.2426
  608loPI   C3A 9721   9.507  18.302   8.029 -0.3508 -0.2995 -0.0322
  608loPI   C4A 9722   9.470  18.144   7.652 -0.0084 -0.2811 -0.2188
  608loPI   C5A 9723   9.565  17.943   7.293 -0.2811 -0.1734  0.0984
  608loPI   C6A 9724   9.501  17.913   6.868 -0.0349  0.0205 -0.1840
  608loPI   C1B 9725   9.896  18.459   8.551 -0.1539  0.0118 -0.2486
  608loPI   C2B 9726   9.994  18.415   8.153  0.2465  0.4913 -0.2162
  608loPI   C3B 9727  10.007  18.197   7.786 -0.0530  0.0098  0.0787
  608loPI   C4B 9728   9.891  18.293   7.454  0.3436 -0.0290  0.3398
  609loPI    C1 9729   8.398  13.247   9.892  0.0303  0.0282  0.1483
  609loPI    C2 9730   8.762  13.105   9.978  0.0240  0.0481  0.2084
  609loPI    C3 9731   8.492  13.152  10.269 -0.0253  0.0375  0.1645
  609loPI   PO4 9732   8.331  13.376   9.694 -0.1692  0.0703  0.0189
  609loPI   GL1 9733   8.285  13.271   9.270 -0.2461  0.2174 -0.2651
  609loPI   GL2 9734   7.852  13.256   9.276 -0.0574 -0.1961 -0.0246
  609loPI   C1A 9735   8.216  13.236   8.815 -0.2419 -0.1010 -0.1275
  609loPI   C2A 9736   8.066  13.121   8.392 -0.2674  0.0910  0.1109
  609loPI   C3A 9737   8.027  13.001   7.944 -0.0761 -0.0432 -0.1988
  609loPI   C4A 9738   7.861  13.155   7.576 -0.4404  0.0635  0.2043
  609loPI   C5A 9739   7.527  13.039   7.427  0.2568  0.0423 -0.2553
  609loPI   C6A 9740   7.318  13.252   7.014 -0.0829  0.2774  0.1995
  609loPI   C1B 9741   7.317  13.307   9.129 -0.0702  0.0400  0.0377
  609loPI   C2B 9742   7.300  13.026   8.681  0.0531 -0.0184  0.0904
  609loPI   C3B 9743   7.172  13.160   8.337 -0.2549  0.1686  0.1098
  609loPI   C4B 9744   7.131  13.542   8.133 -0.2336  0.1685 -0.3014
  610loPI    C1 9745   8.637  10.264   9.899  0.1158 -0.0841 -0.1237
  610loPI    C2 9746   8.817   9.938  10.044 -0.1407 -0.1667  0.0153
  610loPI    C3 9747   8.764  10.257  10.278 -0.0552 -0.0923 -0.0659
  610loPI   PO4 9748   8.751  10.361   9.655 -0.3133 -0.1986 -0.0826
  610loPI   GL1 9749   8.766  10.354   9.311  0.4238 -0.0038 -0.6216
  610loPI   GL2 9750   9.068  10.259   9.256  0.0980  0.0476 -0.0206
  610loPI   C1A 9751   8.683  10.658   8.925 -0.0062  0.1491  0.0127
  610loPI   C2A 9752   8.736  10.706   8.485 -0.2020  0.0472  0.3543
  610loPI   C3A 9753   8.820  10.563   8.150 -0.1352  0.1901  0.1648
  610loPI   C4A 9754   8.995  10.300   7.877  0.0123  0.2253  0.1470
  610loPI   C5A 9755   9.261  10.156   7.658  0.0330 -0.0304  0.2372
  610loPI   C6A 9756   9.302   9.811   7.402 -0.1880  0.0878 -0.2118
  610loPI   C1B 9757   8.925  10.159   8.880 -0.0703  0.3724 -0.0283
  610loPI   C2B 9758   9.005  10.157   8.357 -0.7534  0.2095 -0.2390
  610loPI   C3B 9759   9.036   9.832   8.081  0.1269  0.1048 -0.2343
  610loPI   C4B 9760   8.851   9.758   7.657  0.0528 -0.2746  0.0711
  611loPI    C1 9761  12.417   0.891   9.526  0.0672  0.0409 -0.1270
  611loPI    C2 9762  12.726   1.020   9.744 -0.0646  0.1435  0.0017
  611loPI    C3 9763  12.770   0.705   9.502  0.1216  0.1159  0.0693
  611loPI   PO4 9764  12.364   1.142   9.319  0.0411  0.1769 -0.1800
  611loPI   GL1 9765  12.559   1.231   9.028 -0.3044  0.2229 -0.0223
  611loPI   GL2 9766  12.440   1.531   8.875 -0.2390  0.1042  0.1956
  611loPI   C1A 9767  12.660   1.042   8.603  0.2043  0.0005 -0.0752
  611loPI   C2A 9768  12.672   0.974   8.160 -0.1570 -0.0200  0.1486
  611loPI   C3A 9769  12.643   0.942   7.852  0.1194  0.3272  0.2040
  611loPI   C4A 9770  12.703   0.860   7.411 -0.0804 -0.1342 -0.1430
  611loPI   C5A 9771  12.614   1.066   7.056 -0.1952  0.1175  0.0469
  611loPI   C6A 9772  12.329   0.991   6.732 -0.1068 -0.1507  0.0140
  611loPI   C1B 9773  12.352   1.428   8.534  0.1587  0.4737 -0.2395
  611loPI   C2B 9774  12.345   1.330   8.117 -0.2356 -0.0721  0.1943
  611loPI   C3B 9775  12.286   1.227   7.754 -0.0503 -0.1510  0.1218
  611loPI   C4B 9776  12.231   1.091   7.426 -0.1118 -0.1798 -0.2308
  612loPI    C1 9777  17.061   4.738   9.449  0.0439  0.0549 -0.0843
  612loPI    C2 9778  17.088   5.108   9.597 -0.2446 -0.0004  0.1155
  612loPI    C3 9779  16.797   4.864   9.722 -0.1759 -0.2287 -0.1607
  612loPI   PO4 9780  17.087   4.742   9.194 -0.1771  0.0397  0.0110
  612loPI   GL1 9781  17.138   4.977   8.892 -0.2433 -0.4078  0.1133
  612loPI   GL2 9782  16.910   5.153   8.549  0.2284  0.1894  0.2569
  612loPI   C1A 9783  17.481   4.977   8.643 -0.0465 -0.1828 -0.0661
  612loPI   C2A 9784  17.627   4.711   8.317  0.0570 -0.0853 -0.0667
  612loPI   C3A 9785  17.541   4.600   7.987  0.1399  0.0503  0.1209
  612loPI   C4A 9786  17.216   4.618   7.637 -0.1584  0.1047  0.0406
  612loPI   C5A 9787  17.077   4.810   7.305  0.1472  0.0611 -0.0395
  612loPI   C6A 9788  17.294   5.103   6.943  0.2239 -0.2595  0.0472
  612loPI   C1B 9789  17.204   5.415   8.228  0.2266  0.1588  0.0192
  612loPI   C2B 9790  17.414   5.606   7.800  0.0599 -0.1595  0.0201
  612loPI   C3B 9791  17.684   5.640   7.543  0.1357  0.1294 -0.0032
  612loPI   C4B 9792  18.058   5.928   7.536 -0.2049 -0.1857 -0.1431
  613loPI    C1 9793   1.377   8.263   9.820 -0.2083  0.1426 -0.1526
  613loPI    C2 9794   1.505   8.008  10.100  0.0346  0.5122  0.0825
  613loPI    C3 9795   1.115   8.094  10.071 -0.0409  0.1731  0.0449
  613loPI   PO4 9796   1.568   8.262   9.488 -0.0232  0.0403 -0.2209
  613loPI   GL1 9797   1.735   8.300   9.183  0.1887  0.3008  0.0603
  613loPI   GL2 9798   1.769   8.514   8.939  0.0948 -0.0370  0.1140
  613loPI   C1A 9799   1.361   8.277   8.705 -0.0415 -0.1476 -0.2210
  613loPI   C2A 9800   1.499   8.339   8.248  0.1896 -0.3476 -0.1214
  613loPI   C3A 9801   1.581   8.161   7.903  0.2093  0.2201 -0.1882
  613loPI   C4A 9802   1.622   8.402   7.567 -0.2048 -0.2208 -0.1562
  613loPI   C5A 9803   1.720   8.566   7.174  0.0828 -0.2800  0.1300
  613loPI   C6A 9804   1.415   8.647   6.769 -0.0450  0.2416 -0.1660
  613loPI   C1B 9805   1.561   8.744   8.540 -0.0412 -0.2613 -0.2500
  613loPI   C2B 9806   1.536   8.860   8.087  0.1095 -0.0557 -0.1886
  613loPI   C3B 9807   1.599   8.970   7.623  0.3360  0.5240 -0.0807
  613loPI   C4B 9808   1.591   9.060   7.123 -0.2437  0.0091 -0.1551
  614loPI    C1 9809  15.553  14.444   9.362 -0.3260  0.2275 -0.0099
  614loPI    C2 9810  15.793  14.681   9.577 -0.0426 -0.0736  0.0131
  614loPI    C3 9811  15.712  14.311   9.705 -0.3467 -0.0502 -0.1061
  614loPI   PO4 9812  15.379  14.632   9.279 -0.0263 -0.0899 -0.1006
  614loPI   GL1 9813  15.356  14.750   8.920  0.2709 -0.0323 -0.1357
  614loPI   GL2 9814  15.180  14.631   8.829 -0.3308  0.1539  0.0149
  614loPI   C1A 9815  15.434  14.854   8.522  0.1021  0.0834 -0.0068
  614loPI   C2A 9816  15.418  14.971   8.057  0.1209  0.1106 -0.1887
  614loPI   C3A 9817  15.593  14.847   7.661  0.1611  0.0265  0.0699
  614loPI   C4A 9818  15.994  14.875   7.489  0.2306 -0.2058  0.1231
  614loPI   C5A 9819  16.462  14.804   7.661 -0.0816 -0.2057 -0.2857
  614loPI   C6A 9820  16.794  14.655   7.945  0.3232 -0.0369  0.0368
  614loPI   C1B 9821  15.376  14.369   8.548  0.0279 -0.3866 -0.1900
  614loPI   C2B 9822  15.191  14.158   8.144  0.0625 -0.1265 -0.0625
  614loPI   C3B 9823  14.781  14.385   8.010  0.0406 -0.0371 -0.0855
  614loPI   C4B 9824  14.407  14.380   8.076 -0.0464  0.0052 -0.3750
  615loPI    C1 9825  11.560  16.459   9.368  0.0648 -0.0804  0.0292
  615loPI    C2 9826  11.770  16.267   9.087  0.0047  0.0145 -0.0810
  615loPI    C3 9827  11.888  16.627   9.213 -0.0749  0.0554 -0.1226
  615loPI   PO4 9828  11.337  16.477   9.248 -0.3030  0.0494  0.0526
  615loPI   GL1 9829  11.137  16.427   8.893  0.2128  0.0958 -0.0833
  615loPI   GL2 9830  10.865  16.529   8.825  0.1705 -0.1090  0.1201
  615loPI   C1A 9831  11.209  16.527   8.472 -0.0334  0.3483 -0.1926
  615loPI   C2A 9832  11.233  16.480   7.874  0.2273 -0.1034  0.0814
  615loPI   C3A 9833  11.021  16.420   7.425 -0.2763  0.1682 -0.1440
  615loPI   C4A 9834  11.021  16.453   6.992  0.0618 -0.1950  0.0231
  615loPI   C5A 9835  11.124  16.242   6.656  0.2823 -0.0325  0.0093
  615loPI   C6A 9836  11.445  16.265   6.437 -0.1843  0.3068  0.0808
  615loPI   C1B 9837  10.623  16.760   8.408  0.0669 -0.3457  0.0359
  615loPI   C2B 9838  10.618  17.022   8.021  0.1198  0.0047 -0.0067
  615loPI   C3B 9839  10.361  17.212   7.594  0.0456 -0.1594 -0.0334
  615loPI   C4B 9840  10.292  17.297   7.117  0.0798  0.1864 -0.4596
  616loPI    C1 9841  18.798   5.509   9.783 -0.1759 -0.1404 -0.0641
  616loPI    C2 9842  18.481   5.337   9.957 -0.2090  0.0301  0.0464
  616loPI    C3 9843  18.707   5.596  10.163 -0.0772  0.0130 -0.0747
  616loPI   PO4 9844  19.051   5.383   9.702 -0.0958 -0.1976 -0.0824
  616loPI   GL1 9845  19.309   5.392   9.216  0.0162  0.1779 -0.0206
  616loPI   GL2 9846  19.490   5.166   8.956 -0.0325  0.2745 -0.1976
  616loPI   C1A 9847  19.020   5.581   8.901 -0.0393 -0.1634 -0.0387
  616loPI   C2A 9848  18.873   5.533   8.487  0.1670  0.1714 -0.0505
  616loPI   C3A 9849  18.855   5.646   8.049 -0.1825 -0.3284  0.2057
  616loPI   C4A 9850  18.822   5.873   7.661  0.4034 -0.2066 -0.1804
  616loPI   C5A 9851  18.528   6.028   7.446 -0.0934  0.2448 -0.1413
  616loPI   C6A 9852  18.210   6.062   7.073 -0.1477  0.0346  0.1358
  616loPI   C1B 9853  19.376   5.273   8.596  0.1854  0.0964  0.0921
  616loPI   C2B 9854  19.158   5.167   8.262 -0.3776 -0.0557 -0.0313
  616loPI   C3B 9855  19.207   5.336   7.822  0.0936 -0.0465 -0.0746
  616loPI   C4B 9856  19.257   5.627   7.530  0.0166 -0.0954 -0.1661
  617loPI    C1 9857  10.756   6.112   9.812  0.0068  0.0752  0.0209
  617loPI    C2 9858  10.982   6.440   9.847  0.1895 -0.0193 -0.2437
  617loPI    C3 9859  10.941   6.191  10.157  0.3389  0.0690 -0.1519
  617loPI   PO4 9860  10.778   6.068   9.570 -0.1854  0.0917  0.0369
  617loPI   GL1 9861  10.770   6.111   9.123 -0.0188  0.0215  0.1812
  617loPI   GL2 9862  10.684   5.733   9.177 -0.1828  0.0293  0.1388
  617loPI   C1A 9863  10.567   6.237   8.700  0.0558  0.1288 -0.0537
  617loPI   C2A 9864  10.681   6.243   8.266 -0.2206  0.3539  0.0203
  617loPI   C3A 9865  10.521   5.911   8.159  0.0432 -0.0763 -0.1226
  617loPI   C4A 9866  10.185   5.901   7.851 -0.1823  0.0638 -0.2713
  617loPI   C5A 9867   9.940   6.073   7.529 -0.1078  0.1086 -0.0692
  617loPI   C6A 9868   9.877   6.316   7.150  0.0303 -0.0060 -0.2398
  617loPI   C1B 9869  10.759   5.784   8.665 -0.2807 -0.1066 -0.0441
  617loPI   C2B 9870  10.947   5.582   8.339 -0.0810 -0.3964  0.3282
  617loPI   C3B 9871  10.928   5.611   7.923 -0.1284  0.1494  0.0714
  617loPI   C4B 9872  10.684   5.883   7.637  0.0419 -0.1609  0.4967
  618loPI    C1 9873   1.337  13.769   9.558 -0.0480 -0.0497  0.1285
  618loPI    C2 9874   1.190  13.409   9.649 -0.3339  0.0670  0.1387
  618loPI    C3 9875   0.948  13.692   9.504 -0.0914  0.2241  0.0361
  618loPI   PO4 9876   1.548  13.713   9.419  0.0512  0.0636  0.0793
  618loPI   GL1 9877   1.575  13.655   8.962 -0.2206 -0.2767 -0.0158
  618loPI   GL2 9878   1.670  13.390   8.950 -0.0752  0.0773 -0.1557
  618loPI   C1A 9879   1.767  13.727   8.545 -0.0380 -0.1514 -0.0669
  618loPI   C2A 9880   1.733  13.642   8.081  0.1394  0.1063 -0.0584
  618loPI   C3A 9881   1.607  13.774   7.787 -0.0548  0.0221  0.0010
  618loPI   C4A 9882   1.296  13.880   7.469 -0.2315 -0.0937  0.0965
  618loPI   C5A 9883   1.001  13.801   7.218  0.3517  0.0649 -0.0645
  618loPI   C6A 9884   0.824  13.750   6.866  0.1813  0.0032 -0.0432
  618loPI   C1B 9885   1.602  13.268   8.534 -0.0664 -0.3240 -0.2075
  618loPI   C2B 9886   1.578  13.180   8.085  0.2500  0.2333  0.0821
  618loPI   C3B 9887   1.659  12.921   7.620 -0.0495  0.1808  0.0992
  618loPI   C4B 9888   1.611  12.898   7.217  0.1786  0.0683  0.1649
  619loPI    C1 9889  15.014  18.493   9.282 -0.1473 -0.1732  0.1878
  619loPI    C2 9890  15.178  18.169   9.449  0.1989 -0.0470  0.1016
  619loPI    C3 9891  15.106  18.494   9.671  0.1060 -0.0867  0.1300
  619loPI   PO4 9892  14.749  18.331   9.093  0.1910 -0.0738 -0.1366
  619loPI   GL1 9893  14.730  18.506   8.727  0.0696  0.0179  0.0859
  619loPI   GL2 9894  14.769  18.851   8.636 -0.1958 -0.1178  0.2346
  619loPI   C1A 9895  14.728  18.543   8.260 -0.0978 -0.0340 -0.0545
  619loPI   C2A 9896  14.714  18.405   7.832  0.2730  0.1788  0.0603
  619loPI   C3A 9897  14.554  18.602   7.445 -0.0972 -0.1981 -0.0910
  619loPI   C4A 9898  14.747  18.507   6.995  0.1095  0.0830  0.0241
  619loPI   C5A 9899  14.791  18.199   6.691 -0.1048 -0.1165 -0.0188
  619loPI   C6A 9900  14.960  18.186   6.382  0.1401  0.2178 -0.0987
  619loPI   C1B 9901  14.741  19.132   8.340  0.0078  0.1427 -0.2065
  619loPI   C2B 9902  14.865  19.363   7.997  0.0279 -0.1387 -0.0883
  619loPI   C3B 9903  14.853  19.537   7.622 -0.1550  0.1653 -0.2246
  619loPI   C4B 9904  15.015  19.527   7.259 -0.0094  0.1587  0.2271
  620loPI    C1 9905   1.965   3.002   9.730 -0.0360  0.1080  0.1123
  620loPI    C2 9906   2.266   3.201   9.555 -0.1258  0.1562  0.0115
  620loPI    C3 9907   2.312   3.052   9.924  0.0831  0.0092 -0.0718
  620loPI   PO4 9908   1.838   2.856   9.479  0.1678 -0.2241 -0.3986
  620loPI   GL1 9909   2.098   2.877   9.183  0.2121  0.0233 -0.1771
  620loPI   GL2 9910   2.045   2.551   9.096 -0.3246 -0.1369 -0.0159
  620loPI   C1A 9911   2.130   2.930   8.776 -0.0093  0.1069 -0.0226
  620loPI   C2A 9912   2.315   2.724   8.368 -0.1120  0.2270 -0.0534
  620loPI   C3A 9913   2.318   2.682   7.920 -0.1516 -0.2250  0.0304
  620loPI   C4A 9914   2.393   3.008   7.615  0.0969  0.0702  0.0499
  620loPI   C5A 9915   2.599   3.113   7.247 -0.2061 -0.1232 -0.0469
  620loPI   C6A 9916   2.733   3.448   7.051  0.2577 -0.0216 -0.1713
  620loPI   C1B 9917   1.963   2.482   8.648  0.2151  0.1413 -0.0969
  620loPI   C2B 9918   1.603   2.703   8.489  0.2566 -0.1049 -0.0672
  620loPI   C3B 9919   1.356   2.843   8.172 -0.0936  0.1564  0.1397
  620loPI   C4B 9920   1.335   2.845   7.854  0.1413  0.0255 -0.1136
  621loPI    C1 9921  15.270   0.670   8.949  0.2568  0.3108  0.1772
  621loPI    C2 9922  14.893   0.802   8.971  0.0963 -0.0767 -0.1353
  621loPI    C3 9923  15.164   1.005   8.757 -0.0386 -0.0178 -0.2522
  621loPI   PO4 9924  15.428   0.451   9.125  0.3353  0.0525  0.3156
  621loPI   GL1 9925  15.519   0.271   8.757  0.0421  0.2378  0.1296
  621loPI   GL2 9926  15.172   0.048   8.611  0.0532 -0.2878 -0.0395
  621loPI   C1A 9927  15.687   0.475   8.410  0.1327  0.2004  0.1102
  621loPI   C2A 9928  15.562   0.392   7.949  0.2304  0.2607 -0.1383
  621loPI   C3A 9929  15.430   0.367   7.468  0.0038  0.0895  0.1369
  621loPI   C4A 9930  15.393   0.409   7.052 -0.3113  0.0824  0.0721
  621loPI   C5A 9931  15.485   0.264   6.545 -0.1415 -0.0989 -0.1204
  621loPI   C6A 9932  15.299   0.039   6.310  0.0088 -0.1524  0.1763
  621loPI   C1B 9933  15.174   0.368   8.272 -0.0232  0.1911  0.0178
  621loPI   C2B 9934  15.045   0.373   7.889 -0.2741 -0.0792 -0.0293
  621loPI   C3B 9935  14.781   0.392   7.488 -0.2412 -0.0435 -0.2893
  621loPI   C4B 9936  14.400   0.315   7.444 -0.0265 -0.2008  0.3555
  622loPI    C1 9937   2.010   3.632   9.805  0.1813 -0.1858  0.0077
  622loPI    C2 9938   2.358   3.688   9.993  0.2168 -0.0886 -0.0864
  622loPI    C3 9939   2.076   3.459  10.160  0.1890  0.1183  0.1584
  622loPI   PO4 9940   2.172   3.759   9.503  0.1630  0.1810 -0.0175
  622loPI   GL1 9941   2.065   3.869   9.013 -0.0326 -0.0881  0.2589
  622loPI   GL2 9942   2.129   3.522   9.073 -0.2388 -0.0284  0.2023
  622loPI   C1A 9943   2.045   3.977   8.601  0.1526 -0.2588 -0.0342
  622loPI   C2A 9944   2.021   4.337   8.324 -0.0863  0.1427 -0.2995
  622loPI   C3A 9945   1.770   4.573   7.970 -0.0523  0.1449  0.2059
  622loPI   C4A 9946   1.778   4.571   7.573 -0.0977 -0.1476 -0.2513
  622loPI   C5A 9947   1.859   4.743   7.115 -0.1524  0.0012 -0.4425
  622loPI   C6A 9948   2.048   4.691   6.730 -0.1826 -0.2421 -0.0385
  622loPI   C1B 9949   2.009   3.493   8.682 -0.0714  0.1249  0.2988
  622loPI   C2B 9950   1.854   3.705   8.242  0.0491 -0.2013  0.0560
  622loPI   C3B 9951   2.077   3.969   7.994  0.3378 -0.0397 -0.0898
  622loPI   C4B 9952   2.339   4.302   7.920  0.0567 -0.4794 -0.1520
  623loPI    C1 9953  16.816  14.893   9.197  0.2138  0.0950 -0.0593
  623loPI    C2 9954  16.788  15.188   8.929  0.0018 -0.0204 -0.1672
  623loPI    C3 9955  16.784  15.272   9.320  0.1971  0.1389 -0.1976
  623loPI   PO4 9956  17.025  14.764   9.032 -0.0643 -0.0637 -0.1563
  623loPI   GL1 9957  17.067  14.598   8.608 -0.0569 -0.1624  0.0104
  623loPI   GL2 9958  16.859  14.845   8.519  0.3344  0.0180  0.1228
  623loPI   C1A 9959  17.179  14.649   8.206  0.2362 -0.0253  0.0617
  623loPI   C2A 9960  17.275  14.407   7.781  0.0005 -0.0924  0.4213
  623loPI   C3A 9961  17.257  14.329   7.290  0.0885  0.2655  0.0018
  623loPI   C4A 9962  17.390  14.292   6.932 -0.2468 -0.0095 -0.0215
  623loPI   C5A 9963  17.696  14.441   6.690 -0.4971 -0.0449  0.0991
  623loPI   C6A 9964  18.007  14.295   6.379  0.1452  0.3828 -0.3040
  623loPI   C1B 9965  16.675  15.173   8.343  0.1550  0.0573  0.0197
  623loPI   C2B 9966  16.733  15.242   7.921  0.2617 -0.1400  0.3497
  623loPI   C3B 9967  16.753  15.301   7.478  0.3992 -0.4085  0.0520
  623loPI   C4B 9968  16.430  14.968   7.145 -0.1651 -0.0767  0.0268
  624loPI    C1 9969   2.677   7.662   9.548  0.1260 -0.1294  0.1244
  624loPI    C2 9970   2.946   7.760   9.827  0.0992 -0.0499  0.1228
  624loPI    C3 9971   2.720   8.044   9.660 -0.0261 -0.1240  0.1656
  624loPI   PO4 9972   2.775   7.534   9.357 -0.0859 -0.2054  0.0599
  624loPI   GL1 9973   3.002   7.681   9.067 -0.2795 -0.1634 -0.0001
  624loPI   GL2 9974   3.091   7.364   8.939  0.3864  0.2662  0.0464
  624loPI   C1A 9975   2.726   7.832   8.699 -0.2105 -0.1706  0.2719
  624loPI   C2A 9976   2.448   8.049   8.368 -0.2126 -0.0092  0.1598
  624loPI   C3A 9977   2.547   8.221   7.892 -0.1815  0.0288 -0.0212
  624loPI   C4A 9978   2.965   8.326   7.761  0.1886 -0.3283  0.0980
  624loPI   C5A 9979   3.301   8.255   7.678 -0.1169  0.0792 -0.1044
  624loPI   C6A 9980   3.466   7.902   7.349 -0.1757 -0.1380  0.2422
  624loPI   C1B 9981   2.913   7.347   8.548  0.2579  0.1948 -0.1052
  624loPI   C2B 9982   2.879   7.251   8.144  0.0034  0.0976  0.1352
  624loPI   C3B 9983   2.848   7.271   7.646  0.0861 -0.1484 -0.1008
  624loPI   C4B 9984   2.807   6.970   7.295 -0.1459  0.0429 -0.2578
  625loPI    C1 9985   5.361  17.393   9.910 -0.2641  0.1346 -0.0388
  625loPI    C2 9986   5.559  17.723  10.019  0.0489 -0.0359 -0.0792
  625loPI    C3 9987   5.516  17.421  10.278 -0.1095 -0.0248 -0.0909
  625loPI   PO4 9988   5.429  17.280   9.738  0.0238 -0.1784  0.0532
  625loPI   GL1 9989   5.365  17.228   9.333 -0.1009 -0.3441 -0.0393
  625loPI   GL2 9990   5.118  17.054   9.184 -0.1250  0.1650 -0.0870
  625loPI   C1A 9991   5.519  17.273   8.922  0.1990 -0.0817 -0.0479
  625loPI   C2A 9992   5.606  16.998   8.644 -0.1052  0.1200 -0.1617
  625loPI   C3A 9993   5.809  16.817   8.352  0.2854 -0.0197 -0.0075
  625loPI   C4A 9994   5.973  16.874   8.104  0.0306  0.0320 -0.0936
  625loPI   C5A 9995   5.897  17.116   7.744 -0.3723  0.1009 -0.1438
  625loPI   C6A 9996   6.230  17.281   7.484 -0.0998 -0.3146 -0.1285
  625loPI   C1B 9997   4.928  16.653   9.100 -0.2999  0.0759 -0.2994
  625loPI   C2B 9998   4.875  16.255   8.780 -0.0538 -0.0647  0.0286
  625loPI   C3B 9999   4.973  16.258   8.374 -0.0406 -0.2435  0.0201
  625loPI   C4B10000   5.018  16.199   7.903  0.1258 -0.0848 -0.3861
  626loPI    C110001  19.833  12.825   9.039  0.0531 -0.0222 -0.0796
  626loPI    C210002  19.977  12.630   9.356 -0.1061  0.1780  0.1193
  626loPI    C310003  20.011  13.028   9.334  0.0199  0.1532 -0.1781
  626loPI   PO410004  19.981  12.646   8.849  0.0915  0.2525 -0.1284
  626loPI   GL110005  20.103  12.267   8.525 -0.3041 -0.1656 -0.2513
  626loPI   GL210006  19.815  12.352   8.248 -0.0435  0.0650 -0.0701
  626loPI   C1A10007  20.270  12.432   8.085 -0.0529  0.5872  0.3410
  626loPI   C2A10008  20.248  12.310   7.652 -0.0050 -0.0096  0.1149
  626loPI   C3A10009  20.397  12.310   7.252 -0.2267 -0.0808  0.2416
  626loPI   C4A10010  20.341  12.516   6.992 -0.3317  0.1083  0.2144
  626loPI   C5A10011  20.043  12.819   6.959 -0.1600  0.0595  0.2504
  626loPI   C6A10012  19.855  13.213   6.740  0.3307 -0.1488  0.1040
  626loPI   C1B10013  19.978  12.010   7.935 -0.0548  0.2741  0.2002
  626loPI   C2B10014  20.213  11.666   7.782 -0.0395  0.1242  0.0522
  626loPI   C3B10015  20.263  11.303   7.754 -0.2152  0.2344  0.0727
  626loPI   C4B10016  20.236  11.154   7.279 -0.1176 -0.0233 -0.0569
  627loPI    C110017  17.129  11.583   9.306  0.0133 -0.4381 -0.1163
  627loPI    C210018  17.116  11.253   9.531  0.0132 -0.1602  0.3036
  627loPI    C310019  17.107  11.613   9.704  0.1640  0.0637 -0.1383
  627loPI   PO410020  16.903  11.567   9.147  0.1904  0.1373  0.0737
  627loPI   GL110021  16.894  11.468   8.781 -0.0273 -0.2962 -0.1754
  627loPI   GL210022  16.619  11.485   8.795  0.0285 -0.1098  0.4750
  627loPI   C1A10023  17.007  11.565   8.381 -0.0064 -0.1863 -0.1674
  627loPI   C2A10024  16.963  11.388   7.952 -0.2418 -0.1492  0.1667
  627loPI   C3A10025  16.616  11.234   7.618  0.1552 -0.2854  0.1295
  627loPI   C4A10026  16.818  10.900   7.365 -0.2378  0.0551  0.0261
  627loPI   C5A10027  16.874  10.491   7.062  0.4077 -0.0123  0.3814
  627loPI   C6A10028  17.022  10.265   6.641  0.1854 -0.1898 -0.1204
  627loPI   C1B10029  16.513  11.674   8.388 -0.2074 -0.0694  0.0632
  627loPI   C2B10030  16.411  11.550   7.966  0.0991 -0.1430  0.1702
  627loPI   C3B10031  16.396  11.692   7.562  0.2211  0.0099 -0.1291
  627loPI   C4B10032  16.540  11.602   7.148 -0.1795  0.0763  0.3292
  628loPI    C110033   6.855   6.938   9.164 -0.0520 -0.2845  0.0641
  628loPI    C210034   6.817   6.999   9.557  0.4400  0.2957  0.0362
  628loPI    C310035   7.041   6.696   9.423 -0.0804 -0.1729  0.1897
  628loPI   PO410036   6.756   7.312   9.111  0.2126  0.1288  0.2124
  628loPI   GL110037   6.903   7.770   9.098  0.0363  0.2228 -0.0718
  628loPI   GL210038   6.527   7.676   8.945  0.2018  0.0134  0.1794
  628loPI   C1A10039   6.995   7.923   8.687 -0.0767  0.0975 -0.0198
  628loPI   C2A10040   7.043   7.801   8.280  0.0347  0.0960 -0.0829
  628loPI   C3A10041   7.199   7.910   7.826  0.2954  0.0904 -0.1358
  628loPI   C4A10042   7.500   7.990   7.515  0.5115  0.0611  0.1653
  628loPI   C5A10043   7.460   8.349   7.183  0.2364 -0.0574 -0.1754
  628loPI   C6A10044   7.248   8.239   6.863 -0.0865 -0.1259  0.0577
  628loPI   C1B10045   6.557   7.534   8.577 -0.1936 -0.4055  0.1086
  628loPI   C2B10046   6.578   7.488   8.069 -0.1685 -0.2991 -0.0244
  628loPI   C3B10047   6.807   7.528   7.664 -0.0683 -0.1346 -0.1834
  628loPI   C4B10048   6.877   7.316   7.257 -0.0973  0.2492 -0.1767
  629loPI    C110049   2.748   8.406   9.225 -0.1026  0.2545 -0.3754
  629loPI    C210050   2.964   8.193   8.964 -0.0163  0.1167 -0.1940
  629loPI    C310051   2.632   8.037   9.123 -0.0908  0.2160 -0.2507
  629loPI   PO410052   2.746   8.641   9.152 -0.2875  0.2789 -0.1664
  629loPI   GL110053   2.548   8.667   8.730 -0.1654  0.0283 -0.0365
  629loPI   GL210054   2.537   8.371   8.775  0.0539 -0.0044  0.0260
  629loPI   C1A10055   2.505   8.580   8.296  0.0678 -0.2962 -0.0379
  629loPI   C2A10056   2.517   8.730   7.903 -0.0320 -0.0396  0.0051
  629loPI   C3A10057   2.530   8.682   7.470  0.0451  0.0490 -0.1187
  629loPI   C4A10058   2.490   8.616   7.004  0.0593 -0.1482  0.4155
  629loPI   C5A10059   2.507   8.972   6.784 -0.1342 -0.1130  0.2333
  629loPI   C6A10060   2.137   9.270   6.732 -0.0765  0.2038 -0.2440
  629loPI   C1B10061   2.905   8.326   8.511 -0.0912  0.1775 -0.2254
  629loPI   C2B10062   3.314   8.245   8.281  0.0008  0.0208  0.1444
  629loPI   C3B10063   3.719   8.389   8.095 -0.1305  0.0542 -0.3406
  629loPI   C4B10064   3.862   8.182   7.705  0.0945 -0.1057 -0.4956
  630loPI    C110065   8.330   1.122   9.707  0.1773  0.1058  0.0582
  630loPI    C210066   8.653   0.939   9.856  0.1491  0.1329  0.1537
  630loPI    C310067   8.325   0.980  10.081 -0.1333 -0.4204 -0.1357
  630loPI   PO410068   8.345   1.249   9.403 -0.2283 -0.1272 -0.0674
  630loPI   GL110069   8.282   1.157   8.985 -0.3187 -0.0652 -0.0186
  630loPI   GL210070   7.914   1.157   9.122  0.1305 -0.0306 -0.0577
  630loPI   C1A10071   8.153   0.851   8.707  0.0296  0.3565  0.0222
  630loPI   C2A10072   8.177   0.520   8.379  0.2308 -0.0768 -0.0029
  630loPI   C3A10073   8.218   0.216   8.070  0.3131  0.2588 -0.0835
  630loPI   C4A10074   8.140   0.243   7.687 -0.1498 -0.0171  0.0996
  630loPI   C5A10075   8.242   0.249   7.298  0.0900  0.1946 -0.2783
  630loPI   C6A10076   8.190   0.168   6.864 -0.0497 -0.0150  0.0290
  630loPI   C1B10077   7.566   1.217   8.721  0.3728 -0.0211  0.0282
  630loPI   C2B10078   7.311   1.155   8.267 -0.1742  0.2247 -0.0087
  630loPI   C3B10079   7.144   1.362   7.895 -0.1947  0.1450  0.2432
  630loPI   C4B10080   7.115   1.657   7.584 -0.0381 -0.1857  0.2427
  631loPI    C110081  10.272   8.565   9.754 -0.0302  0.1943  0.0450
  631loPI    C210082  10.092   8.785   9.473 -0.1044  0.3252  0.1934
  631loPI    C310083   9.873   8.593   9.747 -0.0384  0.0942  0.0874
  631loPI   PO410084  10.574   8.635   9.733 -0.0361  0.0690  0.1878
  631loPI   GL110085  10.681   8.883   9.351 -0.0120 -0.0509 -0.0252
  631loPI   GL210086  10.854   8.655   9.252 -0.0270  0.0493  0.0005
  631loPI   C1A10087  10.412   8.961   9.035 -0.0330  0.0234  0.2027
  631loPI   C2A10088  10.531   9.148   8.722 -0.0947  0.1166  0.6237
  631loPI   C3A10089  10.664   9.268   8.344 -0.1157 -0.2559 -0.2205
  631loPI   C4A10090  11.108   9.233   8.003 -0.3516 -0.0809 -0.0257
  631loPI   C5A10091  11.236   9.142   7.573  0.0202 -0.3081  0.2085
  631loPI   C6A10092  11.193   9.018   7.181 -0.4024  0.0359 -0.1286
  631loPI   C1B10093  10.724   8.558   8.830  0.1169 -0.1981  0.1530
  631loPI   C2B10094  10.625   8.777   8.341 -0.1216  0.1240 -0.1134
  631loPI   C3B10095  10.677   9.027   7.939 -0.0735  0.1837  0.1213
  631loPI   C4B10096  10.748   9.080   7.558  0.2589 -0.0915  0.0628
  632loPI    C110097  19.471  17.779   9.745 -0.0078  0.0255  0.1827
  632loPI    C210098  19.331  17.407   9.794  0.1466 -0.0155  0.3187
  632loPI    C310099  19.106  17.721   9.897 -0.0894 -0.0612 -0.0410
  632loPI   PO410100  19.556  17.797   9.526  0.2232  0.1129  0.2850
  632loPI   GL110101  19.557  17.777   9.056 -0.0197 -0.0759 -0.2447
  632loPI   GL210102  19.765  17.885   8.837  0.3106 -0.1812 -0.2127
  632loPI   C1A10103  19.207  17.669   8.757 -0.0062 -0.1822  0.2284
  632loPI   C2A10104  19.330  17.844   8.322  0.4071  0.2144  0.0903
  632loPI   C3A10105  19.172  18.014   7.843  0.2981  0.1842 -0.1226
  632loPI   C4A10106  18.806  18.074   7.530  0.0746  0.0958  0.1193
  632loPI   C5A10107  18.860  18.342   7.180 -0.0250 -0.0292  0.0297
  632loPI   C6A10108  18.493  18.474   6.870 -0.2548 -0.0320  0.1626
  632loPI   C1B10109  20.162  17.583   8.641  0.0985 -0.2451 -0.0119
  632loPI   C2B10110  20.242  17.653   8.225 -0.0135 -0.1842 -0.2938
  632loPI   C3B10111  20.404  17.708   7.860 -0.2047  0.3385 -0.0645
  632loPI   C4B10112  20.507  17.936   7.460 -0.2301 -0.3859  0.0461
  633loPI    C110113   6.991   8.686   9.916  0.0757 -0.1207 -0.0800
  633loPI    C210114   6.600   8.760   9.885  0.1213  0.0547 -0.2590
  633loPI    C310115   6.792   8.843  10.226 -0.0226 -0.1602 -0.1229
  633loPI   PO410116   7.048   8.617   9.646  0.0427 -0.1389 -0.4671
  633loPI   GL110117   6.945   8.843   9.368  0.1674  0.1148  0.3977
  633loPI   GL210118   6.711   9.084   9.427  0.1775 -0.0252  0.0004
  633loPI   C1A10119   7.102   8.882   8.957  0.1495 -0.4251 -0.0613
  633loPI   C2A10120   7.087   9.189   8.550 -0.1581 -0.0677 -0.0112
  633loPI   C3A10121   6.942   9.199   8.229 -0.0662 -0.0262  0.2254
  633loPI   C4A10122   6.845   9.326   7.818  0.0096  0.1349  0.0704
  633loPI   C5A10123   6.884   9.410   7.447 -0.0626 -0.0868 -0.1235
  633loPI   C6A10124   6.550   9.569   7.186  0.2080 -0.3091 -0.0262
  633loPI   C1B10125   6.538   9.046   8.984 -0.3609 -0.0849  0.4414
  633loPI   C2B10126   6.515   9.107   8.550 -0.2211  0.1486 -0.0389
  633loPI   C3B10127   6.411   9.077   8.125 -0.0009  0.2903 -0.3477
  633loPI   C4B10128   6.423   9.068   7.600  0.0102  0.0611 -0.0076
  634loPI    C110129  18.848   2.524   9.442  0.0303 -0.0018  0.1418
  634loPI    C210130  19.105   2.640   9.726 -0.1351  0.1134  0.2458
  634loPI    C310131  18.868   2.324   9.788  0.1554 -0.1486  0.0513
  634loPI   PO410132  18.833   2.837   9.332  0.1197  0.0392 -0.0468
  634loPI   GL110133  18.810   2.970   8.880 -0.3680  0.1056  0.1332
  634loPI   GL210134  19.113   2.917   8.588 -0.0052 -0.2449  0.1230
  634loPI   C1A10135  18.807   3.264   8.499 -0.3488  0.0102  0.1941
  634loPI   C2A10136  18.911   3.562   8.117  0.1405  0.1415  0.0842
  634loPI   C3A10137  18.832   3.711   7.655  0.0142  0.0186  0.2827
  634loPI   C4A10138  18.823   3.997   7.450 -0.1567  0.4337 -0.3455
  634loPI   C5A10139  18.770   4.112   6.981 -0.0081  0.2013 -0.0727
  634loPI   C6A10140  18.876   3.972   6.635  0.2867 -0.0502 -0.1548
  634loPI   C1B10141  19.065   2.906   8.107 -0.1325 -0.2585 -0.0957
  634loPI   C2B10142  19.252   3.250   7.836  0.3109 -0.1001 -0.0562
  634loPI   C3B10143  19.532   3.495   7.652 -0.0855  0.2746  0.3936
  634loPI   C4B10144  19.641   3.464   7.222  0.1730  0.1399  0.0664
  635loPI    C110145  18.126  13.421   9.327 -0.2355 -0.0023 -0.3198
  635loPI    C210146  18.086  13.819   9.319 -0.0965  0.0227  0.0312
  635loPI    C310147  18.110  13.628   9.669  0.4051 -0.2351 -0.1338
  635loPI   PO410148  17.948  13.393   9.160 -0.0042 -0.1612 -0.1273
  635loPI   GL110149  17.931  13.345   8.582 -0.0990 -0.0372 -0.1470
  635loPI   GL210150  18.160  13.189   8.785 -0.1525 -0.1613  0.1639
  635loPI   C1A10151  17.761  13.382   8.259  0.2614  0.0204  0.1352
  635loPI   C2A10152  17.983  13.373   7.863 -0.2067  0.0153 -0.2134
  635loPI   C3A10153  18.213  13.490   7.500  0.1379  0.2446 -0.2277
  635loPI   C4A10154  18.483  13.552   7.249  0.0895  0.2843 -0.0233
  635loPI   C5A10155  18.750  13.935   7.226 -0.0300  0.1248 -0.0315
  635loPI   C6A10156  18.925  14.271   6.983  0.1558 -0.3949  0.1522
  635loPI   C1B10157  18.259  13.118   8.241 -0.0968  0.0065 -0.0768
  635loPI   C2B10158  18.286  12.906   7.897  0.5159  0.0862 -0.0077
  635loPI   C3B10159  18.208  12.993   7.534  0.7037  0.2506 -0.3254
  635loPI   C4B10160  18.043  12.684   7.154  0.1218 -0.2003  0.1786
  636loPI    C110161   0.363  10.489   9.305 -0.0612  0.1412  0.0671
  636loPI    C210162   0.122  10.744   9.500  0.0965  0.0220  0.4272
  636loPI    C310163   0.508  10.835   9.445  0.0271  0.1094  0.0546
  636loPI   PO410164   0.306  10.452   8.980 -0.1146  0.0158  0.1448
  636loPI   GL110165   0.597  10.454   8.607  0.1237  0.2071  0.0905
  636loPI   GL210166   0.298  10.333   8.476 -0.2581  0.1251 -0.0361
  636loPI   C1A10167   0.616  10.622   8.179  0.2915  0.0182 -0.0467
  636loPI   C2A10168   0.760  10.465   7.769 -0.3346 -0.0561  0.2657
  636loPI   C3A10169   1.096  10.274   7.516 -0.3004 -0.0913  0.1001
  636loPI   C4A10170   1.399  10.435   7.163 -0.2164  0.1945 -0.0776
  636loPI   C5A10171   1.796  10.543   7.014  0.2831 -0.2347  0.2072
  636loPI   C6A10172   2.231  10.648   7.074 -0.3310  0.0161 -0.0410
  636loPI   C1B10173   0.160  10.329   8.055  0.1325  0.0009  0.1812
  636loPI   C2B10174   0.324  10.261   7.644  0.0285 -0.0793 -0.0126
  636loPI   C3B10175   0.208  10.275   7.246  0.3108 -0.0750  0.1885
  636loPI   C4B10176   0.503  10.615   6.968 -0.0610 -0.0216  0.0117
  637loPI    C110177   2.478  12.367   9.875 -0.1910  0.0085  0.0419
  637loPI    C210178   2.304  12.264  10.220 -0.0541  0.1538  0.1557
  637loPI    C310179   2.593  12.540  10.217 -0.1534  0.2579 -0.0945
  637loPI   PO410180   2.301  12.343   9.742 -0.2121 -0.0961 -0.0347
  637loPI   GL110181   2.301  12.594   9.339  0.1480  0.0409 -0.3564
  637loPI   GL210182   2.353  12.280   9.209  0.1245 -0.1147  0.2352
  637loPI   C1A10183   2.375  12.678   8.879 -0.0517  0.0403 -0.2007
  637loPI   C2A10184   2.635  12.464   8.527 -0.1971  0.1368 -0.1070
  637loPI   C3A10185   2.779  12.271   8.102  0.2030  0.0066  0.1764
  637loPI   C4A10186   2.749  12.214   7.680 -0.0075  0.0933  0.4465
  637loPI   C5A10187   2.819  12.110   7.378 -0.2789 -0.0416 -0.0357
  637loPI   C6A10188   2.877  11.879   6.979  0.1149 -0.1740 -0.2680
  637loPI   C1B10189   2.325  11.840   9.064 -0.2769  0.1643 -0.0276
  637loPI   C2B10190   2.213  11.531   8.705 -0.0553  0.1028  0.0379
  637loPI   C3B10191   1.872  11.666   8.430  0.0618  0.1079  0.0199
  637loPI   C4B10192   1.589  11.544   8.082 -0.0229  0.1549 -0.0397
  638loPI    C110193  13.721  15.990   9.352  0.0543 -0.2016  0.1268
  638loPI    C210194  13.721  16.109   8.970 -0.1198 -0.3431  0.0812
  638loPI    C310195  14.064  16.098   9.176 -0.0837  0.1401  0.0591
  638loPI   PO410196  13.440  15.841   9.319 -0.0877 -0.0690 -0.1655
  638loPI   GL110197  13.280  15.779   8.916  0.0674  0.0619  0.3567
  638loPI   GL210198  13.357  15.410   8.773  0.0943 -0.1022  0.2144
  638loPI   C1A10199  13.391  15.815   8.503  0.0954 -0.0041  0.0545
  638loPI   C2A10200  13.491  15.659   8.147  0.0295  0.1366 -0.3070
  638loPI   C3A10201  13.732  15.604   7.815 -0.3682  0.1434  0.2173
  638loPI   C4A10202  13.864  15.623   7.387  0.2820 -0.1335 -0.0365
  638loPI   C5A10203  13.707  15.622   7.002 -0.1827  0.3611 -0.0143
  638loPI   C6A10204  13.415  15.495   6.708 -0.0133  0.1435 -0.0276
  638loPI   C1B10205  13.040  15.373   8.459 -0.1410  0.3175  0.0502
  638loPI   C2B10206  13.025  15.612   8.078 -0.0532 -0.4515 -0.1342
  638loPI   C3B10207  12.883  15.870   7.691 -0.0109 -0.1686  0.2760
  638loPI   C4B10208  12.822  15.914   7.253  0.0982 -0.0325  0.2655
  639loPI    C110209  15.116   0.660   9.456 -0.1536  0.0660  0.2311
  639loPI    C210210  15.077   0.685   9.854  0.1141  0.2734  0.2474
  639loPI    C310211  15.410   0.819   9.677  0.0501  0.0668 -0.0361
  639loPI   PO410212  14.926   0.434   9.335  0.0088 -0.2123 -0.1613
  639loPI   GL110213  14.811   0.281   8.949  0.0267  0.0827  0.2106
  639loPI   GL210214  14.709   0.016   8.893 -0.1711  0.0501  0.2492
  639loPI   C1A10215  14.855   0.591   8.584  0.1356 -0.2130 -0.2531
  639loPI   C2A10216  14.982   0.894   8.214  0.0831 -0.0247 -0.0348
  639loPI   C3A10217  14.884   0.905   7.823  0.0383  0.1382 -0.1585
  639loPI   C4A10218  14.963   0.855   7.422 -0.1362 -0.1631 -0.0088
  639loPI   C5A10219  14.924   0.815   7.123  0.0409 -0.1507 -0.0141
  639loPI   C6A10220  14.769   0.944   6.684 -0.1038 -0.0259 -0.0089
  639loPI   C1B10221  14.633   0.123   8.476  0.2882  0.0715  0.0781
  639loPI   C2B10222  14.602   0.331   8.169  0.1251 -0.0714  0.1489
  639loPI   C3B10223  14.475   0.586   7.881 -0.2469  0.0232 -0.1343
  639loPI   C4B10224  14.468   1.042   7.636  0.1218  0.2088  0.0863
  640loPI    C110225  19.170  12.761   8.983  0.0237 -0.1962  0.0565
  640loPI    C210226  19.113  12.807   9.377  0.1558  0.0281  0.0515
  640loPI    C310227  18.799  12.754   9.134  0.0494  0.2009  0.1498
  640loPI   PO410228  19.398  12.964   8.940  0.1808  0.1396  0.1063
  640loPI   GL110229  19.663  12.957   8.581 -0.1696  0.2234 -0.5744
  640loPI   GL210230  19.928  12.880   8.406 -0.0973  0.1731  0.1224
  640loPI   C1A10231  19.500  13.135   8.185  0.0622 -0.0370  0.0109
  640loPI   C2A10232  19.674  13.395   7.786 -0.2752 -0.1058  0.1867
  640loPI   C3A10233  19.557  13.695   7.484 -0.0658  0.1287 -0.0190
  640loPI   C4A10234  19.328  13.778   7.153 -0.0248  0.4870 -0.2333
  640loPI   C5A10235  19.014  13.773   6.850 -0.0815  0.0011  0.1671
  640loPI   C6A10236  18.663  13.554   6.801  0.0749 -0.0768  0.0405
  640loPI   C1B10237  19.995  12.749   7.938 -0.1756 -0.1394  0.3906
  640loPI   C2B10238  20.050  12.773   7.450  0.0689 -0.1033 -0.2321
  640loPI   C3B10239  20.478  12.919   7.284  0.0241  0.3877 -0.1289
  640loPI   C4B10240  20.754  13.217   7.170  0.1417 -0.1629  0.2487
  641loPI    C110241  19.110  16.550   9.312  0.2103 -0.1504 -0.1693
  641loPI    C210242  19.355  16.365   9.568  0.0368  0.0912  0.1786
  641loPI    C310243  18.997  16.493   9.691 -0.1000  0.1038 -0.2201
  641loPI   PO410244  19.366  16.498   9.093  0.0197 -0.1988 -0.2183
  641loPI   GL110245  19.407  16.389   8.694  0.0161  0.0730 -0.0017
  641loPI   GL210246  19.623  16.432   8.454 -0.1544  0.0195 -0.1113
  641loPI   C1A10247  19.092  16.394   8.380 -0.0242 -0.2963 -0.0215
  641loPI   C2A10248  19.012  16.196   8.030  0.3334 -0.3989  0.1069
  641loPI   C3A10249  18.905  16.145   7.464 -0.1910 -0.2496  0.1825
  641loPI   C4A10250  18.808  15.719   7.264 -0.3313  0.2297  0.2345
  641loPI   C5A10251  18.573  15.381   7.276 -0.1545  0.4700  0.1381
  641loPI   C6A10252  18.313  15.110   7.293  0.1911 -0.1231 -0.1875
  641loPI   C1B10253  19.673  16.943   8.475  0.0527 -0.0785  0.0989
  641loPI   C2B10254  20.015  17.157   8.375  0.1326 -0.0059 -0.0381
  641loPI   C3B10255  20.237  17.222   8.019  0.1598  0.0584  0.0362
  641loPI   C4B10256  19.987  17.447   7.719  0.1887 -0.1115 -0.1986
  642loPI    C110257  13.262   7.332   9.734  0.0123 -0.1037  0.2697
  642loPI    C210258  12.921   7.152   9.841 -0.0028 -0.0881  0.2478
  642loPI    C310259  13.105   7.401  10.095  0.1188 -0.2817  0.3513
  642loPI   PO410260  13.180   7.335   9.427  0.1558 -0.1440  0.1294
  642loPI   GL110261  13.120   7.432   9.042  0.2729  0.2674 -0.1405
  642loPI   GL210262  12.906   7.230   8.942  0.2449 -0.2907  0.0672
  642loPI   C1A10263  13.242   7.508   8.704  0.0847 -0.2090  0.1302
  642loPI   C2A10264  13.188   7.467   8.244  0.0397 -0.0214  0.0872
  642loPI   C3A10265  13.211   7.571   7.801 -0.0985 -0.1518  0.3957
  642loPI   C4A10266  13.191   7.771   7.392  0.0122 -0.1312 -0.2155
  642loPI   C5A10267  13.228   8.159   7.135  0.0621 -0.2102  0.0954
  642loPI   C6A10268  13.092   8.503   6.885  0.2544  0.4550  0.2308
  642loPI   C1B10269  12.801   7.069   8.497  0.0916 -0.0686 -0.1166
  642loPI   C2B10270  12.802   7.251   8.028 -0.0053 -0.2568 -0.3212
  642loPI   C3B10271  12.661   7.324   7.533 -0.1134 -0.2372 -0.0980
  642loPI   C4B10272  12.635   7.616   7.065  0.2747 -0.1403  0.3358
  643loPI    C110273  17.057   3.190   9.450 -0.1837  0.2243  0.0554
  643loPI    C210274  16.718   3.003   9.549 -0.0703 -0.1165 -0.1812
  643loPI    C310275  17.006   3.053   9.822 -0.1132 -0.2626 -0.1078
  643loPI   PO410276  17.030   3.247   9.208  0.1756 -0.0612  0.0932
  643loPI   GL110277  16.917   3.162   8.724  0.3929  0.3424  0.2991
  643loPI   GL210278  16.875   2.938   8.513  0.2058 -0.2337 -0.0601
  643loPI   C1A10279  16.953   3.453   8.398 -0.2301 -0.1007  0.1752
  643loPI   C2A10280  16.831   3.505   8.008 -0.0674 -0.1458 -0.2947
  643loPI   C3A10281  16.973   3.801   7.681 -0.1937  0.2837  0.3201
  643loPI   C4A10282  17.093   3.709   7.225  0.1866 -0.0275  0.0007
  643loPI   C5A10283  17.143   3.584   6.817  0.0890  0.0508 -0.3612
  643loPI   C6A10284  16.876   3.626   6.311  0.0626  0.0801  0.1275
  643loPI   C1B10285  17.179   3.040   8.196  0.3267 -0.0292 -0.0191
  643loPI   C2B10286  17.480   2.890   7.921  0.0523 -0.4427  0.1570
  643loPI   C3B10287  17.732   2.958   7.507 -0.0867  0.0112  0.0165
  643loPI   C4B10288  17.888   3.229   7.119  0.0731 -0.0360  0.0505
  644loPI    C110289  19.595  13.821   9.041  0.1970  0.2532 -0.1416
  644loPI    C210290  19.389  14.156   8.968 -0.0264  0.1284 -0.0927
  644loPI    C310291  19.415  14.014   9.341  0.1736  0.1581 -0.0940
  644loPI   PO410292  19.690  13.789   8.864 -0.0648  0.0952  0.0876
  644loPI   GL110293  19.746  13.445   8.557  0.0213  0.1172 -0.0881
  644loPI   GL210294  19.390  13.407   8.659 -0.0572  0.0253  0.0491
  644loPI   C1A10295  20.019  13.300   8.221 -0.0804  0.2273  0.2871
  644loPI   C2A10296  20.289  13.181   7.816 -0.0215 -0.0119 -0.0900
  644loPI   C3A10297  20.121  13.299   7.442 -0.0345 -0.0008 -0.0948
  644loPI   C4A10298  20.327  13.371   7.073 -0.1035  0.0805  0.2007
  644loPI   C5A10299  20.267  13.466   6.612 -0.5069  0.1426  0.0926
  644loPI   C6A10300  20.279  13.540   6.185  0.3231  0.0414 -0.1256
  644loPI   C1B10301  19.303  13.570   8.323  0.0152 -0.1569  0.0387
  644loPI   C2B10302  18.982  13.874   8.112  0.3294  0.1223 -0.0715
  644loPI   C3B10303  18.830  14.320   8.060  0.1131  0.2348 -0.0977
  644loPI   C4B10304  18.482  14.473   8.281 -0.2542  0.1314  0.0610
  645loPI    C110305   9.137   8.117  10.242  0.2196  0.0771 -0.2392
  645loPI    C210306   8.982   8.480  10.304 -0.0619 -0.0529 -0.1646
  645loPI    C310307   9.291   8.354  10.525 -0.1901  0.0061  0.0509
  645loPI   PO410308   9.121   8.029   9.993 -0.1294 -0.4137  0.0554
  645loPI   GL110309   9.202   8.019   9.584  0.1019 -0.0043  0.3816
  645loPI   GL210310   9.306   7.780   9.338 -0.1529  0.0232  0.0184
  645loPI   C1A10311   8.996   8.254   9.295  0.1809 -0.0151 -0.1282
  645loPI   C2A10312   8.889   8.427   8.899  0.1568  0.2402  0.1725
  645loPI   C3A10313   9.055   8.337   8.519  0.1160  0.1481 -0.5431
  645loPI   C4A10314   9.287   8.609   8.094 -0.0843 -0.0431  0.0433
  645loPI   C5A10315   9.236   8.715   7.751  0.0882 -0.0505 -0.1880
  645loPI   C6A10316   9.444   8.897   7.399 -0.0691 -0.1262 -0.1599
  645loPI   C1B10317   9.336   8.070   8.990 -0.2556  0.0129  0.1640
  645loPI   C2B10318   9.645   8.294   8.827 -0.0455 -0.2217 -0.1934
  645loPI   C3B10319   9.903   8.237   8.404  0.1202  0.0467  0.0548
  645loPI   C4B10320   9.864   8.265   7.896  0.1125  0.1746  0.1740
  646loPI    C110321   4.105  17.304   9.827  0.2083 -0.2444  0.0337
  646loPI    C210322   3.897  17.386  10.158  0.0051 -0.1736 -0.1092
  646loPI    C310323   4.178  17.101  10.163  0.0327 -0.1444  0.1334
  646loPI   PO410324   4.069  17.182   9.594  0.0614 -0.1158 -0.1024
  646loPI   GL110325   4.257  17.118   9.168 -0.0577  0.1153 -0.2718
  646loPI   GL210326   4.612  17.125   9.214  0.0334 -0.2397 -0.0498
  646loPI   C1A10327   4.181  17.084   8.679  0.1983 -0.0255 -0.0879
  646loPI   C2A10328   4.124  17.376   8.316 -0.1734  0.0430 -0.0164
  646loPI   C3A10329   3.962  17.682   8.073  0.0865 -0.0863  0.1365
  646loPI   C4A10330   3.885  17.923   7.685 -0.0035 -0.1286 -0.2427
  646loPI   C5A10331   3.996  18.255   7.346  0.2931  0.2302 -0.0948
  646loPI   C6A10332   4.216  18.637   7.187 -0.2662  0.1227  0.1642
  646loPI   C1B10333   4.705  17.151   8.756  0.0616 -0.1116  0.0964
  646loPI   C2B10334   4.612  17.171   8.283  0.2193  0.0299 -0.1694
  646loPI   C3B10335   4.671  17.111   7.825 -0.0744  0.0730 -0.0138
  646loPI   C4B10336   4.413  17.130   7.440 -0.1817 -0.1709 -0.0375
  647loPI    C110337  19.532  11.021   8.851  0.0812 -0.0366 -0.0167
  647loPI    C210338  19.175  11.197   8.893  0.0464 -0.0792 -0.1306
  647loPI    C310339  19.417  11.156   9.210  0.0367  0.1336 -0.0943
  647loPI   PO410340  19.523  11.034   8.599 -0.0922  0.3072  0.0526
  647loPI   GL110341  19.399  11.275   8.303 -0.2451  0.0790  0.0537
  647loPI   GL210342  19.086  11.367   8.446 -0.1952 -0.0128 -0.2149
  647loPI   C1A10343  19.282  11.281   7.908 -0.0455  0.0218  0.0603
  647loPI   C2A10344  19.236  11.497   7.520  0.0424  0.2548 -0.1310
  647loPI   C3A10345  19.429  11.809   7.229  0.1219  0.0870  0.0171
  647loPI   C4A10346  19.377  11.899   6.829 -0.3051 -0.2076 -0.2276
  647loPI   C5A10347  19.379  12.167   6.494  0.1487 -0.1212 -0.1333
  647loPI   C6A10348  19.705  12.302   6.208  0.0077 -0.1017 -0.0734
  647loPI   C1B10349  18.820  11.297   8.035  0.0913  0.0716  0.1048
  647loPI   C2B10350  18.752  11.488   7.653 -0.2092 -0.3661 -0.0995
  647loPI   C3B10351  18.722  11.662   7.193 -0.1697  0.0160 -0.0659
  647loPI   C4B10352  18.924  11.737   6.850  0.2074  0.1551  0.2171
  648loPI    C110353   5.293   5.507   9.927 -0.0655 -0.0229  0.0148
  648loPI    C210354   5.678   5.417   9.985  0.0517  0.3778 -0.1075
  648loPI    C310355   5.463   5.579  10.281 -0.1325 -0.1848  0.0813
  648loPI   PO410356   5.277   5.574   9.706  0.0827  0.1933 -0.1116
  648loPI   GL110357   5.324   5.658   9.358 -0.1434 -0.1479  0.3361
  648loPI   GL210358   4.977   5.768   9.163 -0.0821  0.0837 -0.0307
  648loPI   C1A10359   5.365   5.574   8.949  0.0900  0.1704  0.0886
  648loPI   C2A10360   5.240   5.485   8.592 -0.0174  0.1329 -0.0957
  648loPI   C3A10361   5.103   5.423   8.166  0.0762  0.3864 -0.1471
  648loPI   C4A10362   5.107   5.619   7.825 -0.1258 -0.0987  0.1730
  648loPI   C5A10363   4.997   5.770   7.454 -0.0766  0.1751 -0.0528
  648loPI   C6A10364   4.543   5.831   7.364  0.0171 -0.0582  0.0083
  648loPI   C1B10365   4.907   5.938   8.763  0.2032  0.1981 -0.0172
  648loPI   C2B10366   4.982   5.924   8.298 -0.1252  0.1829  0.0640
  648loPI   C3B10367   5.086   6.115   7.888  0.0342 -0.2051  0.1944
  648loPI   C4B10368   5.207   6.418   7.566  0.0853 -0.2066  0.3920
  649loPI    C110369  18.503   8.640   9.538 -0.1121  0.0434 -0.0101
  649loPI    C210370  18.251   8.629   9.848 -0.0742  0.1120  0.0233
  649loPI    C310371  18.639   8.553   9.903 -0.0704  0.1077 -0.0103
  649loPI   PO410372  18.340   8.568   9.358  0.2811 -0.2164  0.0164
  649loPI   GL110373  18.204   8.672   8.915 -0.1336  0.1071  0.0330
  649loPI   GL210374  17.874   8.848   8.934  0.0007 -0.1585 -0.0383
  649loPI   C1A10375  18.271   8.558   8.533 -0.1142  0.1858 -0.0483
  649loPI   C2A10376  18.255   8.652   8.165 -0.1350  0.0814  0.0706
  649loPI   C3A10377  18.118   8.563   7.695 -0.0626 -0.1292 -0.2549
  649loPI   C4A10378  17.990   8.619   7.306 -0.0554  0.0433 -0.1374
  649loPI   C5A10379  17.759   8.426   6.995  0.0496  0.0212 -0.0171
  649loPI   C6A10380  17.861   8.152   6.710 -0.1656  0.2284  0.1102
  649loPI   C1B10381  17.738   8.671   8.505  0.0326  0.0661 -0.3781
  649loPI   C2B10382  17.761   8.709   8.150 -0.2387  0.0604  0.2331
  649loPI   C3B10383  17.651   8.387   7.839  0.0911 -0.0839  0.1921
  649loPI   C4B10384  17.533   8.423   7.443  0.3401 -0.0910 -0.2806
  650loPI    C110385  13.143  14.930   9.439 -0.2027 -0.1065  0.0459
  650loPI    C210386  12.976  14.892   9.800 -0.0595 -0.0550  0.1183
  650loPI    C310387  12.913  15.223   9.584  0.0753  0.0329  0.2123
  650loPI   PO410388  12.942  14.672   9.244  0.1615  0.0789  0.0921
  650loPI   GL110389  12.744  14.541   8.826  0.0452  0.1623  0.2997
  650loPI   GL210390  12.761  14.791   8.725 -0.1211  0.0762  0.1190
  650loPI   C1A10391  12.712  14.158   8.616 -0.1706  0.0460  0.0049
  650loPI   C2A10392  12.549  14.042   8.269  0.2296 -0.0249 -0.1250
  650loPI   C3A10393  12.386  13.680   7.965  0.2758 -0.1280 -0.4622
  650loPI   C4A10394  12.265  13.531   7.598 -0.1249 -0.1639 -0.2967
  650loPI   C5A10395  12.117  13.428   7.143  0.0170 -0.0021 -0.1010
  650loPI   C6A10396  12.039  13.304   6.702 -0.2514  0.0397  0.0604
  650loPI   C1B10397  12.672  15.032   8.430 -0.0297  0.4476  0.1168
  650loPI   C2B10398  12.759  15.205   8.030 -0.1004  0.0918  0.2736
  650loPI   C3B10399  12.746  15.400   7.607 -0.1010 -0.0205  0.0296
  650loPI   C4B10400  12.739  15.412   7.110 -0.0020  0.2342  0.0470
  651loPI    C110401   4.917  17.090   9.602  0.1091  0.0527  0.1395
  651loPI    C210402   4.545  17.014   9.726  0.0134  0.0919 -0.1166
  651loPI    C310403   4.829  16.735   9.763 -0.0414  0.0599  0.0750
  651loPI   PO410404   4.906  17.371   9.641 -0.2810 -0.0676 -0.0464
  651loPI   GL110405   5.024  17.600   9.207 -0.2025  0.3351  0.3269
  651loPI   GL210406   4.640  17.558   9.025  0.0119 -0.0826  0.0020
  651loPI   C1A10407   5.049  17.518   8.677 -0.1312 -0.2544  0.0515
  651loPI   C2A10408   5.006  17.413   8.239  0.0832  0.1986 -0.1804
  651loPI   C3A10409   5.101  17.609   7.856  0.2792 -0.2339 -0.3266
  651loPI   C4A10410   5.357  17.968   7.550  0.1621  0.0437 -0.1384
  651loPI   C5A10411   5.638  18.265   7.411  0.1528  0.0590 -0.3430
  651loPI   C6A10412   5.899  18.555   7.211 -0.4734 -0.1250  0.1393
  651loPI   C1B10413   4.528  17.581   8.552 -0.0695 -0.1186  0.2647
  651loPI   C2B10414   4.534  17.616   8.020 -0.2246 -0.2207 -0.0669
  651loPI   C3B10415   4.733  17.501   7.548 -0.0698  0.4386 -0.0388
  651loPI   C4B10416   4.777  17.375   7.127  0.1656 -0.0512 -0.2807
  652loPI    C110417  10.793  16.228   9.329 -0.1118 -0.0330  0.0892
  652loPI    C210418  10.895  15.942   9.589  0.0761 -0.0109  0.0412
  652loPI    C310419  11.072  16.300   9.606 -0.0068  0.0341 -0.0333
  652loPI   PO410420  10.831  16.117   9.119 -0.4583  0.2890  0.0002
  652loPI   GL110421  11.048  15.978   8.700 -0.0396 -0.1119 -0.3704
  652loPI   GL210422  11.176  15.710   8.721 -0.1298  0.0720 -0.0328
  652loPI   C1A10423  10.885  16.141   8.296 -0.0143  0.0144  0.0370
  652loPI   C2A10424  10.840  16.022   7.932  0.0878 -0.0042  0.0392
  652loPI   C3A10425  10.835  16.022   7.562  0.2409  0.0862  0.2096
  652loPI   C4A10426  10.528  15.614   7.266 -0.2391 -0.2310 -0.1441
  652loPI   C5A10427  10.261  15.633   6.949 -0.1791  0.0427 -0.0560
  652loPI   C6A10428   9.831  15.815   6.806  0.3293 -0.0568  0.0096
  652loPI   C1B10429  11.324  15.268   8.476 -0.1837  0.1560 -0.1451
  652loPI   C2B10430  11.289  14.959   8.101  0.2265  0.0162  0.0343
  652loPI   C3B10431  11.110  14.615   7.888  0.2372 -0.3604 -0.2574
  652loPI   C4B10432  11.104  14.342   7.523  0.1131  0.0330 -0.0961
  653loPI    C110433   8.408  11.341   9.749 -0.1125  0.0406 -0.1137
  653loPI    C210434   8.783  11.435   9.645 -0.1175  0.0941 -0.0835
  653loPI    C310435   8.716  11.196   9.958 -0.1161  0.2969  0.0736
  653loPI   PO410436   8.302  11.192   9.546  0.0201  0.0387  0.0740
  653loPI   GL110437   8.208  11.067   9.100 -0.0531  0.1827  0.0155
  653loPI   GL210438   8.327  10.761   9.199  0.0794  0.0627  0.0387
  653loPI   C1A10439   8.445  11.085   8.761 -0.0062  0.1710 -0.3164
  653loPI   C2A10440   8.832  11.112   8.787  0.1010  0.0899 -0.2427
  653loPI   C3A10441   9.147  11.091   8.465 -0.0083 -0.0692  0.0506
  653loPI   C4A10442   9.457  11.200   8.072  0.2630  0.1073  0.3400
  653loPI   C5A10443   9.739  11.320   7.753  0.0054 -0.2591  0.0026
  653loPI   C6A10444   9.794  11.677   7.603  0.2401 -0.2057  0.1013
  653loPI   C1B10445   8.198  10.647   8.847 -0.0139 -0.5249  0.0981
  653loPI   C2B10446   8.246  10.569   8.434  0.0888 -0.0581  0.0999
  653loPI   C3B10447   8.093  10.533   8.023  0.4201 -0.1101  0.1093
  653loPI   C4B10448   8.068  10.351   7.598 -0.0707 -0.2039 -0.1683
  654loPI    C110449  10.029  11.114   9.892  0.1519  0.2050  0.0011
  654loPI    C210450  10.334  10.896  10.032 -0.0601  0.0052  0.1603
  654loPI    C310451  10.141  11.149  10.275 -0.1037  0.0357  0.0943
  654loPI   PO410452  10.127  11.168   9.566 -0.3623 -0.2552 -0.0785
  654loPI   GL110453  10.088  10.820   9.246 -0.2016  0.0132 -0.0418
  654loPI   GL210454   9.822  10.774   9.064  0.0787 -0.0519  0.0532
  654loPI   C1A10455  10.494  11.039   8.942  0.0742 -0.1013 -0.4654
  654loPI   C2A10456  10.522  11.359   8.711  0.1394 -0.0290 -0.0946
  654loPI   C3A10457  10.801  11.409   8.314 -0.3008  0.0565 -0.0119
  654loPI   C4A10458  10.845  11.226   7.908 -0.2746  0.1191 -0.0825
  654loPI   C5A10459  10.550  11.457   7.638  0.1238  0.0150  0.0114
  654loPI   C6A10460  10.243  11.686   7.370 -0.2036 -0.3045 -0.1977
  654loPI   C1B10461   9.757  10.510   8.594 -0.1179  0.2426 -0.2581
  654loPI   C2B10462   9.816  10.448   8.244 -0.1141 -0.1224 -0.0027
  654loPI   C3B10463  10.193  10.444   7.951  0.2949  0.0826  0.0664
  654loPI   C4B10464  10.423  10.680   7.655  0.4190  0.3074  0.1278
  655loPI    C110465  11.956  11.102   9.938  0.2094 -0.0797 -0.0929
  655loPI    C210466  11.967  11.496   9.872 -0.0585 -0.1012 -0.2863
  655loPI    C310467  11.807  11.355  10.211  0.0331 -0.0452 -0.2192
  655loPI   PO410468  11.884  11.027   9.604  0.0399  0.0904  0.2109
  655loPI   GL110469  11.683  10.950   9.235 -0.1125 -0.1516 -0.0531
  655loPI   GL210470  11.496  10.748   9.265 -0.3096 -0.0185 -0.2145
  655loPI   C1A10471  11.666  11.199   8.860 -0.1894 -0.0739  0.1316
  655loPI   C2A10472  11.489  11.406   8.604  0.0526 -0.4604 -0.4350
  655loPI   C3A10473  11.304  11.400   8.139 -0.0012  0.1571 -0.2206
  655loPI   C4A10474  11.107  11.631   7.811  0.2474 -0.2196 -0.0739
  655loPI   C5A10475  10.672  11.975   7.843  0.2049 -0.3363 -0.2635
  655loPI   C6A10476  10.174  11.815   7.895  0.0571 -0.2038 -0.0776
  655loPI   C1B10477  11.422  10.672   8.786 -0.0086  0.0764 -0.0379
  655loPI   C2B10478  11.211  10.855   8.410 -0.3746 -0.1352 -0.0162
  655loPI   C3B10479  11.154  10.875   8.052 -0.0605  0.0756 -0.2386
  655loPI   C4B10480  11.133  10.970   7.613  0.4804  0.1816 -0.0300
  656loPI    C110481  13.630  14.047   9.441  0.1985 -0.2096 -0.2578
  656loPI    C210482  13.901  14.015   9.734 -0.0101  0.1358 -0.0195
  656loPI    C310483  13.653  13.711   9.656  0.1911 -0.0392  0.0149
  656loPI   PO410484  13.736  14.100   9.216 -0.0849 -0.2739 -0.0346
  656loPI   GL110485  13.698  14.195   8.738 -0.1429 -0.0155 -0.2732
  656loPI   GL210486  13.723  14.467   8.711  0.4380 -0.1649 -0.1271
  656loPI   C1A10487  13.608  13.942   8.448 -0.3079 -0.0724  0.1815
  656loPI   C2A10488  13.547  13.758   8.023 -0.0057  0.3370 -0.0133
  656loPI   C3A10489  13.769  13.879   7.654  0.3879 -0.2120 -0.2023
  656loPI   C4A10490  13.743  14.055   7.258  0.0383 -0.1124  0.1141
  656loPI   C5A10491  13.359  14.050   7.055 -0.1200 -0.0074  0.1328
  656loPI   C6A10492  12.995  14.224   6.859  0.0620 -0.0636 -0.0199
  656loPI   C1B10493  13.588  14.355   8.242 -0.0169 -0.5264 -0.2252
  656loPI   C2B10494  13.373  14.218   7.807 -0.4041  0.4317 -0.2036
  656loPI   C3B10495  12.982  14.350   7.577  0.0350 -0.1276  0.1871
  656loPI   C4B10496  12.745  14.275   7.341  0.1011 -0.1489  0.0921
  657loPI    C110497  15.452  18.881   9.452  0.0628  0.1137  0.0423
  657loPI    C210498  15.845  18.848   9.388  0.0081 -0.1868 -0.1603
  657loPI    C310499  15.711  19.036   9.714  0.3196 -0.1527 -0.0483
  657loPI   PO410500  15.322  18.940   9.246  0.2754  0.1805  0.0590
  657loPI   GL110501  15.264  18.782   8.834  0.3848 -0.4862 -0.1116
  657loPI   GL210502  15.229  19.088   8.761 -0.0071 -0.1306 -0.0625
  657loPI   C1A10503  15.316  18.686   8.414  0.4500  0.4392 -0.0561
  657loPI   C2A10504  15.455  18.518   8.086 -0.2027  0.2248 -0.3175
  657loPI   C3A10505  15.649  18.381   7.726 -0.0923  0.0548  0.1858
  657loPI   C4A10506  15.532  18.414   7.289 -0.2920  0.5347 -0.0455
  657loPI   C5A10507  15.382  18.680   6.992  0.1298  0.0080  0.3337
  657loPI   C6A10508  15.235  18.585   6.494  0.1818 -0.0841  0.5145
  657loPI   C1B10509  15.238  19.134   8.355 -0.3002 -0.2242  0.0469
  657loPI   C2B10510  15.174  18.958   7.926 -0.0984  0.0458  0.1890
  657loPI   C3B10511  15.143  18.626   7.689  0.1694  0.2549 -0.0435
  657loPI   C4B10512  15.015  18.464   7.393 -0.3215 -0.0385  0.0051
  658loPI    C110513  16.717  12.337   9.412 -0.1710  0.0318  0.0679
  658loPI    C210514  16.511  12.042   9.588 -0.1012 -0.1306 -0.1192
  658loPI    C310515  16.895  11.987   9.491 -0.0226  0.1028  0.0508
  658loPI   PO410516  16.449  12.401   9.225  0.1119  0.1487  0.2119
  658loPI   GL110517  16.377  12.453   8.766 -0.2002  0.1280  0.2336
  658loPI   GL210518  16.600  12.228   8.673  0.2830 -0.1357  0.2581
  658loPI   C1A10519  16.558  12.646   8.301  0.0980  0.1211 -0.0187
  658loPI   C2A10520  16.530  12.807   7.889  0.0790  0.0048  0.2368
  658loPI   C3A10521  16.325  12.961   7.511 -0.1249 -0.1905  0.1550
  658loPI   C4A10522  16.239  13.020   7.126 -0.1160 -0.1826 -0.1138
  658loPI   C5A10523  16.394  13.131   6.746 -0.4267  0.0259  0.1834
  658loPI   C6A10524  16.511  12.948   6.392  0.3073 -0.0118  0.2003
  658loPI   C1B10525  16.961  12.091   8.393  0.1814 -0.0075  0.1553
  658loPI   C2B10526  17.219  11.993   8.088  0.0392  0.2524  0.1866
  658loPI   C3B10527  17.166  12.125   7.584  0.1194  0.3007  0.0625
  658loPI   C4B10528  17.076  12.470   7.268  0.0688  0.5218 -0.1528
  659loPI    C110529   9.945  19.667   9.269 -0.1075  0.0693  0.1459
  659loPI    C210530  10.252  19.704   9.523 -0.0918  0.1839  0.1113
  659loPI    C310531   9.878  19.675   9.663 -0.0542 -0.1023  0.1592
  659loPI   PO410532  10.030  19.505   9.121 -0.0181 -0.1842  0.0188
  659loPI   GL110533  10.008  19.387   8.768 -0.0546 -0.1095  0.1361
  659loPI   GL210534  10.402  19.646   8.631 -0.0221  0.0543  0.3675
  659loPI   C1A10535   9.743  19.617   8.428  0.0819  0.3078  0.0119
  659loPI   C2A10536   9.961  19.687   8.008  0.0899 -0.0512 -0.1329
  659loPI   C3A10537  10.184  19.990   7.839 -0.0791  0.4271 -0.0821
  659loPI   C4A10538  10.393  20.237   7.533 -0.2806 -0.0625  0.1081
  659loPI   C5A10539  10.739  20.515   7.460 -0.0930  0.2894 -0.0819
  659loPI   C6A10540  11.134  20.678   7.299  0.1361  0.0122 -0.0625
  659loPI   C1B10541  10.544  19.801   8.170 -0.1037  0.1744 -0.0736
  659loPI   C2B10542  10.732  19.869   7.697 -0.1280  0.3408 -0.1395
  659loPI   C3B10543  10.945  19.990   7.361  0.0608 -0.1088  0.3535
  659loPI   C4B10544  11.013  20.271   7.006  0.1841 -0.4271 -0.0990
  660loPI    C110545  16.212  16.116   9.109 -0.2801  0.1576  0.3742
  660loPI    C210546  16.316  15.884   9.418  0.1840 -0.0093  0.1035
  660loPI    C310547  15.955  15.843   9.250  0.0054 -0.0583  0.4877
  660loPI   PO410548  16.486  16.146   8.961  0.0032  0.3829  0.2735
  660loPI   GL110549  16.675  15.916   8.666 -0.1204 -0.0670 -0.1362
  660loPI   GL210550  16.747  15.548   8.638  0.1902  0.0985  0.1121
  660loPI   C1A10551  16.390  16.027   8.264  0.1303 -0.1596 -0.1122
  660loPI   C2A10552  16.377  16.105   7.811 -0.2728  0.0918 -0.1577
  660loPI   C3A10553  16.266  16.315   7.428  0.1333  0.1979  0.1005
  660loPI   C4A10554  16.315  16.611   7.013 -0.2436  0.1507  0.1144
  660loPI   C5A10555  16.155  16.669   6.582  0.5173 -0.2598 -0.0066
  660loPI   C6A10556  16.153  16.869   6.243 -0.1453 -0.0131  0.1915
  660loPI   C1B10557  16.770  15.646   8.242 -0.0460  0.0186  0.0007
  660loPI   C2B10558  16.764  15.795   7.866  0.2820 -0.0179  0.2230
  660loPI   C3B10559  16.705  16.008   7.409  0.1222 -0.1316  0.0158
  660loPI   C4B10560  16.443  16.050   7.033  0.2268 -0.1654  0.0294
  661loPI    C110561   6.053   6.474   9.669 -0.1579  0.1280 -0.0075
  661loPI    C210562   6.288   6.181   9.807 -0.1925  0.0920 -0.0250
  661loPI    C310563   6.061   6.391  10.060  0.0015  0.2540  0.0171
  661loPI   PO410564   5.932   6.392   9.443 -0.0161 -0.2429 -0.1100
  661loPI   GL110565   5.716   6.298   9.179  0.4185 -0.3860 -0.2412
  661loPI   GL210566   5.495   6.065   9.078  0.0691  0.0223 -0.1757
  661loPI   C1A10567   5.757   6.345   8.718  0.3851 -0.0084 -0.0636
  661loPI   C2A10568   5.996   6.442   8.292  0.3291  0.0407 -0.1523
  661loPI   C3A10569   6.164   6.222   7.972 -0.0748  0.1092 -0.0971
  661loPI   C4A10570   6.330   5.914   7.785 -0.0452  0.1286  0.0060
  661loPI   C5A10571   6.523   5.884   7.414 -0.2399 -0.2319  0.0705
  661loPI   C6A10572   6.829   5.978   7.110 -0.3058 -0.2765 -0.0102
  661loPI   C1B10573   5.359   6.011   8.647 -0.0656 -0.0317  0.1607
  661loPI   C2B10574   5.453   6.173   8.320 -0.3512 -0.3042  0.0056
  661loPI   C3B10575   5.600   6.312   7.880  0.0076  0.2348 -0.0214
  661loPI   C4B10576   5.830   6.539   7.847  0.1542  0.1445  0.1080
  662loPI    C110577  11.458   8.799   9.816 -0.0707  0.0498 -0.2766
  662loPI    C210578  11.089   8.842   9.666 -0.0816 -0.1131 -0.2988
  662loPI    C310579  11.141   8.668  10.022 -0.0383  0.0668 -0.2160
  662loPI   PO410580  11.598   8.589   9.626 -0.0252 -0.1181  0.0997
  662loPI   GL110581  11.580   8.538   9.208 -0.0237  0.0157 -0.1047
  662loPI   GL210582  11.446   8.836   9.188 -0.3929 -0.1027 -0.1007
  662loPI   C1A10583  11.218   8.429   8.985 -0.0853 -0.1681  0.0041
  662loPI   C2A10584  11.122   8.447   8.531 -0.1584 -0.3593 -0.1518
  662loPI   C3A10585  10.858   8.349   8.179 -0.4933  0.0374 -0.3131
  662loPI   C4A10586  10.759   8.264   7.904 -0.2111  0.1311  0.1754
  662loPI   C5A10587  10.312   8.213   7.654 -0.2364  0.7095 -0.0672
  662loPI   C6A10588   9.931   8.085   7.393 -0.2286  0.1037 -0.0715
  662loPI   C1B10589  11.531   8.756   8.725 -0.2460  0.0315 -0.1782
  662loPI   C2B10590  11.589   8.622   8.215  0.3049 -0.2122 -0.2691
  662loPI   C3B10591  11.609   8.563   7.839  0.2667  0.1819  0.0817
  662loPI   C4B10592  11.489   8.738   7.438 -0.0865 -0.0638 -0.1465
  663loPI    C110593  16.244   6.117   9.348 -0.0428 -0.0363  0.1100
  663loPI    C210594  16.134   5.803   9.570  0.1338 -0.0214  0.2209
  663loPI    C310595  16.419   6.051   9.701  0.2221  0.0025 -0.0115
  663loPI   PO410596  16.218   6.007   9.078 -0.0225 -0.2853 -0.2064
  663loPI   GL110597  16.367   5.893   8.708 -0.0314 -0.3364  0.0720
  663loPI   GL210598  16.019   5.744   8.651 -0.0937  0.1816 -0.0094
  663loPI   C1A10599  16.422   6.201   8.405 -0.3221  0.3703  0.1164
  663loPI   C2A10600  16.643   6.409   7.989 -0.4346 -0.0253  0.0783
  663loPI   C3A10601  16.610   6.769   7.812 -0.0662  0.2687 -0.1168
  663loPI   C4A10602  16.674   7.052   7.592  0.1447 -0.0740 -0.1111
  663loPI   C5A10603  16.623   7.225   7.196 -0.1005  0.0436  0.1451
  663loPI   C6A10604  16.420   7.565   7.110 -0.0041 -0.0301  0.0399
  663loPI   C1B10605  16.282   5.776   8.254 -0.3248  0.1568 -0.2003
  663loPI   C2B10606  16.463   5.977   7.934 -0.0001 -0.0861 -0.0599
  663loPI   C3B10607  16.428   6.137   7.569  0.2450 -0.0815  0.2324
  663loPI   C4B10608  16.145   5.961   7.270 -0.0332  0.1472 -0.0714
  664loPI    C110609   3.834  17.890   9.977  0.0286 -0.2095 -0.1130
  664loPI    C210610   3.486  17.935   9.784  0.0046 -0.0919 -0.0432
  664loPI    C310611   3.503  17.714  10.117  0.0421 -0.2790 -0.1681
  664loPI   PO410612   4.035  17.803   9.783 -0.0046 -0.2096 -0.2049
  664loPI   GL110613   4.245  17.610   9.348 -0.3211 -0.1114 -0.2484
  664loPI   GL210614   4.176  18.042   9.299 -0.0358  0.2890 -0.0932
  664loPI   C1A10615   4.096  17.519   8.878  0.0182  0.1910  0.4263
  664loPI   C2A10616   3.845  17.748   8.570  0.1038  0.0144 -0.1583
  664loPI   C3A10617   3.829  18.165   8.359  0.1408  0.3657 -0.2090
  664loPI   C4A10618   3.674  18.601   8.305  0.2389 -0.3467  0.2003
  664loPI   C5A10619   3.646  18.930   7.940  0.1560  0.1583 -0.2419
  664loPI   C6A10620   3.888  19.313   7.732 -0.0526  0.0379 -0.0917
  664loPI   C1B10621   4.116  18.049   8.932  0.2898 -0.2178 -0.0137
  664loPI   C2B10622   4.331  18.035   8.476 -0.5488  0.0318  0.5857
  664loPI   C3B10623   4.353  18.090   8.010  0.1415 -0.0293 -0.0098
  664loPI   C4B10624   4.350  18.024   7.591  0.0068  0.0336  0.1570
  665loPI    C110625   3.447   7.768   9.642  0.0877  0.2062  0.4594
  665loPI    C210626   3.239   7.459   9.497  0.2371  0.2454  0.1531
  665loPI    C310627   3.563   7.394   9.722  0.3035  0.1766  0.0386
  665loPI   PO410628   3.601   7.927   9.485 -0.0941 -0.1593  0.0248
  665loPI   GL110629   3.652   8.209   9.211  0.0814  0.2017  0.2954
  665loPI   GL210630   3.437   7.975   8.968 -0.1702 -0.4246  0.3118
  665loPI   C1A10631   3.984   8.299   8.877 -0.1240 -0.1938 -0.1043
  665loPI   C2A10632   4.026   8.498   8.486 -0.0026  0.2871 -0.3130
  665loPI   C3A10633   4.066   8.835   8.234 -0.0270  0.0510  0.2269
  665loPI   C4A10634   4.401   8.825   8.057 -0.2812 -0.2858 -0.1750
  665loPI   C5A10635   4.797   8.890   7.798 -0.2091 -0.3464 -0.1158
  665loPI   C6A10636   4.881   8.552   7.498 -0.2040 -0.3056  0.0998
  665loPI   C1B10637   3.190   7.866   8.613  0.2324 -0.0378  0.1077
  665loPI   C2B10638   2.994   7.720   8.190 -0.0327 -0.4368 -0.1870
  665loPI   C3B10639   3.092   7.811   7.713 -0.4782 -0.0801  0.1237
  665loPI   C4B10640   3.001   8.066   7.324  0.1018 -0.2938 -0.0163
  666loPI    C110641  13.812  16.529   9.540 -0.2118 -0.0245 -0.1183
  666loPI    C210642  13.441  16.399   9.615 -0.0790 -0.3145  0.0550
  666loPI    C310643  13.721  16.382   9.901  0.0455 -0.0062 -0.0439
  666loPI   PO410644  13.813  16.514   9.288  0.2607 -0.3239  0.1608
  666loPI   GL110645  13.990  16.515   8.890 -0.1226 -0.3203 -0.2202
  666loPI   GL210646  14.142  16.791   8.754 -0.0060  0.2351 -0.1181
  666loPI   C1A10647  13.747  16.352   8.565 -0.0428 -0.0380 -0.1534
  666loPI   C2A10648  13.651  16.184   8.188 -0.0129 -0.1083  0.1436
  666loPI   C3A10649  13.812  16.091   7.753 -0.3446 -0.0792 -0.0175
  666loPI   C4A10650  14.127  15.909   7.707 -0.0399  0.0109  0.3519
  666loPI   C5A10651  14.387  15.626   7.535 -0.3525 -0.3486  0.0269
  666loPI   C6A10652  14.433  15.216   7.570 -0.0936  0.0129  0.0510
  666loPI   C1B10653  13.922  16.763   8.359  0.0283 -0.1640 -0.0422
  666loPI   C2B10654  13.873  16.752   7.986  0.0479 -0.2037  0.2183
  666loPI   C3B10655  13.967  16.831   7.540  0.0577  0.2120 -0.0188
  666loPI   C4B10656  13.983  16.795   7.107 -0.0527  0.3651  0.2648
  667loPI    C110657  16.896  19.533   9.508  0.0511 -0.0476 -0.0316
  667loPI    C210658  17.137  19.226   9.593  0.0091 -0.0938 -0.0790
  667loPI    C310659  16.996  19.456   9.888  0.0468 -0.1154 -0.0441
  667loPI   PO410660  16.606  19.413   9.314 -0.3630 -0.2213 -0.1966
  667loPI   GL110661  16.674  19.516   8.934  0.0494  0.3500  0.1051
  667loPI   GL210662  16.365  19.608   8.783  0.0716  0.0752  0.0712
  667loPI   C1A10663  16.816  19.668   8.557  0.1805  0.3199 -0.2043
  667loPI   C2A10664  17.009  19.673   8.154 -0.0109  0.2800  0.1864
  667loPI   C3A10665  16.986  19.460   7.715  0.1308 -0.0174  0.0418
  667loPI   C4A10666  17.260  19.344   7.324 -0.0509 -0.0025  0.1727
  667loPI   C5A10667  17.546  19.184   7.200  0.0384 -0.1319 -0.0213
  667loPI   C6A10668  17.881  19.170   6.926  0.4365  0.1028 -0.1285
  667loPI   C1B10669  16.326  19.617   8.269  0.0023  0.0944  0.1065
  667loPI   C2B10670  16.485  19.818   8.037 -0.0878 -0.0498  0.0803
  667loPI   C3B10671  16.851  19.936   7.697  0.1433  0.0943 -0.1991
  667loPI   C4B10672  17.030  20.039   7.287 -0.2370  0.1039  0.0078
  668loPI    C110673   0.665  12.224   9.443  0.0257  0.0413 -0.1763
  668loPI    C210674   0.695  12.575   9.633 -0.0077  0.0866 -0.2540
  668loPI    C310675   0.348  12.375   9.635  0.1101 -0.1249  0.0995
  668loPI   PO410676   0.802  12.043   9.486  0.0354  0.0061  0.2218
  668loPI   GL110677   1.132  12.028   9.155 -0.1766  0.1137 -0.1276
  668loPI   GL210678   0.867  12.273   8.974 -0.2329  0.0236  0.2319
  668loPI   C1A10679   1.186  11.746   8.840 -0.0258 -0.0693 -0.4605
  668loPI   C2A10680   1.309  11.565   8.476 -0.3385 -0.0473  0.0481
  668loPI   C3A10681   1.160  11.344   8.049  0.0385 -0.0807  0.0544
  668loPI   C4A10682   1.317  11.245   7.755 -0.0327 -0.2644 -0.2343
  668loPI   C5A10683   1.691  11.434   7.583 -0.0464 -0.2008  0.3522
  668loPI   C6A10684   1.716  11.512   7.137  0.1200  0.2275 -0.1430
  668loPI   C1B10685   1.128  12.291   8.667  0.2803  0.1950  0.0213
  668loPI   C2B10686   1.246  12.313   8.202  0.0923 -0.1272 -0.0020
  668loPI   C3B10687   1.352  12.267   7.841  0.0693 -0.2004 -0.2201
  668loPI   C4B10688   1.313  12.438   7.460  0.0738 -0.2497  0.0430
  669loPI    C110689   7.941  18.957   9.779  0.0324 -0.0883 -0.2836
  669loPI    C210690   7.556  18.877   9.856  0.0559 -0.0636 -0.1374
  669loPI    C310691   7.844  18.671  10.041  0.1138 -0.0402 -0.2006
  669loPI   PO410692   7.922  18.950   9.478  0.1576 -0.2284 -0.2380
  669loPI   GL110693   8.046  18.654   9.098 -0.0012 -0.0310 -0.0775
  669loPI   GL210694   7.949  18.920   8.905  0.1153  0.0451 -0.2865
  669loPI   C1A10695   7.822  18.559   8.612 -0.0819  0.2538 -0.0729
  669loPI   C2A10696   8.071  18.561   8.178  0.0806  0.2262  0.0466
  669loPI   C3A10697   8.296  18.659   7.761 -0.0618  0.1131  0.1376
  669loPI   C4A10698   8.502  18.401   7.457  0.2339 -0.3097  0.0302
  669loPI   C5A10699   8.604  18.312   7.061  0.5091  0.0629 -0.3175
  669loPI   C6A10700   8.645  17.901   6.801  0.2258  0.3152 -0.2059
  669loPI   C1B10701   8.046  18.989   8.506  0.1532  0.4609  0.1494
  669loPI   C2B10702   8.135  19.084   8.112  0.0346  0.3129  0.1748
  669loPI   C3B10703   8.186  19.338   7.857  0.0941  0.2037  0.0666
  669loPI   C4B10704   8.111  19.707   7.476 -0.1558 -0.1620  0.0089
  670loPI    C110705   5.280  16.337   9.901  0.0265  0.1445  0.0941
  670loPI    C210706   5.452  16.231  10.246  0.0090  0.0651  0.0789
  670loPI    C310707   5.092  16.085  10.149  0.0311  0.0567  0.0092
  670loPI   PO410708   5.443  16.261   9.707 -0.0929  0.1649  0.3829
  670loPI   GL110709   5.632  16.415   9.267 -0.1937  0.1557  0.0576
  670loPI   GL210710   6.001  16.363   9.177  0.3830  0.0594 -0.1098
  670loPI   C1A10711   5.351  16.584   8.882 -0.1131 -0.3075  0.0466
  670loPI   C2A10712   5.069  16.729   8.528 -0.3432 -0.0152 -0.0895
  670loPI   C3A10713   5.007  16.944   8.175 -0.3691 -0.2094 -0.1972
  670loPI   C4A10714   4.981  16.717   7.760  0.2226  0.1221  0.0693
  670loPI   C5A10715   4.833  16.287   7.384 -0.2176  0.1360 -0.2758
  670loPI   C6A10716   4.524  16.274   7.033  0.3617  0.0041  0.0214
  670loPI   C1B10717   5.920  16.511   8.753  0.1046  0.0052 -0.0161
  670loPI   C2B10718   6.057  16.410   8.279 -0.1661  0.3222  0.1156
  670loPI   C3B10719   5.903  16.407   7.881  0.1859  0.0058  0.0219
  670loPI   C4B10720   5.810  16.567   7.444 -0.0463  0.0164 -0.1136
  671loPI    C110721   0.681  17.018   9.815  0.0736  0.0501 -0.0540
  671loPI    C210722   0.559  16.638   9.846  0.1379  0.0282 -0.0688
  671loPI    C310723   0.856  16.773  10.078 -0.0167  0.1236  0.0755
  671loPI   PO410724   0.675  17.067   9.549 -0.0423  0.1305  0.2291
  671loPI   GL110725   0.744  16.983   9.186 -0.1060 -0.2264  0.1356
  671loPI   GL210726   0.710  16.672   9.045  0.0004  0.1677  0.1654
  671loPI   C1A10727   0.924  17.230   8.744  0.1073  0.0937  0.1429
  671loPI   C2A10728   1.138  17.477   8.497  0.0510 -0.0385  0.1419
  671loPI   C3A10729   1.206  17.490   8.091  0.1864  0.1211 -0.0030
  671loPI   C4A10730   1.498  17.557   7.746  0.0198 -0.2134 -0.1987
  671loPI   C5A10731   1.455  17.527   7.286 -0.0599  0.1749  0.1174
  671loPI   C6A10732   1.358  17.247   6.964  0.0634  0.2127  0.0182
  671loPI   C1B10733   0.976  16.788   8.693  0.2566  0.5864  0.0249
  671loPI   C2B10734   1.093  16.968   8.303 -0.1605 -0.0170 -0.1723
  671loPI   C3B10735   1.156  17.004   7.916  0.1971 -0.0571  0.0103
  671loPI   C4B10736   1.245  17.120   7.461  0.0480 -0.2967  0.3148
  672loPI    C110737   3.247   2.985   9.723  0.1360 -0.1960 -0.1118
  672loPI    C210738   3.448   3.052  10.062  0.1618 -0.3227 -0.1018
  672loPI    C310739   3.091   2.872  10.074  0.0703 -0.1441 -0.1243
  672loPI   PO410740   3.396   3.239   9.579 -0.2233 -0.0496 -0.0643
  672loPI   GL110741   3.686   3.313   9.242  0.0581  0.3843  0.0139
  672loPI   GL210742   3.403   3.160   9.054  0.1161 -0.0854  0.1040
  672loPI   C1A10743   3.581   3.658   8.946  0.0450  0.3144  0.1992
  672loPI   C2A10744   3.464   3.857   8.597 -0.0731  0.1936  0.0772
  672loPI   C3A10745   3.652   3.640   8.339  0.0409 -0.0121  0.1588
  672loPI   C4A10746   3.720   3.542   7.886  0.0333 -0.2888 -0.0288
  672loPI   C5A10747   3.745   3.544   7.420  0.1027  0.0710  0.1567
  672loPI   C6A10748   4.065   3.385   7.211 -0.0288  0.1739  0.1443
  672loPI   C1B10749   3.464   3.274   8.643  0.2060 -0.1015  0.0853
  672loPI   C2B10750   3.353   3.310   8.239  0.2128  0.0180 -0.0288
  672loPI   C3B10751   3.276   3.144   7.901 -0.1717  0.0413 -0.0405
  672loPI   C4B10752   3.213   2.776   7.845 -0.2141 -0.1789 -0.2936
  673loPI    C110753   1.319  12.903   9.590  0.0125 -0.2509 -0.0382
  673loPI    C210754   1.379  13.075   9.946 -0.0877 -0.1788 -0.0556
  673loPI    C310755   1.090  12.802   9.903 -0.2325 -0.0147 -0.1370
  673loPI   PO410756   1.543  12.802   9.524  0.0548 -0.2379 -0.1672
  673loPI   GL110757   1.849  12.837   9.275 -0.0601  0.0565 -0.2327
  673loPI   GL210758   1.576  12.914   9.039 -0.0235 -0.0621 -0.1130
  673loPI   C1A10759   1.911  12.568   8.956  0.4803  0.1777  0.0536
  673loPI   C2A10760   2.139  12.282   8.682 -0.3318  0.2040 -0.1070
  673loPI   C3A10761   2.203  12.242   8.256  0.1305  0.1398 -0.0659
  673loPI   C4A10762   2.243  12.144   7.862 -0.0167  0.0408  0.0825
  673loPI   C5A10763   2.414  11.875   7.690 -0.0309 -0.0040 -0.2772
  673loPI   C6A10764   2.748  11.656   7.490 -0.3121 -0.1674  0.2508
  673loPI   C1B10765   1.483  12.637   8.592 -0.2229 -0.3965  0.2271
  673loPI   C2B10766   1.174  12.834   8.361  0.1145  0.0415  0.1498
  673loPI   C3B10767   1.113  13.294   8.220 -0.1548 -0.0319  0.1340
  673loPI   C4B10768   1.073  13.697   8.019 -0.1357 -0.0140 -0.2404
  674loPI    C110769   6.808  16.344   9.596  0.1380 -0.0353 -0.1349
  674loPI    C210770   7.086  16.587   9.750  0.0961 -0.0321 -0.0635
  674loPI    C310771   6.810  16.423   9.988  0.0720 -0.0814 -0.1252
  674loPI   PO410772   7.000  16.204   9.452  0.0786  0.1072 -0.0561
  674loPI   GL110773   6.848  16.093   8.986 -0.2061 -0.0420 -0.3568
  674loPI   GL210774   6.942  15.747   8.804  0.1922 -0.4064 -0.1409
  674loPI   C1A10775   6.993  16.078   8.459 -0.2208  0.1001  0.2089
  674loPI   C2A10776   7.012  16.189   8.028 -0.4726  0.2005 -0.1369
  674loPI   C3A10777   6.728  15.990   7.628  0.1426 -0.3109  0.0255
  674loPI   C4A10778   6.435  15.745   7.677  0.3036 -0.1120  0.3574
  674loPI   C5A10779   6.241  15.480   7.772  0.1736  0.0723  0.1059
  674loPI   C6A10780   5.776  15.385   7.816  0.1258 -0.1209 -0.2025
  674loPI   C1B10781   7.063  15.570   8.414 -0.3652  0.0313 -0.1532
  674loPI   C2B10782   7.018  15.376   7.939 -0.2653  0.0651 -0.2089
  674loPI   C3B10783   6.914  15.462   7.539  0.2149  0.2457 -0.0329
  674loPI   C4B10784   6.952  15.717   7.188  0.0803  0.4377  0.2534
  675loPI    C110785   2.726   5.472   9.676 -0.2099  0.0438 -0.0570
  675loPI    C210786   2.648   5.746   9.957 -0.0751  0.0753 -0.0498
  675loPI    C310787   3.027   5.662   9.858 -0.1235  0.1682 -0.3238
  675loPI   PO410788   2.560   5.669   9.411 -0.0776  0.1162  0.0531
  675loPI   GL110789   2.548   5.460   8.981 -0.0301 -0.0680 -0.2657
  675loPI   GL210790   2.812   5.281   8.939  0.1609 -0.2193 -0.2625
  675loPI   C1A10791   2.392   5.671   8.630  0.1137 -0.0781  0.1340
  675loPI   C2A10792   2.551   5.675   8.186  0.0096  0.1461 -0.0821
  675loPI   C3A10793   2.732   5.860   7.806 -0.1426  0.0711 -0.1209
  675loPI   C4A10794   2.789   5.937   7.389  0.1026 -0.1562  0.0131
  675loPI   C5A10795   3.084   5.808   7.078  0.0377 -0.4064 -0.0289
  675loPI   C6A10796   3.375   5.654   6.848 -0.1398  0.1122 -0.4383
  675loPI   C1B10797   2.694   5.089   8.516  0.1241  0.1807  0.0446
  675loPI   C2B10798   2.571   5.181   8.078  0.0812 -0.0815  0.1705
  675loPI   C3B10799   2.466   5.341   7.683 -0.0410 -0.3356  0.0681
  675loPI   C4B10800   2.599   5.451   7.320  0.0833  0.1335  0.3018
  676loPI    C110801  18.308  13.676   8.772 -0.1357 -0.2394 -0.3526
  676loPI    C210802  18.566  13.882   8.997 -0.1378 -0.2134 -0.3740
  676loPI    C310803  18.558  13.483   9.016 -0.0660 -0.2163 -0.4053
  676loPI   PO410804  18.072  13.798   8.809 -0.2277  0.1310 -0.0118
  676loPI   GL110805  17.887  13.827   8.442  0.2323 -0.0290 -0.0422
  676loPI   GL210806  18.058  14.168   8.357  0.4675 -0.0560 -0.1905
  676loPI   C1A10807  18.200  13.628   8.204 -0.0458  0.1381 -0.0990
  676loPI   C2A10808  18.592  13.532   7.902 -0.0938 -0.3035  0.1969
  676loPI   C3A10809  18.681  13.197   7.616  0.0555  0.0183 -0.2644
  676loPI   C4A10810  18.564  13.021   7.149 -0.0469  0.2150 -0.1429
  676loPI   C5A10811  18.251  13.225   6.950 -0.0268  0.1880 -0.2665
  676loPI   C6A10812  17.879  13.376   6.764 -0.2610 -0.1877  0.3166
  676loPI   C1B10813  18.017  14.431   7.978 -0.3233 -0.2166  0.1709
  676loPI   C2B10814  17.759  14.311   7.640  0.0269 -0.1751 -0.0320
  676loPI   C3B10815  17.602  13.994   7.357 -0.4372 -0.0246 -0.1205
  676loPI   C4B10816  17.586  13.799   6.973 -0.2384 -0.1752  0.1290
  677loPI    C110817  16.725   0.327   4.322  0.1334  0.0589 -0.0221
  677loPI    C210818  16.482   0.097   4.541  0.0625  0.1707  0.0173
  677loPI    C310819  16.368   0.220   4.177  0.2175 -0.0899 -0.1218
  677loPI   PO410820  16.825   0.518   4.491  0.2278  0.0115 -0.1519
  677loPI   GL110821  16.680   0.595   4.790 -0.0362 -0.2396 -0.2415
  677loPI   GL210822  16.954   0.647   5.015 -0.0826 -0.1004  0.1041
  677loPI   C1A10823  16.586   0.944   4.906 -0.1692  0.0388  0.3383
  677loPI   C2A10824  16.462   1.372   4.941 -0.2617 -0.0609  0.1272
  677loPI   C3A10825  16.163   1.643   5.236  0.1622 -0.0118  0.1403
  677loPI   C4A10826  16.133   1.426   5.682  0.0248  0.1795 -0.0389
  677loPI   C5A10827  16.121   1.497   6.042  0.0178  0.4994  0.0692
  677loPI   C6A10828  16.422   1.475   6.346  0.0735 -0.0381 -0.3607
  677loPI   C1B10829  16.735   0.624   5.368 -0.2114  0.1417  0.0932
  677loPI   C2B10830  16.714   0.673   5.727  0.1508  0.4149  0.0089
  677loPI   C3B10831  17.054   0.604   5.940  0.0765 -0.2621  0.1122
  677loPI   C4B10832  17.377   0.578   6.176  0.2263  0.0523 -0.1897
  678loPI    C110833   2.286   3.186   4.515 -0.1750  0.2221 -0.1292
  678loPI    C210834   2.545   3.490   4.492  0.1150 -0.0017  0.1023
  678loPI    C310835   2.621   3.148   4.301 -0.1200  0.0046 -0.0066
  678loPI   PO410836   2.235   3.238   4.851 -0.2533  0.0399  0.1948
  678loPI   GL110837   2.030   3.492   5.289 -0.0562  0.1694 -0.0259
  678loPI   GL210838   1.948   3.075   5.230 -0.0650 -0.2218  0.0155
  678loPI   C1A10839   2.186   3.424   5.658 -0.1013  0.0183  0.3070
  678loPI   C2A10840   2.275   3.164   5.981 -0.1526  0.2265 -0.2317
  678loPI   C3A10841   2.271   3.035   6.324 -0.5250 -0.0436 -0.2295
  678loPI   C4A10842   2.174   2.619   6.417 -0.1368  0.0614 -0.0179
  678loPI   C5A10843   2.172   2.382   6.779  0.1034  0.0868  0.2107
  678loPI   C6A10844   2.369   2.177   7.039  0.0575  0.0053 -0.4404
  678loPI   C1B10845   1.830   3.078   5.573  0.0092  0.1063  0.0046
  678loPI   C2B10846   1.772   2.870   6.035 -0.3755  0.1111  0.0459
  678loPI   C3B10847   1.548   2.792   6.388  0.1515 -0.1091 -0.3345
  678loPI   C4B10848   1.257   2.581   6.425  0.0351 -0.1310 -0.0775
  679loPI    C110849   1.542   2.854   4.431  0.2211  0.0983 -0.2620
  679loPI    C210850   1.446   2.597   4.141  0.1007  0.0669 -0.1949
  679loPI    C310851   1.486   2.986   4.058  0.1175  0.0508 -0.2635
  679loPI   PO410852   1.526   2.633   4.654 -0.2653 -0.2396 -0.1061
  679loPI   GL110853   1.778   2.333   4.910  0.0919  0.0382 -0.0853
  679loPI   GL210854   1.426   2.317   5.011 -0.0878  0.3132  0.1832
  679loPI   C1A10855   1.854   2.104   5.244  0.0167  0.1600  0.1002
  679loPI   C2A10856   1.843   1.840   5.774 -0.0110 -0.1972 -0.1744
  679loPI   C3A10857   1.630   1.874   6.087  0.1025 -0.2756  0.3629
  679loPI   C4A10858   1.185   2.012   6.305 -0.1912  0.0365 -0.1042
  679loPI   C5A10859   0.864   1.925   6.526  0.0264 -0.0922 -0.1007
  679loPI   C6A10860   0.462   1.909   6.571 -0.3400  0.1352 -0.3226
  679loPI   C1B10861   1.339   2.359   5.457 -0.0138  0.0808  0.0961
  679loPI   C2B10862   1.405   2.505   5.874  0.1391  0.1063  0.2995
  679loPI   C3B10863   1.283   2.938   5.936 -0.1369 -0.0126  0.1557
  679loPI   C4B10864   0.921   2.860   6.143  0.1186 -0.1937  0.1516
  680loPI    C110865   7.344  13.185   4.566  0.1002 -0.1810  0.0628
  680loPI    C210866   7.115  13.076   4.257  0.0499 -0.0896  0.0676
  680loPI    C310867   7.337  13.408   4.234  0.0367 -0.0760  0.1342
  680loPI   PO410868   7.211  13.097   4.760 -0.0283  0.2682  0.0830
  680loPI   GL110869   7.145  13.404   5.107  0.2049 -0.0056 -0.0285
  680loPI   GL210870   6.957  13.740   5.157  0.1759  0.0870  0.1043
  680loPI   C1A10871   7.007  13.186   5.544  0.2342 -0.2572 -0.0217
  680loPI   C2A10872   7.112  13.224   5.955  0.0022 -0.1179 -0.4583
  680loPI   C3A10873   7.167  13.295   6.264 -0.0413  0.2926 -0.0501
  680loPI   C4A10874   7.321  13.064   6.535  0.2634 -0.0473  0.0253
  680loPI   C5A10875   7.566  12.805   6.684 -0.1914 -0.1659 -0.0660
  680loPI   C6A10876   7.645  12.554   6.966  0.0902 -0.4623 -0.1772
  680loPI   C1B10877   6.784  13.825   5.562  0.1047 -0.1256 -0.0520
  680loPI   C2B10878   6.496  13.814   5.780  0.2202  0.3301 -0.1075
  680loPI   C3B10879   6.338  13.902   6.044 -0.1342  0.1127 -0.2160
  680loPI   C4B10880   6.034  14.186   6.320  0.2490 -0.0722  0.2427
  681loPI    C110881  14.763   9.426   4.271  0.3533 -0.1987  0.2026
  681loPI    C210882  14.535   9.319   3.960  0.1235  0.4391  0.1365
  681loPI    C310883  14.500   9.127   4.309 -0.0907  0.1479 -0.0402
  681loPI   PO410884  14.749   9.672   4.358  0.1636 -0.2601  0.0269
  681loPI   GL110885  14.470   9.647   4.663  0.0916  0.0495 -0.0516
  681loPI   GL210886  14.301   9.358   4.722 -0.1478  0.0596 -0.1635
  681loPI   C1A10887  14.728   9.633   5.055  0.1270 -0.1581 -0.4023
  681loPI   C2A10888  14.895   9.660   5.394  0.2653  0.2053  0.3338
  681loPI   C3A10889  15.004   9.882   5.789  0.0763 -0.0099  0.0007
  681loPI   C4A10890  15.346  10.137   6.037 -0.1974 -0.2775  0.0244
  681loPI   C5A10891  15.758  10.224   6.158 -0.3168 -0.2196  0.3091
  681loPI   C6A10892  16.173  10.238   6.255  0.1448  0.0719 -0.1216
  681loPI   C1B10893  14.362   9.246   5.185  0.1367 -0.0533 -0.1873
  681loPI   C2B10894  14.729   9.204   5.589 -0.0088 -0.0859 -0.2765
  681loPI   C3B10895  14.909   8.889   5.843  0.4241 -0.0979 -0.0886
  681loPI   C4B10896  14.966   8.451   6.075  0.2300 -0.1080 -0.2419
  682loPI    C110897   1.822  14.995   4.101 -0.0766  0.3174 -0.1667
  682loPI    C210898   2.151  14.794   3.996 -0.3164 -0.1483 -0.0536
  682loPI    C310899   2.124  15.186   3.922  0.3213 -0.0702  0.0710
  682loPI   PO410900   1.728  14.896   4.324  0.2161 -0.2863 -0.0771
  682loPI   GL110901   1.876  14.789   4.744  0.2587  0.2402 -0.1886
  682loPI   GL210902   2.206  14.760   4.870 -0.0014  0.0518 -0.1788
  682loPI   C1A10903   1.808  14.923   5.128  0.3170  0.1084 -0.0151
  682loPI   C2A10904   1.603  15.073   5.465 -0.0363 -0.2071 -0.0157
  682loPI   C3A10905   1.413  15.126   5.896 -0.2052 -0.0366  0.1493
  682loPI   C4A10906   1.298  15.181   6.336 -0.0777  0.0701 -0.1155
  682loPI   C5A10907   1.229  15.597   6.192  0.0363  0.1323  0.0612
  682loPI   C6A10908   1.355  15.959   6.360 -0.0034 -0.1067 -0.3861
  682loPI   C1B10909   2.276  14.458   5.213 -0.1068  0.2633 -0.2282
  682loPI   C2B10910   2.252  14.317   5.699 -0.0229 -0.0495 -0.1377
  682loPI   C3B10911   2.239  14.122   6.118  0.0376  0.4952  0.1232
  682loPI   C4B10912   2.380  14.145   6.555  0.0800  0.0671  0.3485
  683loPI    C110913   9.270  10.262   4.572  0.0159  0.0571  0.1423
  683loPI    C210914   9.587  10.500   4.519  0.2061 -0.1895  0.1543
  683loPI    C310915   9.411  10.329   4.204  0.1820 -0.1779  0.1614
  683loPI   PO410916   9.376  10.154   4.799  0.0061  0.0685  0.2443
  683loPI   GL110917   9.320  10.098   5.210 -0.2160  0.0949 -0.4189
  683loPI   GL210918   9.713  10.038   5.226 -0.0128 -0.1773 -0.0648
  683loPI   C1A10919   9.286  10.337   5.522 -0.0141 -0.0296  0.0393
  683loPI   C2A10920   9.370  10.426   5.908  0.0008 -0.1396  0.0145
  683loPI   C3A10921   9.076  10.441   6.130  0.0345  0.2304  0.0710
  683loPI   C4A10922   9.234  10.504   6.539  0.1819 -0.2721 -0.0979
  683loPI   C5A10923   9.497  10.478   6.893  0.0533 -0.2613 -0.1041
  683loPI   C6A10924   9.434  10.515   7.270  0.2467 -0.0731 -0.4569
  683loPI   C1B10925   9.860  10.409   5.215  0.2235  0.2205 -0.1422
  683loPI   C2B10926   9.848  10.689   5.638  0.1883 -0.1970  0.3737
  683loPI   C3B10927   9.514  10.886   5.840 -0.0529  0.2221  0.0750
  683loPI   C4B10928   9.297  11.151   5.648 -0.0223 -0.0483  0.0100
  684loPI    C110929  19.714   9.440   4.239 -0.0002 -0.2230  0.1516
  684loPI    C210930  19.982   9.544   3.961 -0.1895 -0.3867 -0.0954
  684loPI    C310931  19.634   9.740   3.987  0.0081 -0.0787  0.3190
  684loPI   PO410932  19.682   9.232   4.259 -0.3158  0.1504 -0.0690
  684loPI   GL110933  19.632   8.895   4.523 -0.1993 -0.4023 -0.0237
  684loPI   GL210934  20.002   8.903   4.684 -0.0277  0.0862 -0.0196
  684loPI   C1A10935  19.612   8.774   4.994  0.2244 -0.0050  0.2298
  684loPI   C2A10936  19.395   8.855   5.363  0.0578 -0.2025  0.0740
  684loPI   C3A10937  19.267   8.847   5.811 -0.2516 -0.2811  0.4624
  684loPI   C4A10938  19.167   9.041   6.237  0.1251 -0.1031  0.0037
  684loPI   C5A10939  19.325   9.435   6.523  0.2142 -0.0298  0.0755
  684loPI   C6A10940  19.363   9.654   6.846 -0.1458  0.0910  0.0645
  684loPI   C1B10941  19.944   9.223   4.960 -0.1476  0.3793 -0.2859
  684loPI   C2B10942  19.715   9.603   5.136  0.3519  0.2202  0.1398
  684loPI   C3B10943  19.571  10.010   5.066 -0.1967 -0.1393  0.0466
  684loPI   C4B10944  19.428  10.299   5.290 -0.1915 -0.1011 -0.1527
  685loPI    C110945   8.969  16.717   4.658  0.2780 -0.0670 -0.0375
  685loPI    C210946   9.122  17.025   4.453 -0.0140  0.0987 -0.0111
  685loPI    C310947   8.840  16.795   4.287  0.4233 -0.3535 -0.1520
  685loPI   PO410948   9.205  16.610   4.737 -0.0518  0.2497  0.0701
  685loPI   GL110949   9.178  16.518   5.093 -0.3984  0.5754  0.1082
  685loPI   GL210950   9.235  16.196   5.135  0.0541  0.0620  0.2807
  685loPI   C1A10951   9.092  16.836   5.326 -0.1880  0.0921 -0.0745
  685loPI   C2A10952   8.977  17.112   5.536 -0.1106  0.4464  0.2095
  685loPI   C3A10953   8.736  17.214   5.860 -0.1887  0.1195 -0.0342
  685loPI   C4A10954   8.448  17.211   6.179  0.0488 -0.1785  0.0696
  685loPI   C5A10955   8.268  17.529   6.227 -0.0660  0.2543  0.1578
  685loPI   C6A10956   7.803  17.427   6.175  0.0437 -0.3737  0.6470
  685loPI   C1B10957   9.530  16.420   5.373 -0.0339 -0.5404 -0.4738
  685loPI   C2B10958   9.473  16.616   5.762 -0.0137  0.2117  0.0265
  685loPI   C3B10959   9.598  16.760   6.214  0.0164 -0.3196 -0.0827
  685loPI   C4B10960   9.661  16.730   6.587  0.1063 -0.3178  0.4468
  686loPI    C110961   0.007   0.137   4.054 -0.3144 -0.0409 -0.3822
  686loPI    C210962  -0.072   0.497   3.899  0.0580  0.1929 -0.0498
  686loPI    C310963   0.268   0.310   3.804 -0.0560  0.0027 -0.0887
  686loPI   PO410964  -0.141   0.236   4.319 -0.0308  0.2497 -0.1804
  686loPI   GL110965  -0.245   0.150   4.724 -0.1551 -0.1077  0.0648
  686loPI   GL210966  -0.135  -0.022   4.984  0.2799 -0.2284 -0.0363
  686loPI   C1A10967  -0.366   0.408   5.097  0.3647  0.1738  0.0913
  686loPI   C2A10968  -0.274   0.397   5.566 -0.1285 -0.3601 -0.0530
  686loPI   C3A10969  -0.430   0.224   5.868 -0.1477  0.0881 -0.1203
  686loPI   C4A10970  -0.432  -0.008   6.248 -0.3447 -0.2586  0.1911
  686loPI   C5A10971  -0.158   0.160   6.506  0.3866  0.3918 -0.0569
  686loPI   C6A10972   0.235   0.098   6.845  0.2093  0.2800  0.0632
  686loPI   C1B10973  -0.432  -0.158   5.209  0.1575 -0.2286 -0.0550
  686loPI   C2B10974  -0.438  -0.320   5.608  0.0041  0.0598 -0.1959
  686loPI   C3B10975  -0.295  -0.434   6.095  0.2109 -0.2112 -0.0079
  686loPI   C4B10976  -0.178  -0.369   6.532  0.1924  0.0780  0.3313
  687loPI    C110977  17.409   7.762   3.689  0.1237  0.0674 -0.1679
  687loPI    C210978  17.803   7.690   3.677  0.1091 -0.0723  0.1018
  687loPI    C310979  17.659   8.041   3.548  0.3419  0.0549  0.1813
  687loPI   PO410980  17.276   7.772   3.840  0.1463 -0.0783  0.0902
  687loPI   GL110981  17.310   7.754   4.296  0.2354  0.1741 -0.0529
  687loPI   GL210982  17.073   8.068   4.199 -0.1005 -0.1265  0.0866
  687loPI   C1A10983  17.552   7.743   4.737 -0.1590 -0.2459  0.1079
  687loPI   C2A10984  17.569   7.708   5.163  0.1672 -0.1506  0.0960
  687loPI   C3A10985  17.608   7.700   5.546 -0.1272 -0.1520  0.1191
  687loPI   C4A10986  17.558   7.761   5.984 -0.2671 -0.1763  0.0323
  687loPI   C5A10987  17.330   7.975   6.321  0.0087  0.4941  0.0479
  687loPI   C6A10988  17.423   8.411   6.557  0.0460 -0.1014 -0.0306
  687loPI   C1B10989  16.809   8.247   4.589 -0.1190  0.3498 -0.1501
  687loPI   C2B10990  16.878   8.253   5.057 -0.0274  0.2630  0.3502
  687loPI   C3B10991  16.942   8.096   5.499  0.2735 -0.0862 -0.0762
  687loPI   C4B10992  17.254   8.146   5.798  0.0370 -0.1016  0.1543
  688loPI    C110993  14.874  19.257   4.140 -0.0275  0.0954 -0.1188
  688loPI    C210994  14.952  18.894   4.287 -0.1305  0.1409  0.0518
  688loPI    C310995  15.216  19.073   4.045 -0.1269 -0.0904 -0.1193
  688loPI   PO410996  14.711  19.350   4.355  0.0798  0.0115  0.1446
  688loPI   GL110997  14.630  19.547   4.724 -0.2730  0.0750  0.0295
  688loPI   GL210998  14.807  19.840   4.667 -0.1148 -0.3769  0.1107
  688loPI   C1A10999  14.659  19.425   5.087 -0.1144 -0.0288  0.0292
  688loPI   C2A11000  14.827  19.465   5.464 -0.2204  0.1406  0.3283
  688loPI   C3A11001  14.865  19.485   5.924  0.1334 -0.3584 -0.0605
  688loPI   C4A11002  14.856  19.739   6.283  0.1831  0.1424 -0.0455
  688loPI   C5A11003  14.906  20.008   6.600 -0.2132  0.1694 -0.4237
  688loPI   C6A11004  14.733  20.323   6.809  0.0658 -0.1148 -0.1154
  688loPI   C1B11005  14.644  20.005   5.036  0.1240 -0.2880 -0.0021
  688loPI   C2B11006  14.462  19.856   5.396 -0.2872 -0.1778  0.0216
  688loPI   C3B11007  14.561  19.796   5.820  0.4560 -0.2439  0.1557
  688loPI   C4B11008  14.477  19.452   6.152 -0.1568 -0.1713  0.0575
  689loPI    C111009  14.773  15.471   3.731 -0.2579  0.0256 -0.0346
  689loPI    C211010  14.988  15.232   3.494  0.0780  0.1973  0.0899
  689loPI    C311011  14.726  15.488   3.334  0.0204  0.0421 -0.0686
  689loPI   PO411012  14.993  15.497   3.939 -0.0803 -0.1236 -0.2379
  689loPI   GL111013  15.210  15.520   4.466 -0.1841  0.0715  0.1749
  689loPI   GL211014  15.000  15.363   4.800  0.0295 -0.1098  0.3519
  689loPI   C1A11015  15.502  15.508   4.839 -0.0485  0.3132 -0.0994
  689loPI   C2A11016  15.630  15.265   5.231 -0.4684 -0.3551 -0.0001
  689loPI   C3A11017  15.614  15.189   5.708  0.2723  0.1114  0.1243
  689loPI   C4A11018  15.506  15.048   6.169 -0.0040 -0.0143  0.0089
  689loPI   C5A11019  15.312  14.811   6.403  0.0448 -0.0043  0.3043
  689loPI   C6A11020  15.280  14.488   6.721  0.0002  0.2237  0.0584
  689loPI   C1B11021  15.111  15.046   5.005  0.3719 -0.1872  0.1662
  689loPI   C2B11022  15.122  14.659   5.121  0.1159 -0.1202  0.1895
  689loPI   C3B11023  15.398  14.310   5.268  0.5018 -0.2091  0.1031
  689loPI   C4B11024  15.603  14.269   5.591  0.0584 -0.1384  0.1014
  690loPI    C111025   4.328   7.499   4.266  0.2613  0.2289 -0.0586
  690loPI    C211026   4.065   7.691   4.033  0.0578  0.0195 -0.0046
  690loPI    C311027   4.194   7.325   3.932 -0.0572 -0.0866  0.2248
  690loPI   PO411028   4.185   7.467   4.441 -0.3924  0.3507  0.0831
  690loPI   GL111029   3.848   7.199   4.710 -0.0171 -0.3682 -0.2093
  690loPI   GL211030   3.961   7.001   4.980  0.0434 -0.0508 -0.1097
  690loPI   C1A11031   3.673   7.465   4.907 -0.2140 -0.0985  0.0386
  690loPI   C2A11032   3.794   7.587   5.388  0.1281 -0.0779  0.1181
  690loPI   C3A11033   3.780   7.773   5.838  0.0848  0.0368  0.2789
  690loPI   C4A11034   3.915   7.889   6.172  0.0061  0.1852 -0.1310
  690loPI   C5A11035   4.048   8.084   6.442 -0.0290  0.1070  0.3470
  690loPI   C6A11036   3.789   8.058   6.867  0.0411 -0.4538  0.1325
  690loPI   C1B11037   3.796   7.058   5.393  0.0118 -0.0339 -0.2680
  690loPI   C2B11038   3.478   7.082   5.672 -0.1742  0.1109 -0.0767
  690loPI   C3B11039   3.471   7.336   5.978 -0.1636  0.2332  0.1654
  690loPI   C4B11040   3.469   7.623   6.359  0.2610 -0.1069 -0.3303
  691loPI    C111041  11.801  17.141   4.316  0.0022 -0.1908  0.2280
  691loPI    C211042  12.127  17.253   4.520 -0.0412 -0.0043  0.1971
  691loPI    C311043  11.998  17.474   4.213 -0.0911 -0.1775  0.0922
  691loPI   PO411044  11.631  17.076   4.534 -0.2769 -0.0404  0.0871
  691loPI   GL111045  11.726  16.943   4.880  0.1768 -0.0786 -0.0198
  691loPI   GL211046  11.624  17.259   4.977 -0.4774 -0.0865  0.0687
  691loPI   C1A11047  11.857  16.887   5.280 -0.0679  0.1325  0.1390
  691loPI   C2A11048  11.822  16.979   5.629  0.0061 -0.2470  0.1505
  691loPI   C3A11049  11.896  17.043   6.046  0.1673  0.0490  0.0579
  691loPI   C4A11050  11.925  17.219   6.458  0.0887  0.0042 -0.0124
  691loPI   C5A11051  11.723  17.376   6.860  0.2787  0.2200 -0.1168
  691loPI   C6A11052  11.698  17.443   7.302  0.0459 -0.1096  0.1240
  691loPI   C1B11053  11.643  17.357   5.338  0.2665  0.0222 -0.3446
  691loPI   C2B11054  11.833  17.564   5.683  0.2008 -0.2196  0.1293
  691loPI   C3B11055  11.994  17.593   6.108  0.0893  0.2812 -0.0136
  691loPI   C4B11056  11.773  17.770   6.446 -0.0090  0.0175 -0.0892
  692loPI    C111057  15.189   9.601   3.831  0.1321  0.2509 -0.0096
  692loPI    C211058  14.809   9.723   3.812 -0.0022 -0.1691 -0.1388
  692loPI    C311059  14.984   9.563   3.490  0.1905 -0.2471  0.0031
  692loPI   PO411060  15.213   9.457   4.056  0.1235  0.0993  0.2600
  692loPI   GL111061  15.256   9.346   4.477 -0.1867  0.0341 -0.2651
  692loPI   GL211062  14.932   9.278   4.694  0.2222  0.0925 -0.3516
  692loPI   C1A11063  15.217   9.708   4.820 -0.2557  0.2477  0.0533
  692loPI   C2A11064  15.212  10.006   5.191 -0.0333 -0.1653 -0.0120
  692loPI   C3A11065  15.282  10.341   5.484  0.2124 -0.0522 -0.2283
  692loPI   C4A11066  15.345  10.562   5.782 -0.0778  0.3607  0.0052
  692loPI   C5A11067  15.505  10.696   6.173 -0.1194  0.1792  0.0919
  692loPI   C6A11068  15.333  10.703   6.568  0.0673  0.1444 -0.0045
  692loPI   C1B11069  15.001   9.195   5.158 -0.1829  0.2062  0.0072
  692loPI   C2B11070  15.320   9.046   5.413  0.1367 -0.1334 -0.1433
  692loPI   C3B11071  15.320   8.612   5.638  0.1729  0.1511 -0.0947
  692loPI   C4B11072  15.017   8.372   5.596  0.0483  0.1792  0.0084
  693loPI    C111073  18.364   2.157   3.819  0.2426 -0.0954  0.0563
  693loPI    C211074  18.079   2.401   3.681 -0.0089 -0.3149  0.1789
  693loPI    C311075  18.330   2.223   3.426  0.3040  0.2169  0.1003
  693loPI   PO411076  18.387   2.395   4.082 -0.0578 -0.2478  0.2851
  693loPI   GL111077  18.303   2.370   4.576 -0.4608 -0.1521  0.1124
  693loPI   GL211078  18.163   2.033   4.608  0.0915 -0.3403 -0.2538
  693loPI   C1A11079  18.484   2.563   4.946  0.1490  0.3893  0.3522
  693loPI   C2A11080  18.510   2.549   5.371  0.2491 -0.3710 -0.0421
  693loPI   C3A11081  18.515   2.474   5.736 -0.1221 -0.2661 -0.0182
  693loPI   C4A11082  18.586   2.646   6.104 -0.2401 -0.0198 -0.3532
  693loPI   C5A11083  18.614   2.697   6.486 -0.3866 -0.0897 -0.0441
  693loPI   C6A11084  18.625   3.032   6.730 -0.0276  0.1933 -0.3893
  693loPI   C1B11085  18.573   2.093   4.855  0.1471 -0.1524  0.0761
  693loPI   C2B11086  18.603   2.034   5.304  0.0397  0.1817 -0.1128
  693loPI   C3B11087  18.656   2.015   5.732  0.1810 -0.1969  0.1182
  693loPI   C4B11088  18.772   1.890   6.186  0.1437 -0.0408  0.0660
  694loPI    C111089  11.655  16.025   4.514 -0.0321 -0.1042 -0.0384
  694loPI    C211090  11.784  16.234   4.198 -0.1661 -0.0361 -0.0486
  694loPI    C311091  11.393  16.218   4.282 -0.1634 -0.3305 -0.0807
  694loPI   PO411092  11.839  16.152   4.697  0.3028  0.2715  0.0353
  694loPI   GL111093  11.757  16.116   5.090  0.1361  0.1069  0.0097
  694loPI   GL211094  11.805  16.463   5.082 -0.0772 -0.1553  0.2081
  694loPI   C1A11095  12.046  16.161   5.420 -0.2776 -0.1653 -0.0135
  694loPI   C2A11096  12.098  16.158   5.774  0.1269  0.1775 -0.1318
  694loPI   C3A11097  12.157  16.186   6.244 -0.0649 -0.0317  0.2630
  694loPI   C4A11098  12.455  15.959   6.495 -0.1649  0.0591  0.0985
  694loPI   C5A11099  12.523  16.133   6.923 -0.0965 -0.0044 -0.0675
  694loPI   C6A11100  12.351  16.161   7.232  0.1525 -0.2322 -0.1485
  694loPI   C1B11101  11.601  16.487   5.574  0.0459  0.0882 -0.0260
  694loPI   C2B11102  11.363  16.626   5.941 -0.1191 -0.0131  0.0710
  694loPI   C3B11103  11.002  16.544   6.223  0.1370 -0.0399 -0.2805
  694loPI   C4B11104  10.554  16.654   6.230  0.0094 -0.3490 -0.0747
  695loPI    C111105   6.935   6.077   4.644 -0.0101 -0.1992 -0.0452
  695loPI    C211106   6.582   6.109   4.459 -0.1637 -0.3600  0.2148
  695loPI    C311107   6.899   5.967   4.261 -0.1556  0.1081 -0.1228
  695loPI   PO411108   6.821   6.263   4.884  0.1107  0.2299  0.0406
  695loPI   GL111109   6.584   6.528   5.130 -0.0948 -0.1372  0.3173
  695loPI   GL211110   6.512   6.260   5.303  0.3285  0.1773 -0.4658
  695loPI   C1A11111   6.373   6.677   5.540 -0.1083  0.1263  0.0694
  695loPI   C2A11112   6.123   6.904   5.821 -0.2605 -0.0527  0.1876
  695loPI   C3A11113   6.102   6.976   6.260  0.0994 -0.0258  0.1146
  695loPI   C4A11114   6.211   6.922   6.728 -0.1876 -0.1068  0.0240
  695loPI   C5A11115   6.354   6.726   7.097 -0.1602 -0.1312  0.1779
  695loPI   C6A11116   6.637   6.879   7.419 -0.0515  0.1602 -0.4467
  695loPI   C1B11117   6.638   5.951   5.622 -0.0521  0.0205 -0.0395
  695loPI   C2B11118   6.436   5.675   5.936 -0.1597  0.2294 -0.3982
  695loPI   C3B11119   6.255   5.528   6.360  0.0170 -0.1891  0.1128
  695loPI   C4B11120   5.953   5.420   6.721  0.0460  0.3656 -0.4441
  696loPI    C111121  10.879  17.402   4.633  0.0689  0.0898  0.0134
  696loPI    C211122  10.745  17.026   4.612  0.2402  0.0312 -0.0492
  696loPI    C311123  10.787  17.242   4.278  0.1029  0.1207 -0.0095
  696loPI   PO411124  10.720  17.481   4.802  0.0178  0.1918  0.0078
  696loPI   GL111125  10.578  17.468   5.259 -0.2997 -0.1031 -0.1567
  696loPI   GL211126  10.248  17.398   5.100 -0.0782 -0.0980 -0.1403
  696loPI   C1A11127  10.424  17.599   5.690 -0.0236  0.2853 -0.1060
  696loPI   C2A11128  10.177  17.482   6.124 -0.1658 -0.1515 -0.1818
  696loPI   C3A11129  10.069  17.452   6.637  0.0399  0.1462  0.2643
  696loPI   C4A11130   9.721  17.432   6.906 -0.1138  0.0487  0.2651
  696loPI   C5A11131   9.447  17.442   7.217  0.0890  0.1954  0.2948
  696loPI   C6A11132   9.400  17.415   7.709  0.2091  0.1062 -0.0012
  696loPI   C1B11133   9.945  17.405   5.397 -0.0719 -0.3709 -0.1811
  696loPI   C2B11134   9.915  17.213   5.782  0.2136 -0.2373 -0.2240
  696loPI   C3B11135   9.737  17.295   6.149 -0.0802  0.1737  0.0229
  696loPI   C4B11136   9.599  17.639   6.428 -0.0179 -0.1304  0.0872
  697loPI    C111137  15.834  11.044   3.655 -0.0199 -0.0330 -0.0849
  697loPI    C211138  15.547  10.767   3.645 -0.0852  0.0287  0.0512
  697loPI    C311139  15.823  10.778   3.357 -0.3068  0.0628 -0.1633
  697loPI   PO411140  15.686  11.220   3.943 -0.0630  0.3002  0.1510
  697loPI   GL111141  15.582  11.358   4.310 -0.2771  0.0683 -0.2742
  697loPI   GL211142  15.469  11.717   4.341  0.1421  0.3602 -0.1444
  697loPI   C1A11143  15.605  11.383   4.763  0.1272  0.4069 -0.0713
  697loPI   C2A11144  15.605  11.207   5.213  0.0297 -0.1046  0.1685
  697loPI   C3A11145  15.670  11.112   5.612 -0.0541 -0.0832  0.1330
  697loPI   C4A11146  15.665  11.170   6.081  0.0129  0.2338  0.3636
  697loPI   C5A11147  15.306  11.192   6.381  0.0222 -0.0701  0.1951
  697loPI   C6A11148  14.882  11.342   6.421  0.3350  0.5186 -0.2739
  697loPI   C1B11149  15.862  12.021   4.487  0.0191 -0.0416 -0.0709
  697loPI   C2B11150  16.221  12.029   4.743  0.1586  0.4434  0.0511
  697loPI   C3B11151  16.499  11.884   5.112  0.0818  0.0778 -0.1501
  697loPI   C4B11152  16.788  12.046   5.369  0.2154  0.3093 -0.0236
  698loPI    C111153   6.494   9.349   4.638 -0.0736 -0.1328  0.0403
  698loPI    C211154   6.273   9.038   4.518 -0.2888  0.0447 -0.0295
  698loPI    C311155   6.431   9.286   4.248 -0.6254  0.3432  0.0396
  698loPI   PO411156   6.605   9.229   4.946 -0.0860 -0.0391 -0.0620
  698loPI   GL111157   6.909   9.157   5.191 -0.0717 -0.2960  0.1824
  698loPI   GL211158   6.629   8.990   5.384  0.0520 -0.0028 -0.0630
  698loPI   C1A11159   7.308   9.146   5.456  0.2000 -0.0032  0.1219
  698loPI   C2A11160   7.614   8.997   5.776 -0.0264 -0.2082 -0.0563
  698loPI   C3A11161   7.990   8.659   5.839  0.1871  0.1050 -0.4037
  698loPI   C4A11162   7.998   8.240   6.118  0.0843  0.0764 -0.3337
  698loPI   C5A11163   8.020   8.134   6.498 -0.2856 -0.3547 -0.2237
  698loPI   C6A11164   7.796   8.425   6.602 -0.3622  0.0653 -0.0544
  698loPI   C1B11165   6.716   8.757   5.664  0.0951 -0.0490  0.1278
  698loPI   C2B11166   6.880   8.443   5.890  0.3058 -0.0532 -0.1310
  698loPI   C3B11167   7.046   8.423   6.301  0.0518  0.4154 -0.2122
  698loPI   C4B11168   7.329   8.620   6.547  0.0682 -0.2632 -0.1040
  699loPI    C111169  16.290  17.608   4.316  0.0904  0.2042  0.1279
  699loPI    C211170  16.287  17.343   4.016 -0.1026  0.0653  0.2505
  699loPI    C311171  16.047  17.662   4.003 -0.0011  0.1396  0.1876
  699loPI   PO411172  16.494  17.665   4.324 -0.1301 -0.0806 -0.1441
  699loPI   GL111173  16.773  17.700   4.622  0.4884 -0.1705  0.1241
  699loPI   GL211174  17.101  17.754   4.572 -0.2795  0.0761 -0.2650
  699loPI   C1A11175  16.674  17.409   4.984 -0.1165 -0.2134  0.0281
  699loPI   C2A11176  16.578  17.541   5.405  0.0356  0.0193 -0.0974
  699loPI   C3A11177  16.379  17.882   5.678  0.2479 -0.2486  0.0310
  699loPI   C4A11178  16.391  18.066   6.049 -0.0554  0.1602  0.0685
  699loPI   C5A11179  16.175  18.463   6.226  0.2271  0.1101 -0.3354
  699loPI   C6A11180  16.210  18.846   6.516 -0.0222 -0.1553  0.0447
  699loPI   C1B11181  17.203  17.746   4.939 -0.1075  0.0542  0.1264
  699loPI   C2B11182  17.069  17.657   5.249 -0.0717 -0.1038 -0.0405
  699loPI   C3B11183  17.287  17.636   5.732 -0.0084  0.0441 -0.3022
  699loPI   C4B11184  17.557  17.408   6.067 -0.0443  0.1738 -0.1466
  700loPI    C111185   8.766   7.814   4.488  0.1727  0.0211  0.0315
  700loPI    C211186   8.439   7.829   4.259 -0.1259  0.0421  0.4472
  700loPI    C311187   8.738   8.087   4.197 -0.0635 -0.1486 -0.1087
  700loPI   PO411188   8.613   7.666   4.696  0.2240  0.2913  0.2016
  700loPI   GL111189   8.770   7.481   5.063 -0.0830  0.0153 -0.0557
  700loPI   GL211190   9.043   7.385   5.065 -0.3613 -0.1972  0.0975
  700loPI   C1A11191   8.605   7.539   5.475 -0.5905 -0.2574 -0.2870
  700loPI   C2A11192   8.849   7.535   5.905  0.3349 -0.1414  0.1994
  700loPI   C3A11193   9.281   7.636   6.138  0.1093  0.0544 -0.2617
  700loPI   C4A11194   9.621   7.781   6.553 -0.1602 -0.1309  0.3270
  700loPI   C5A11195  10.007   7.859   6.821  0.2108  0.2590  0.3447
  700loPI   C6A11196  10.375   8.052   7.086 -0.1425  0.1830  0.1286
  700loPI   C1B11197   9.011   7.125   5.432  0.3361  0.1362 -0.2235
  700loPI   C2B11198   9.295   7.166   5.887 -0.2529 -0.0162 -0.0590
  700loPI   C3B11199   9.344   6.830   6.196  0.2519 -0.3265 -0.0171
  700loPI   C4B11200   9.422   6.591   6.627  0.1740 -0.1517 -0.0412
  701loPI    C111201   7.732  10.621   4.954  0.0376 -0.0951  0.1885
  701loPI    C211202   7.350  10.615   4.837  0.1087 -0.1420 -0.0478
  701loPI    C311203   7.579  10.932   4.755  0.1137 -0.1015  0.1192
  701loPI   PO411204   7.774  10.574   5.151  0.0503 -0.3928 -0.1729
  701loPI   GL111205   7.939  10.407   5.409 -0.2839 -0.0413 -0.1312
  701loPI   GL211206   7.656  10.616   5.606 -0.0406 -0.0707 -0.1637
  701loPI   C1A11207   8.062  10.355   5.819  0.0117  0.2190  0.0595
  701loPI   C2A11208   8.144  10.215   6.206  0.2258  0.1244 -0.0788
  701loPI   C3A11209   8.314  10.045   6.628  0.0873 -0.0440 -0.2425
  701loPI   C4A11210   8.465   9.677   6.862  0.0000 -0.0345 -0.1463
  701loPI   C5A11211   8.947   9.651   6.964  0.0711  0.1024 -0.0800
  701loPI   C6A11212   9.096   9.351   7.168 -0.1060  0.0265  0.0373
  701loPI   C1B11213   7.853  10.716   6.060  0.1166  0.0459  0.0581
  701loPI   C2B11214   7.900  10.921   6.457 -0.0377 -0.2473 -0.1306
  701loPI   C3B11215   7.970  10.978   6.914 -0.1604 -0.1237 -0.1253
  701loPI   C4B11216   8.034  10.663   7.211  0.1273  0.3380  0.1522
  702loPI    C111217   1.479  16.092   4.700 -0.1346 -0.0453  0.1509
  702loPI    C211218   1.633  16.459   4.655  0.1274 -0.2009 -0.2873
  702loPI    C311219   1.341  16.333   4.412 -0.1384 -0.1989  0.0232
  702loPI   PO411220   1.622  15.923   4.662 -0.0253 -0.1907  0.0220
  702loPI   GL111221   1.773  15.843   5.133  0.3857 -0.1349  0.4395
  702loPI   GL211222   1.930  15.987   5.296  0.1976  0.3387 -0.0922
  702loPI   C1A11223   1.770  15.542   5.513 -0.0161  0.1428 -0.1383
  702loPI   C2A11224   1.759  15.571   6.040  0.1018 -0.2166 -0.0789
  702loPI   C3A11225   1.674  15.585   6.504 -0.0909 -0.0393  0.0406
  702loPI   C4A11226   1.565  15.929   6.865  0.2682  0.1533 -0.1004
  702loPI   C5A11227   1.461  16.347   7.088  0.0923  0.1120 -0.0143
  702loPI   C6A11228   1.262  16.661   7.227  0.0141  0.1606  0.1754
  702loPI   C1B11229   2.032  15.955   5.741 -0.4558 -0.1799 -0.0702
  702loPI   C2B11230   2.217  15.723   6.018  0.0360 -0.1426  0.0918
  702loPI   C3B11231   2.155  15.594   6.486 -0.0481 -0.0721  0.1858
  702loPI   C4B11232   2.418  15.724   6.805 -0.1227  0.1747 -0.0126
  703loPI    C111233   4.430   3.430   4.474 -0.1414  0.0048 -0.0138
  703loPI    C211234   4.213   3.767   4.479  0.0990  0.1611  0.0881
  703loPI    C311235   4.404   3.656   4.145 -0.2167 -0.0312 -0.0326
  703loPI   PO411236   4.597   3.447   4.744  0.0988 -0.0283  0.2867
  703loPI   GL111237   4.413   3.334   5.141  0.4639  0.3595  0.0149
  703loPI   GL211238   4.244   3.500   5.367 -0.4188 -0.3796  0.2003
  703loPI   C1A11239   4.757   3.406   5.481 -0.1161 -0.1409  0.0526
  703loPI   C2A11240   4.828   3.412   5.875  0.3677 -0.1692  0.1083
  703loPI   C3A11241   5.145   3.538   6.177 -0.2038 -0.0862  0.2113
  703loPI   C4A11242   5.431   3.684   6.490 -0.0430  0.1653 -0.0974
  703loPI   C5A11243   5.724   3.460   6.827  0.2255  0.0012  0.1208
  703loPI   C6A11244   5.847   3.125   7.115 -0.2900 -0.0241 -0.1078
  703loPI   C1B11245   4.350   3.638   5.913 -0.0588 -0.1879  0.0488
  703loPI   C2B11246   4.546   3.553   6.390  0.1078  0.1221 -0.0524
  703loPI   C3B11247   4.858   3.496   6.715  0.1342  0.0195 -0.0214
  703loPI   C4B11248   5.263   3.510   6.961  0.2434  0.2089  0.0277
  704loPI    C111249   7.313   4.380   4.683  0.0654 -0.1503  0.1568
  704loPI    C211250   6.981   4.580   4.782 -0.0337 -0.1295 -0.2049
  704loPI    C311251   7.129   4.609   4.411  0.2651 -0.2913 -0.1012
  704loPI   PO411252   7.409   4.390   4.983 -0.1289  0.1580  0.1042
  704loPI   GL111253   7.385   4.799   5.352 -0.2534 -0.1795  0.0718
  704loPI   GL211254   7.498   4.432   5.455 -0.1881 -0.1556  0.4307
  704loPI   C1A11255   7.178   4.869   5.760 -0.0599 -0.2428  0.2278
  704loPI   C2A11256   7.481   4.694   6.189 -0.0208 -0.0162 -0.4087
  704loPI   C3A11257   7.803   4.568   6.543 -0.1193  0.3228 -0.2024
  704loPI   C4A11258   8.192   4.381   6.783  0.1046  0.0263 -0.0368
  704loPI   C5A11259   8.562   4.584   6.969  0.1195  0.1524 -0.1642
  704loPI   C6A11260   8.715   4.800   7.308 -0.3226 -0.0873  0.3758
  704loPI   C1B11261   7.282   4.406   5.872  0.0818 -0.2360  0.1305
  704loPI   C2B11262   7.096   4.360   6.250  0.0886 -0.0312 -0.0080
  704loPI   C3B11263   6.740   4.051   6.400  0.1866 -0.0090 -0.3020
  704loPI   C4B11264   6.381   3.886   6.523  0.0053  0.2192 -0.2276
  705loPI    C111265  10.713   7.144   4.381 -0.2044 -0.1370  0.0696
  705loPI    C211266  11.057   6.940   4.377 -0.1012  0.0254  0.3578
  705loPI    C311267  10.710   6.746   4.424 -0.0434 -0.1297  0.1567
  705loPI   PO411268  10.779   7.352   4.590  0.0090  0.0199  0.0516
  705loPI   GL111269  10.826   7.426   5.045  0.3043  0.3506 -0.1955
  705loPI   GL211270  11.209   7.537   5.097  0.1618  0.2592 -0.0508
  705loPI   C1A11271  10.877   7.395   5.376 -0.1013  0.1723  0.0626
  705loPI   C2A11272  10.690   7.483   5.784 -0.2346  0.3267 -0.3328
  705loPI   C3A11273  10.383   7.742   5.986 -0.0598  0.2320  0.0268
  705loPI   C4A11274  10.244   7.951   6.351  0.2305 -0.0784  0.1475
  705loPI   C5A11275  10.455   7.729   6.657 -0.0285  0.4264 -0.1892
  705loPI   C6A11276  10.807   7.757   6.904  0.0059 -0.4962 -0.0160
  705loPI   C1B11277  11.210   7.610   5.652  0.0710 -0.1415 -0.2685
  705loPI   C2B11278  11.171   7.595   6.028  0.1695 -0.1316 -0.0849
  705loPI   C3B11279  11.245   7.360   6.362 -0.1466 -0.1980 -0.2335
  705loPI   C4B11280  10.923   7.173   6.631 -0.0710  0.0359  0.1013
  706loPI    C111281   5.376   3.929   4.793  0.0418 -0.0621 -0.2381
  706loPI    C211282   5.305   4.223   4.531  0.0560  0.0966 -0.0652
  706loPI    C311283   5.336   3.846   4.403  0.1904  0.1881 -0.3091
  706loPI   PO411284   5.282   3.976   4.998 -0.0714 -0.0429  0.1792
  706loPI   GL111285   5.090   4.139   5.288  0.1030 -0.3208 -0.2683
  706loPI   GL211286   5.214   4.416   5.299 -0.0675 -0.4796 -0.0906
  706loPI   C1A11287   4.970   4.421   5.718  0.1122 -0.0128  0.1375
  706loPI   C2A11288   5.309   4.597   5.878 -0.1984 -0.0450 -0.0899
  706loPI   C3A11289   5.325   4.868   6.261 -0.0552 -0.1773  0.1663
  706loPI   C4A11290   5.174   4.934   6.639  0.1935 -0.0415  0.0246
  706loPI   C5A11291   4.962   4.822   7.034  0.5882 -0.3128  0.4621
  706loPI   C6A11292   5.048   4.508   7.356 -0.0042 -0.0636 -0.1873
  706loPI   C1B11293   5.408   4.213   5.656  0.4116  0.1402  0.0682
  706loPI   C2B11294   5.264   4.080   6.045 -0.2365  0.0462 -0.0303
  706loPI   C3B11295   5.277   4.364   6.351 -0.1528  0.1647 -0.0552
  706loPI   C4B11296   5.138   4.454   6.805 -0.1379  0.2781  0.0959
  707loPI    C111297   1.659   6.040   4.441 -0.0897  0.0752 -0.1141
  707loPI    C211298   2.048   5.950   4.431 -0.0916  0.0344  0.1359
  707loPI    C311299   1.795   5.722   4.642 -0.2779 -0.0332 -0.1546
  707loPI   PO411300   1.660   6.315   4.493  0.0578  0.1877  0.3487
  707loPI   GL111301   1.567   6.425   4.884 -0.0049  0.1452  0.1509
  707loPI   GL211302   1.159   6.367   4.911  0.2059 -0.2414 -0.0416
  707loPI   C1A11303   1.426   6.425   5.296  0.3996  0.0102  0.3937
  707loPI   C2A11304   1.353   6.162   5.644  0.1937 -0.0974  0.1228
  707loPI   C3A11305   1.318   6.392   6.060  0.1909 -0.3285  0.1245
  707loPI   C4A11306   1.664   6.459   6.214 -0.1963 -0.2637  0.1663
  707loPI   C5A11307   1.922   6.233   6.507 -0.2286 -0.0669 -0.0877
  707loPI   C6A11308   2.156   6.289   6.791  0.1429 -0.0448 -0.0473
  707loPI   C1B11309   0.940   6.257   5.219  0.1119 -0.2473  0.0814
  707loPI   C2B11310   0.870   6.083   5.660  0.2272 -0.1293 -0.1433
  707loPI   C3B11311   0.738   5.964   6.141  0.1480 -0.0667  0.0799
  707loPI   C4B11312   0.397   6.068   6.265 -0.2484  0.3021  0.0181
  708loPI    C111313   1.112  15.835   4.481  0.1332  0.0608 -0.1497
  708loPI    C211314   0.774  15.623   4.447  0.1111  0.0557  0.0895
  708loPI    C311315   1.062  15.501   4.696  0.1336  0.2601  0.1658
  708loPI   PO411316   0.944  16.119   4.581 -0.0088 -0.0577  0.0316
  708loPI   GL111317   0.843  16.011   5.000  0.4106 -0.2188  0.4208
  708loPI   GL211318   1.178  15.954   5.013  0.1761  0.1387  0.2065
  708loPI   C1A11319   0.827  16.092   5.421 -0.0773  0.1534 -0.0931
  708loPI   C2A11320   0.604  16.197   5.756 -0.1534 -0.0434 -0.0125
  708loPI   C3A11321   0.369  16.086   6.103 -0.3615 -0.0143 -0.0860
  708loPI   C4A11322   0.293  16.027   6.507  0.1027  0.0860 -0.0106
  708loPI   C5A11323  -0.022  15.688   6.611 -0.2197 -0.0543  0.1035
  708loPI   C6A11324  -0.400  15.412   6.596 -0.0795 -0.2605 -0.1578
  708loPI   C1B11325   1.300  15.930   5.478 -0.0290 -0.0319  0.2904
  708loPI   C2B11326   1.446  15.945   5.874  0.0553 -0.3801  0.0440
  708loPI   C3B11327   1.781  16.057   6.153 -0.2785 -0.0125 -0.0931
  708loPI   C4B11328   1.886  16.081   6.535 -0.1387  0.2189  0.1409
  709loPI    C111329  11.186  12.957   4.634  0.3496 -0.1376  0.0989
  709loPI    C211330  11.047  12.618   4.473 -0.1018  0.0744  0.0269
  709loPI    C311331  11.283  12.859   4.258  0.1020 -0.1205  0.0286
  709loPI   PO411332  11.298  12.856   4.908 -0.1774  0.0543  0.3697
  709loPI   GL111333  11.239  12.456   5.310 -0.1753 -0.1284 -0.1295
  709loPI   GL211334  10.903  12.321   5.304  0.0139  0.1781  0.0102
  709loPI   C1A11335  11.328  12.314   5.692  0.2243  0.1790 -0.2220
  709loPI   C2A11336  11.548  12.373   6.068 -0.1249 -0.0656 -0.1053
  709loPI   C3A11337  11.803  12.560   6.373 -0.2650  0.1893  0.2181
  709loPI   C4A11338  11.851  12.801   6.776 -0.1146  0.3536 -0.3048
  709loPI   C5A11339  11.980  12.634   7.249 -0.1234 -0.1962 -0.0204
  709loPI   C6A11340  12.274  12.631   7.659 -0.1581  0.2019 -0.2683
  709loPI   C1B11341  10.823  12.345   5.784  0.1008  0.2315 -0.1374
  709loPI   C2B11342  10.965  12.475   6.215  0.0705 -0.1558 -0.1117
  709loPI   C3B11343  11.275  12.337   6.525  0.3789 -0.1090 -0.2283
  709loPI   C4B11344  11.384  12.145   6.881  0.1331 -0.2980  0.2252
  710loPI    C111345  11.040  13.412   4.442 -0.1911 -0.2168 -0.0250
  710loPI    C211346  11.278  13.351   4.126 -0.0927  0.1814 -0.0321
  710loPI    C311347  10.884  13.286   4.096 -0.0180 -0.2813 -0.0808
  710loPI   PO411348  11.221  13.499   4.692  0.0100 -0.2356 -0.0772
  710loPI   GL111349  11.451  13.358   5.067  0.0353  0.1839  0.1559
  710loPI   GL211350  11.493  13.133   5.300 -0.1652  0.0882  0.0589
  710loPI   C1A11351  11.392  13.691   5.410 -0.2820  0.1319 -0.0628
  710loPI   C2A11352  11.176  13.742   5.835  0.1082  0.0496  0.3106
  710loPI   C3A11353  10.808  13.738   6.039 -0.2434  0.0686  0.1526
  710loPI   C4A11354  10.418  13.884   6.328  0.0738 -0.1860 -0.0181
  710loPI   C5A11355  10.056  13.637   6.617 -0.1282  0.1714 -0.1597
  710loPI   C6A11356   9.814  13.638   6.900 -0.1408 -0.1036 -0.1990
  710loPI   C1B11357  11.308  13.256   5.710  0.1682 -0.0064 -0.1058
  710loPI   C2B11358  11.584  13.529   5.928 -0.0677  0.0786 -0.1119
  710loPI   C3B11359  11.864  13.733   6.257  0.0490  0.0544  0.0671
  710loPI   C4B11360  11.705  13.866   6.592 -0.0983  0.3547  0.3713
  711loPI    C111361   0.716   5.431   4.068  0.0498  0.0906 -0.1589
  711loPI    C211362   0.433   5.317   3.809  0.0245  0.0332 -0.1063
  711loPI    C311363   0.695   5.602   3.707 -0.0675  0.1041 -0.1459
  711loPI   PO411364   0.654   5.493   4.310 -0.1958 -0.1732  0.3816
  711loPI   GL111365   0.802   5.682   4.698 -0.0200 -0.0469  0.3676
  711loPI   GL211366   0.866   5.950   4.825  0.2457 -0.1323  0.0549
  711loPI   C1A11367   0.875   5.507   5.106 -0.0773 -0.3846  0.0541
  711loPI   C2A11368   0.844   5.373   5.457 -0.3593  0.2780 -0.0334
  711loPI   C3A11369   0.860   5.198   5.917 -0.1773 -0.4905 -0.1405
  711loPI   C4A11370   0.671   5.310   6.356 -0.1080 -0.3294  0.1475
  711loPI   C5A11371   0.761   5.303   6.836 -0.2373  0.3342  0.0263
  711loPI   C6A11372   0.728   5.403   7.343  0.1855  0.1543  0.0016
  711loPI   C1B11373   0.563   5.907   5.180 -0.2765  0.1926 -0.1090
  711loPI   C2B11374   0.520   5.750   5.629 -0.3004  0.4429 -0.1626
  711loPI   C3B11375   0.520   5.590   5.946  0.0345 -0.1938 -0.0010
  711loPI   C4B11376   0.230   5.612   6.357  0.2302 -0.0009  0.2373
  712loPI    C111377  10.077   8.009   4.708 -0.1342  0.2092  0.0237
  712loPI    C211378   9.937   7.836   4.376 -0.1354 -0.0658  0.1641
  712loPI    C311379   9.683   7.984   4.647 -0.1370  0.0422  0.1045
  712loPI   PO411380  10.333   8.164   4.700 -0.1862  0.0601  0.2129
  712loPI   GL111381  10.545   8.348   5.000  0.0823 -0.0293  0.1680
  712loPI   GL211382  10.512   8.676   5.039  0.0969 -0.2347 -0.1271
  712loPI   C1A11383  10.452   8.296   5.426  0.3936  0.0926  0.2634
  712loPI   C2A11384  10.365   8.339   5.882 -0.0171 -0.0429  0.4167
  712loPI   C3A11385  10.472   8.437   6.213  0.2747  0.1835  0.2429
  712loPI   C4A11386  10.644   8.210   6.577 -0.1947  0.0845  0.3511
  712loPI   C5A11387  10.747   8.300   6.956 -0.1539  0.0678 -0.0254
  712loPI   C6A11388  10.795   8.334   7.422 -0.2043  0.1219  0.0137
  712loPI   C1B11389  10.621   8.820   5.399 -0.0337 -0.0373 -0.2397
  712loPI   C2B11390  10.589   8.831   5.842  0.1930 -0.0346 -0.1663
  712loPI   C3B11391  10.708   9.108   6.077 -0.2108  0.3539  0.1424
  712loPI   C4B11392  10.939   9.271   6.445  0.4187 -0.1687 -0.2605
  713loPI    C111393  16.868  13.153   4.235  0.2951  0.2225 -0.1619
  713loPI    C211394  16.935  13.261   3.855  0.2383 -0.0023 -0.2371
  713loPI    C311395  17.207  13.043   4.052 -0.0189 -0.4533 -0.3675
  713loPI   PO411396  16.550  13.279   4.223  0.0166 -0.1542 -0.0239
  713loPI   GL111397  16.205  13.186   4.453 -0.0225 -0.0036  0.2915
  713loPI   GL211398  16.164  12.911   4.211 -0.3608 -0.4140  0.0675
  713loPI   C1A11399  16.191  12.966   4.789  0.0580 -0.0173 -0.0147
  713loPI   C2A11400  16.031  12.760   5.090 -0.0007 -0.0071 -0.1228
  713loPI   C3A11401  15.942  12.658   5.494 -0.3722 -0.0002 -0.1009
  713loPI   C4A11402  16.156  12.408   5.821 -0.0325 -0.0932 -0.0165
  713loPI   C5A11403  16.261  12.244   6.254 -0.2279 -0.3154 -0.2535
  713loPI   C6A11404  16.565  12.152   6.338 -0.0169 -0.2377  0.2373
  713loPI   C1B11405  16.187  12.512   4.533 -0.3497 -0.1615  0.0865
  713loPI   C2B11406  16.454  12.447   4.864 -0.0118  0.0652  0.3446
  713loPI   C3B11407  16.837  12.552   5.035 -0.3671 -0.1011  0.4343
  713loPI   C4B11408  17.170  12.306   5.069  0.0078 -0.2474  0.2448
  714loPI    C111409   2.769  17.948   4.485 -0.0212 -0.1440  0.2221
  714loPI    C211410   2.439  18.010   4.268  0.1821  0.0812 -0.0292
  714loPI    C311411   2.770  18.221   4.193  0.4112 -0.2017  0.1634
  714loPI   PO411412   2.711  18.000   4.686  0.3671  0.1604 -0.0176
  714loPI   GL111413   2.663  18.236   5.083 -0.2623 -0.3042 -0.0252
  714loPI   GL211414   2.727  17.974   5.246  0.0002 -0.0740  0.0123
  714loPI   C1A11415   2.643  18.440   5.480  0.0217 -0.1200 -0.0117
  714loPI   C2A11416   2.915  18.487   5.872 -0.0391  0.0415 -0.1406
  714loPI   C3A11417   3.049  18.361   6.312 -0.4192 -0.0247  0.0131
  714loPI   C4A11418   3.021  18.594   6.635 -0.0088  0.0453  0.1797
  714loPI   C5A11419   2.918  19.088   6.799  0.1269  0.1939 -0.0992
  714loPI   C6A11420   3.003  19.348   7.184  0.0871  0.4745 -0.2904
  714loPI   C1B11421   2.787  17.946   5.654 -0.1716 -0.0649  0.3031
  714loPI   C2B11422   2.703  18.100   6.075  0.1254 -0.2693 -0.2204
  714loPI   C3B11423   2.690  18.056   6.499 -0.1802 -0.0668  0.0775
  714loPI   C4B11424   2.662  18.192   6.838  0.0363 -0.3063  0.0312
  715loPI    C111425   9.163  18.399   4.338 -0.2183 -0.0561  0.0927
  715loPI    C211426   9.005  18.035   4.388  0.2077 -0.2783 -0.1256
  715loPI    C311427   8.987  18.214   4.030  0.0895 -0.1264 -0.0449
  715loPI   PO411428   9.378  18.354   4.423  0.0405  0.0759  0.0760
  715loPI   GL111429   9.569  18.421   4.740 -0.0288 -0.1295 -0.0612
  715loPI   GL211430   9.747  18.707   4.620 -0.1743  0.2026  0.2346
  715loPI   C1A11431   9.440  18.609   5.079  0.1564 -0.1028  0.2915
  715loPI   C2A11432   9.621  18.830   5.516 -0.1550  0.1361  0.2840
  715loPI   C3A11433   9.835  19.047   5.822 -0.0486 -0.0169 -0.1790
  715loPI   C4A11434   9.785  18.966   6.350 -0.0644  0.0310  0.1982
  715loPI   C5A11435  10.015  18.956   6.812 -0.3479  0.0593  0.1679
  715loPI   C6A11436  10.077  18.660   7.148 -0.0298 -0.0052 -0.2130
  715loPI   C1B11437   9.790  18.928   5.002 -0.0000 -0.1298  0.1813
  715loPI   C2B11438   9.952  19.290   5.372 -0.0776  0.0063 -0.1731
  715loPI   C3B11439  10.085  19.455   5.732 -0.0664  0.3802 -0.1798
  715loPI   C4B11440  10.182  19.471   6.172 -0.2012  0.1056  0.0434
  716loPI    C111441  18.941  12.698   3.761  0.0737  0.0043  0.0640
  716loPI    C211442  19.275  12.496   3.673  0.0436 -0.0491  0.0716
  716loPI    C311443  18.922  12.366   3.539 -0.0076 -0.1530  0.3026
  716loPI   PO411444  19.082  12.791   4.073  0.1411 -0.0159  0.0593
  716loPI   GL111445  18.960  12.811   4.501 -0.1179  0.2429 -0.1838
  716loPI   GL211446  19.145  13.079   4.610  0.1570  0.3381 -0.1288
  716loPI   C1A11447  19.076  12.680   4.914  0.0983 -0.2706  0.1305
  716loPI   C2A11448  18.995  12.589   5.355  0.4507  0.2952 -0.0423
  716loPI   C3A11449  18.952  12.645   5.755 -0.2630 -0.4708 -0.0396
  716loPI   C4A11450  18.776  12.696   6.195 -0.0024  0.0516  0.0680
  716loPI   C5A11451  18.415  12.529   6.341  0.2836 -0.1305  0.1340
  716loPI   C6A11452  18.093  12.526   6.688  0.1103 -0.1785 -0.2160
  716loPI   C1B11453  18.927  13.171   5.055 -0.2255 -0.0362 -0.0562
  716loPI   C2B11454  19.038  13.127   5.538 -0.2333 -0.0234 -0.0685
  716loPI   C3B11455  19.227  12.978   6.009 -0.0490  0.1841  0.0748
  716loPI   C4B11456  19.280  12.700   6.311  0.1512 -0.1368 -0.0841
  717loPI    C111457  16.572  19.427   4.014  0.1595  0.0075  0.0947
  717loPI    C211458  16.612  19.064   4.178 -0.0544 -0.1501 -0.1919
  717loPI    C311459  16.580  19.102   3.781 -0.0286  0.1851 -0.1652
  717loPI   PO411460  16.503  19.630   4.228  0.1580  0.4977 -0.2361
  717loPI   GL111461  16.475  19.592   4.569  0.0588  0.2124  0.0411
  717loPI   GL211462  16.497  19.343   4.686  0.2179 -0.1366 -0.1433
  717loPI   C1A11463  16.361  19.840   4.998  0.0566 -0.1257  0.0561
  717loPI   C2A11464  16.627  20.143   5.217  0.0790  0.0739 -0.0300
  717loPI   C3A11465  16.621  20.124   5.634  0.1331 -0.2630  0.1161
  717loPI   C4A11466  16.631  20.214   6.071  0.4065  0.2100  0.2124
  717loPI   C5A11467  16.483  20.226   6.457  0.2248 -0.1639 -0.2625
  717loPI   C6A11468  16.617  20.280   6.884 -0.1855  0.1504  0.2188
  717loPI   C1B11469  16.540  19.143   4.983 -0.2763  0.2292  0.0629
  717loPI   C2B11470  16.672  19.039   5.494 -0.1632 -0.3085  0.0229
  717loPI   C3B11471  16.698  19.365   5.815 -0.2158 -0.0355  0.1807
  717loPI   C4B11472  16.701  19.721   6.077  0.3470  0.1127 -0.0154
  718loPI    C111473  16.773  17.225   3.996  0.0277 -0.3016  0.0926
  718loPI    C211474  16.946  17.585   3.976 -0.0580 -0.2635  0.0302
  718loPI    C311475  17.154  17.257   3.879  0.0213 -0.2315  0.0912
  718loPI   PO411476  16.694  17.221   4.314  0.1214 -0.2787 -0.1081
  718loPI   GL111477  16.617  16.933   4.628  0.3276 -0.3391 -0.0628
  718loPI   GL211478  16.990  16.945   4.676  0.0083  0.0725 -0.2127
  718loPI   C1A11479  16.755  16.530   4.639  0.3506  0.0839 -0.0426
  718loPI   C2A11480  16.784  16.180   4.925 -0.1617 -0.3326 -0.0622
  718loPI   C3A11481  16.590  16.322   5.303 -0.5217 -0.1614 -0.0189
  718loPI   C4A11482  16.339  16.588   5.527  0.1069  0.0065  0.2126
  718loPI   C5A11483  15.980  16.803   5.713  0.2063  0.1589 -0.1832
  718loPI   C6A11484  15.839  17.177   5.903 -0.1147 -0.0326  0.0325
  718loPI   C1B11485  17.056  17.071   5.043  0.1033 -0.0755  0.1277
  718loPI   C2B11486  17.362  17.288   5.442 -0.0783 -0.0538  0.1089
  718loPI   C3B11487  17.823  17.538   5.631  0.2292  0.0150  0.1340
  718loPI   C4B11488  18.048  17.534   6.023  0.0491  0.3000  0.1080
  719loPI    C111489   2.108   9.320   4.529  0.2571  0.2541 -0.1464
  719loPI    C211490   2.419   9.083   4.444  0.2096  0.0771  0.1582
  719loPI    C311491   2.177   8.993   4.749  0.0641  0.4040  0.1431
  719loPI   PO411492   2.230   9.583   4.531 -0.1356 -0.0220  0.1276
  719loPI   GL111493   2.088   9.921   4.798  0.0604  0.1265 -0.2026
  719loPI   GL211494   1.914  10.139   4.704  0.0307 -0.1521 -0.0262
  719loPI   C1A11495   2.048   9.792   5.189  0.0315 -0.1302  0.1283
  719loPI   C2A11496   2.044   9.463   5.421 -0.2170 -0.0363 -0.0377
  719loPI   C3A11497   1.913   9.574   5.819  0.4666 -0.0452  0.2971
  719loPI   C4A11498   1.993   9.452   6.140 -0.0983  0.3948 -0.1507
  719loPI   C5A11499   2.103   9.028   6.283  0.0437  0.0571 -0.0722
  719loPI   C6A11500   2.052   8.784   6.694 -0.3132  0.2078 -0.0061
  719loPI   C1B11501   1.694  10.359   5.100  0.1746 -0.1773  0.0626
  719loPI   C2B11502   1.735  10.602   5.459 -0.1082  0.1901  0.1397
  719loPI   C3B11503   1.880  10.416   5.879  0.0306  0.0761  0.0252
  719loPI   C4B11504   1.847   9.976   6.151 -0.0968 -0.1278 -0.0354
  720loPI    C111505  12.338  13.802   4.399 -0.3779 -0.1052 -0.1252
  720loPI    C211506  12.428  14.075   4.120 -0.1035  0.1474  0.2022
  720loPI    C311507  12.274  13.722   4.012  0.0752  0.2075 -0.2734
  720loPI   PO411508  12.057  13.842   4.566 -0.1180  0.1806 -0.2140
  720loPI   GL111509  12.070  13.985   5.015 -0.2037  0.1724 -0.0201
  720loPI   GL211510  11.804  13.732   5.168  0.1928  0.0844  0.0264
  720loPI   C1A11511  12.425  13.920   5.309  0.1269  0.1014  0.1758
  720loPI   C2A11512  12.504  13.811   5.745 -0.1053  0.2344 -0.1349
  720loPI   C3A11513  12.698  14.015   6.072 -0.2066  0.1053  0.1053
  720loPI   C4A11514  12.998  13.942   6.393  0.0196  0.1126  0.0827
  720loPI   C5A11515  12.856  13.762   6.797 -0.1463 -0.1581  0.0263
  720loPI   C6A11516  12.488  13.427   6.797  0.0876 -0.1795 -0.0993
  720loPI   C1B11517  11.874  13.999   5.497  0.2514  0.2232  0.1815
  720loPI   C2B11518  12.015  14.086   5.944 -0.0513  0.4284 -0.0267
  720loPI   C3B11519  12.137  14.202   6.257 -0.2704  0.4913 -0.0573
  720loPI   C4B11520  12.005  14.242   6.667 -0.2054 -0.1127 -0.2156
  721loPI    C111521   2.225   2.177   4.238  0.1394  0.0273 -0.0508
  721loPI    C211522   1.918   2.424   4.168  0.0278 -0.0922  0.0135
  721loPI    C311523   2.230   2.416   3.917 -0.1163 -0.1194 -0.1664
  721loPI   PO411524   2.104   2.233   4.560 -0.2399  0.0241  0.3322
  721loPI   GL111525   2.206   1.967   4.973  0.0193  0.4212 -0.1670
  721loPI   GL211526   2.550   1.948   5.122 -0.1018 -0.0101 -0.0432
  721loPI   C1A11527   2.205   1.864   5.437 -0.1094 -0.0328  0.1481
  721loPI   C2A11528   2.248   1.658   5.841 -0.0185 -0.3496 -0.0731
  721loPI   C3A11529   2.066   1.734   6.235  0.2818  0.3735  0.3974
  721loPI   C4A11530   1.989   1.833   6.684 -0.2873 -0.2048 -0.2164
  721loPI   C5A11531   1.657   1.720   7.019 -0.3717 -0.2095 -0.4928
  721loPI   C6A11532   1.806   1.702   7.477  0.0800 -0.0458 -0.1370
  721loPI   C1B11533   2.682   1.892   5.516  0.0389  0.1552  0.3588
  721loPI   C2B11534   2.739   1.895   5.966  0.2275  0.0944 -0.0040
  721loPI   C3B11535   2.912   1.864   6.312 -0.0332 -0.0061  0.2934
  721loPI   C4B11536   3.126   1.779   6.634 -0.0004 -0.2904 -0.0091
  722loPI    C111537   4.712  12.895   4.475  0.1627  0.0516 -0.1445
  722loPI    C211538   4.511  13.222   4.586  0.4532  0.1462  0.1137
  722loPI    C311539   4.660  13.195   4.216 -0.0234  0.0767 -0.0793
  722loPI   PO411540   4.954  12.914   4.645 -0.2365  0.2892 -0.1432
  722loPI   GL111541   5.041  12.858   5.139  0.1651 -0.1056  0.0688
  722loPI   GL211542   5.395  12.956   5.241 -0.0927  0.0318 -0.1291
  722loPI   C1A11543   5.023  12.935   5.548 -0.0839  0.4045  0.0351
  722loPI   C2A11544   5.012  12.924   5.960  0.2071  0.0058  0.1258
  722loPI   C3A11545   5.257  12.806   6.359 -0.2156  0.1593  0.3180
  722loPI   C4A11546   5.300  12.851   6.806 -0.1557 -0.1786  0.3345
  722loPI   C5A11547   5.064  12.683   7.243  0.0512 -0.0721  0.0498
  722loPI   C6A11548   4.872  12.450   7.551 -0.3393 -0.3357 -0.2624
  722loPI   C1B11549   5.486  12.727   5.618 -0.0678 -0.2357  0.0701
  722loPI   C2B11550   5.402  12.532   5.997 -0.2541 -0.0618  0.0380
  722loPI   C3B11551   5.410  12.305   6.389 -0.3263  0.0303 -0.0932
  722loPI   C4B11552   5.316  12.337   6.801  0.0224 -0.1023 -0.1596
  723loPI    C111553  15.754   9.541   3.913 -0.1404  0.0968 -0.1004
  723loPI    C211554  15.567   9.187   3.919 -0.2367  0.1488  0.0045
  723loPI    C311555  15.872   9.248   3.667  0.0450 -0.1433  0.2646
  723loPI   PO411556  15.740   9.617   4.183  0.4935  0.1728  0.0181
  723loPI   GL111557  15.894   9.580   4.594  0.4038  0.1521  0.1210
  723loPI   GL211558  16.059   9.440   4.674  0.0135  0.0551  0.0928
  723loPI   C1A11559  15.723   9.853   4.819  0.0821  0.1161 -0.1361
  723loPI   C2A11560  15.677  10.045   5.219 -0.2213 -0.2649 -0.0456
  723loPI   C3A11561  15.601   9.895   5.702  0.0680  0.0887 -0.0473
  723loPI   C4A11562  15.527   9.708   6.137 -0.0001  0.1546  0.0954
  723loPI   C5A11563  15.539   9.344   6.379 -0.0515  0.0590 -0.1347
  723loPI   C6A11564  15.532   9.193   6.836  0.4295 -0.1081 -0.3648
  723loPI   C1B11565  16.067   9.552   5.103 -0.1026 -0.4170  0.0178
  723loPI   C2B11566  16.032   9.770   5.506 -0.0918 -0.0620 -0.1015
  723loPI   C3B11567  16.091   9.906   5.852  0.1514 -0.1047 -0.1145
  723loPI   C4B11568  16.013   9.757   6.330  0.2843  0.1430  0.0127
  724loPI    C111569  11.331   3.303   4.327  0.2213 -0.1421 -0.0598
  724loPI    C211570  10.960   3.267   4.182  0.2028  0.1177 -0.0810
  724loPI    C311571  11.207   3.546   4.034  0.3360  0.0849  0.0770
  724loPI   PO411572  11.354   3.032   4.326 -0.2270 -0.0499  0.0453
  724loPI   GL111573  11.305   2.766   4.732  0.0605  0.0645 -0.2145
  724loPI   GL211574  11.500   2.705   4.905  0.2852 -0.1347 -0.1194
  724loPI   C1A11575  11.018   2.922   5.131  0.2097  0.0418  0.0206
  724loPI   C2A11576  10.905   2.979   5.462 -0.1890 -0.1248  0.2540
  724loPI   C3A11577  11.013   2.948   5.892  0.1774  0.2752  0.2046
  724loPI   C4A11578  10.717   2.929   6.223 -0.2796  0.0287  0.2612
  724loPI   C5A11579  10.752   2.786   6.658  0.3169  0.0955  0.2115
  724loPI   C6A11580  11.021   2.869   6.970 -0.0108 -0.3617  0.2050
  724loPI   C1B11581  11.449   2.806   5.353 -0.1572  0.0653 -0.0629
  724loPI   C2B11582  11.430   2.720   5.748 -0.2193 -0.2013 -0.2630
  724loPI   C3B11583  11.330   2.689   6.237 -0.2086 -0.1084 -0.1761
  724loPI   C4B11584  11.143   3.063   6.487 -0.0000  0.0240 -0.1599
  725loPI    C111585  18.409  13.300   3.886 -0.1478  0.1319  0.0472
  725loPI    C211586  18.519  13.480   3.546 -0.0381  0.2399  0.1389
  725loPI    C311587  18.676  13.125   3.645 -0.0945  0.1931  0.0615
  725loPI   PO411588  18.533  13.519   4.116 -0.0497 -0.1035  0.0270
  725loPI   GL111589  18.765  13.529   4.536 -0.0920 -0.0928 -0.0259
  725loPI   GL211590  18.752  13.849   4.718  0.2722  0.1358  0.0828
  725loPI   C1A11591  18.532  13.425   4.843  0.0215  0.2586  0.0977
  725loPI   C2A11592  18.423  13.749   5.103  0.0144  0.0926 -0.3699
  725loPI   C3A11593  18.141  13.721   5.522  0.0853 -0.2926  0.0035
  725loPI   C4A11594  18.067  13.737   5.987 -0.0002 -0.3362  0.1885
  725loPI   C5A11595  18.382  13.430   6.248  0.1805  0.2632 -0.0295
  725loPI   C6A11596  18.537  13.045   6.493 -0.0082  0.1114 -0.1461
  725loPI   C1B11597  18.920  13.728   5.137 -0.0485 -0.1529 -0.1901
  725loPI   C2B11598  19.058  13.611   5.606  0.1334 -0.0500 -0.0972
  725loPI   C3B11599  19.168  13.506   5.989 -0.0023  0.3458 -0.2975
  725loPI   C4B11600  19.106  13.268   6.476  0.0414  0.0030  0.1674
  726loPI    C111601   9.228   0.399   4.027  0.0068 -0.2720 -0.1500
  726loPI    C211602   9.277   0.369   3.631  0.0080  0.0861 -0.1811
  726loPI    C311603   9.591   0.448   3.866 -0.0181  0.0213 -0.1238
  726loPI   PO411604   8.992   0.266   4.177 -0.0568  0.0913  0.0279
  726loPI   GL111605   8.775   0.145   4.526  0.0652 -0.1112 -0.0194
  726loPI   GL211606   8.644   0.362   4.603 -0.0079 -0.0588 -0.2271
  726loPI   C1A11607   8.820   0.088   4.988  0.0337  0.0566 -0.1119
  726loPI   C2A11608   8.647   0.074   5.399 -0.0462 -0.1530 -0.1419
  726loPI   C3A11609   8.583  -0.313   5.768  0.1962  0.0756  0.1963
  726loPI   C4A11610   8.380  -0.563   6.111  0.0026 -0.2978  0.5053
  726loPI   C5A11611   8.097  -0.464   6.431 -0.1975  0.2122 -0.2256
  726loPI   C6A11612   7.813  -0.445   6.926 -0.1653 -0.0937 -0.2770
  726loPI   C1B11613   8.359   0.375   4.884  0.5740  0.0851  0.0926
  726loPI   C2B11614   8.382   0.546   5.315 -0.0812  0.2192  0.0879
  726loPI   C3B11615   7.996   0.473   5.472  0.0092  0.0934 -0.0001
  726loPI   C4B11616   7.761   0.270   5.808  0.2445  0.2774  0.0566
  727loPI    C111617   6.292   5.710   4.640 -0.1114 -0.1721 -0.0120
  727loPI    C211618   5.992   5.834   4.406 -0.1194 -0.0066  0.0840
  727loPI    C311619   6.350   5.756   4.247 -0.2147 -0.2143 -0.0325
  727loPI   PO411620   6.151   5.835   4.906 -0.2102 -0.1627  0.0466
  727loPI   GL111621   6.271   5.817   5.319 -0.0238 -0.2686  0.2867
  727loPI   GL211622   5.958   5.681   5.429 -0.2128 -0.1170  0.1168
  727loPI   C1A11623   6.172   6.194   5.658  0.0629 -0.1394  0.2355
  727loPI   C2A11624   5.910   6.205   6.021 -0.3751  0.1466  0.0209
  727loPI   C3A11625   5.810   6.360   6.451  0.1795 -0.2246  0.1883
  727loPI   C4A11626   5.958   6.526   6.887  0.0465  0.0835  0.0069
  727loPI   C5A11627   5.815   6.462   7.287  0.0141 -0.0273 -0.0257
  727loPI   C6A11628   5.564   6.793   7.469 -0.2982 -0.1643  0.2620
  727loPI   C1B11629   5.625   5.950   5.646  0.1005 -0.2276  0.3088
  727loPI   C2B11630   5.449   5.944   6.101 -0.1582 -0.1206  0.1751
  727loPI   C3B11631   5.365   5.894   6.535 -0.0314  0.0363 -0.1045
  727loPI   C4B11632   5.236   5.911   6.919 -0.1849 -0.0456  0.1149
  728loPI    C111633  10.825   1.977   4.244  0.2230  0.0715  0.0476
  728loPI    C211634  10.883   2.282   3.992  0.1930 -0.0012 -0.0479
  728loPI    C311635  10.570   2.038   3.942  0.1427  0.0306  0.1068
  728loPI   PO411636  10.812   2.032   4.518 -0.1282  0.0711 -0.2385
  728loPI   GL111637  10.697   2.255   4.839 -0.2694  0.4251  0.0611
  728loPI   GL211638  10.727   2.554   4.804  0.4867  0.2471 -0.1395
  728loPI   C1A11639  10.689   2.049   5.256 -0.2404 -0.0723 -0.0812
  728loPI   C2A11640  10.559   1.855   5.621 -0.1507  0.0800  0.2660
  728loPI   C3A11641  10.559   2.084   5.981 -0.0267  0.3516 -0.2061
  728loPI   C4A11642  10.612   1.946   6.413 -0.1028 -0.0843  0.0404
  728loPI   C5A11643  10.827   1.824   6.720 -0.0655 -0.2540  0.0329
  728loPI   C6A11644  11.201   1.943   6.975 -0.1347 -0.2028  0.2894
  728loPI   C1B11645  10.624   2.572   5.263  0.3251 -0.1535 -0.1154
  728loPI   C2B11646  10.514   2.556   5.747  0.2368  0.1224 -0.1966
  728loPI   C3B11647  10.480   2.498   6.139  0.2016  0.3348 -0.0808
  728loPI   C4B11648  10.371   2.381   6.530  0.2433  0.0981 -0.1902
  729loPI    C111649   4.058   9.422   4.644  0.2530 -0.0516  0.1600
  729loPI    C211650   4.200   9.159   4.377  0.0132 -0.1116  0.0891
  729loPI    C311651   3.903   9.407   4.275  0.1825  0.1328  0.1813
  729loPI   PO411652   3.987   9.356   4.864  0.2496  0.0429  0.1981
  729loPI   GL111653   3.958   9.392   5.205 -0.3148  0.2973  0.0035
  729loPI   GL211654   3.954   9.743   5.179  0.0218  0.2824 -0.3460
  729loPI   C1A11655   3.759   9.308   5.564 -0.3594  0.1758  0.1082
  729loPI   C2A11656   3.734   9.230   6.043 -0.1469  0.1115 -0.4085
  729loPI   C3A11657   3.710   9.414   6.482 -0.1124 -0.0589  0.2173
  729loPI   C4A11658   3.736   9.734   6.801 -0.3123  0.0611 -0.1537
  729loPI   C5A11659   3.363   9.717   7.078  0.1161 -0.1817 -0.0376
  729loPI   C6A11660   3.009   9.504   7.163  0.2494 -0.1271 -0.2743
  729loPI   C1B11661   3.608   9.746   5.480  0.0549 -0.0011  0.3353
  729loPI   C2B11662   3.360   9.925   5.748  0.0563  0.5086 -0.0784
  729loPI   C3B11663   3.402   9.729   6.141  0.4750 -0.0312  0.4431
  729loPI   C4B11664   3.247   9.634   6.576 -0.2561  0.1122  0.2516
  730loPI    C111665   4.671  14.937   4.763  0.0042 -0.2181 -0.2522
  730loPI    C211666   4.904  15.256   4.828 -0.0571 -0.2322  0.0477
  730loPI    C311667   4.526  15.306   4.708  0.0080 -0.2006 -0.1469
  730loPI   PO411668   4.575  14.761   4.946 -0.3421  0.0420 -0.1607
  730loPI   GL111669   4.737  14.721   5.297 -0.3154  0.1532  0.0042
  730loPI   GL211670   4.716  14.433   5.289 -0.2029 -0.0530 -0.0208
  730loPI   C1A11671   4.702  14.825   5.716  0.1204  0.1147 -0.0628
  730loPI   C2A11672   4.833  14.951   6.147 -0.1324 -0.2287 -0.1601
  730loPI   C3A11673   4.921  15.116   6.477 -0.1321  0.1025  0.2820
  730loPI   C4A11674   5.101  15.333   6.801 -0.3294  0.2340 -0.1650
  730loPI   C5A11675   5.070  15.553   6.979  0.2350 -0.0429  0.1571
  730loPI   C6A11676   4.726  15.853   7.122 -0.1108 -0.1270  0.2212
  730loPI   C1B11677   4.816  14.250   5.647 -0.0824 -0.0472 -0.1336
  730loPI   C2B11678   4.922  14.284   6.048 -0.3991  0.1854 -0.0554
  730loPI   C3B11679   4.897  14.149   6.490  0.0962  0.1281  0.1261
  730loPI   C4B11680   4.643  14.353   6.870  0.0719 -0.0303  0.1177
  731loPI    C111681   0.551   1.046   4.057  0.0012  0.0098 -0.0987
  731loPI    C211682   0.539   0.706   3.847 -0.1663 -0.0248 -0.0344
  731loPI    C311683   0.220   0.947   3.857 -0.0810  0.0877 -0.0023
  731loPI   PO411684   0.564   0.999   4.357  0.2282  0.3860  0.0867
  731loPI   GL111685   0.443   0.794   4.674  0.0818  0.1603  0.1641
  731loPI   GL211686   0.075   0.567   4.725  0.1901  0.1527 -0.2066
  731loPI   C1A11687   0.513   0.822   5.183  0.2062 -0.0376 -0.3255
  731loPI   C2A11688   0.715   0.871   5.576  0.0114 -0.0990 -0.3970
  731loPI   C3A11689   0.465   0.996   5.922  0.5245  0.2282 -0.0934
  731loPI   C4A11690   0.457   0.908   6.394 -0.2798 -0.0650 -0.0796
  731loPI   C5A11691   0.515   0.982   6.848 -0.0919  0.0597  0.1161
  731loPI   C6A11692   0.685   1.142   7.241 -0.2326  0.1152  0.1303
  731loPI   C1B11693   0.026   0.684   5.170 -0.2725  0.1507 -0.1463
  731loPI   C2B11694   0.128   0.676   5.603 -0.2718 -0.0107  0.0513
  731loPI   C3B11695   0.101   0.416   6.029  0.3809  0.0009 -0.2217
  731loPI   C4B11696   0.276   0.043   6.200 -0.0039  0.1648  0.2032
  732loPI    C111697  18.947  19.804   4.464  0.0873  0.2045 -0.1066
  732loPI    C211698  19.310  19.970   4.431  0.1975 -0.0235 -0.0651
  732loPI    C311699  19.218  19.754   4.755 -0.0168  0.1288 -0.0220
  732loPI   PO411700  18.794  20.076   4.385 -0.0832  0.6981  0.0324
  732loPI   GL111701  18.412  20.176   4.630 -0.0968  0.0335  0.1611
  732loPI   GL211702  18.654  20.170   4.875 -0.1972  0.0205 -0.0361
  732loPI   C1A11703  18.217  20.378   5.091 -0.0601  0.0524  0.4525
  732loPI   C2A11704  18.201  20.365   5.497  0.0582 -0.3343 -0.3023
  732loPI   C3A11705  18.209  20.402   5.988  0.0585 -0.1705  0.2411
  732loPI   C4A11706  18.185  20.067   6.343 -0.1171 -0.1386 -0.2658
  732loPI   C5A11707  18.168  19.790   6.776  0.0355 -0.0969  0.2081
  732loPI   C6A11708  18.108  19.591   7.071 -0.0706 -0.0530 -0.0279
  732loPI   C1B11709  18.597  19.942   5.368 -0.0742 -0.1145  0.0808
  732loPI   C2B11710  18.484  19.702   5.710  0.0245 -0.1544 -0.3635
  732loPI   C3B11711  18.116  19.364   5.912 -0.2122 -0.0668 -0.3906
  732loPI   C4B11712  17.686  19.306   5.913 -0.0739  0.0073 -0.0584
  733loPI    C111713   2.554   9.829   4.112  0.1615 -0.1786 -0.1909
  733loPI    C211714   2.569   9.431   4.148  0.0890 -0.1653 -0.0036
  733loPI    C311715   2.246   9.606   3.989 -0.0731 -0.1555  0.3272
  733loPI   PO411716   2.677   9.875   4.343  0.0863 -0.0679 -0.3355
  733loPI   GL111717   2.672  10.210   4.672 -0.0788 -0.3707 -0.2839
  733loPI   GL211718   2.551   9.801   4.867 -0.0514  0.0726  0.1041
  733loPI   C1A11719   2.754  10.307   5.116  0.1453  0.0795 -0.0711
  733loPI   C2A11720   2.735  10.271   5.433 -0.1762  0.4809  0.0137
  733loPI   C3A11721   2.820   9.956   5.735  0.1186 -0.3880  0.0722
  733loPI   C4A11722   2.913   9.909   6.209  0.1152 -0.4898  0.0723
  733loPI   C5A11723   2.809   9.955   6.622  0.0696 -0.2358 -0.0671
  733loPI   C6A11724   2.908  10.021   7.003 -0.1006 -0.2646 -0.1814
  733loPI   C1B11725   2.613   9.814   5.314  0.0650 -0.0262  0.0673
  733loPI   C2B11726   2.370   9.783   5.718 -0.0732 -0.0374 -0.0017
  733loPI   C3B11727   2.427   9.839   6.260  0.1793 -0.0942 -0.2958
  733loPI   C4B11728   2.147   9.770   6.561 -0.0237  0.0173  0.1039
  734loPI    C111729  15.059  13.400   3.830  0.2154  0.1563  0.1147
  734loPI    C211730  14.740  13.288   3.617  0.1390  0.1039  0.2554
  734loPI    C311731  15.073  13.067   3.610  0.1527  0.1276  0.1535
  734loPI   PO411732  14.871  13.524   4.107 -0.1374 -0.1269  0.2443
  734loPI   GL111733  15.032  13.557   4.549  0.0637  0.1679  0.2320
  734loPI   GL211734  15.118  13.305   4.459 -0.0551  0.0233 -0.2162
  734loPI   C1A11735  15.077  13.562   5.041  0.1485 -0.1168  0.1296
  734loPI   C2A11736  15.154  13.214   5.332  0.0363 -0.3283 -0.0096
  734loPI   C3A11737  15.287  13.046   5.762  0.1973 -0.0304 -0.4411
  734loPI   C4A11738  15.422  13.177   6.181 -0.1300  0.1100 -0.0921
  734loPI   C5A11739  15.325  13.137   6.676 -0.1813 -0.2198 -0.2001
  734loPI   C6A11740  15.383  13.203   7.093  0.1429 -0.1418  0.0018
  734loPI   C1B11741  15.013  13.057   4.828  0.0139  0.2414 -0.0720
  734loPI   C2B11742  14.702  12.781   4.950 -0.1237 -0.0396  0.1702
  734loPI   C3B11743  14.569  12.713   5.295 -0.2786  0.1657  0.0505
  734loPI   C4B11744  14.421  12.696   5.686  0.1450  0.2158 -0.1294
  735loPI    C111745  12.121  12.940   4.332 -0.5238 -0.0778 -0.0434
  735loPI    C211746  12.133  13.332   4.408  0.2615 -0.1389  0.2349
  735loPI    C311747  12.276  13.191   4.062  0.1216 -0.1954  0.1997
  735loPI   PO411748  12.169  12.818   4.641 -0.2967  0.1282 -0.0740
  735loPI   GL111749  11.960  13.090   4.872 -0.0245 -0.1597  0.0291
  735loPI   GL211750  12.082  13.341   5.008 -0.1332 -0.0310 -0.0976
  735loPI   C1A11751  12.088  12.905   5.376  0.0894  0.4176  0.0999
  735loPI   C2A11752  12.156  12.718   5.767  0.1730 -0.2759  0.0093
  735loPI   C3A11753  12.388  12.544   6.116 -0.0492 -0.0870  0.2682
  735loPI   C4A11754  12.643  12.351   6.350 -0.0601 -0.1288  0.4094
  735loPI   C5A11755  12.716  12.266   6.780  0.0975  0.3835  0.0244
  735loPI   C6A11756  12.992  11.811   6.913  0.1392  0.2726  0.2119
  735loPI   C1B11757  12.021  13.413   5.465 -0.0975 -0.1212  0.3359
  735loPI   C2B11758  12.108  13.573   5.847 -0.1349  0.0981 -0.0604
  735loPI   C3B11759  12.391  13.630   6.252 -0.0279 -0.1455  0.3288
  735loPI   C4B11760  12.186  13.768   6.634 -0.0397  0.0750  0.4041
  736loPI    C111761  10.634  19.014   4.419  0.0891  0.2091  0.0455
  736loPI    C211762  10.781  18.681   4.253 -0.0402  0.1439  0.0602
  736loPI    C311763  10.881  19.039   4.105  0.2535  0.1080  0.1651
  736loPI   PO411764  10.674  18.922   4.718  0.0789 -0.0325 -0.1981
  736loPI   GL111765  10.740  18.936   5.153  0.0727 -0.2673  0.0047
  736loPI   GL211766  10.970  19.192   5.063  0.1375 -0.0654  0.2826
  736loPI   C1A11767  11.182  18.708   5.092 -0.3763 -0.2849 -0.2080
  736loPI   C2A11768  11.384  18.632   5.451  0.1371 -0.0044  0.0858
  736loPI   C3A11769  11.696  18.831   5.630  0.2828  0.0176 -0.1153
  736loPI   C4A11770  12.151  18.722   5.772  0.1033  0.2151 -0.1078
  736loPI   C5A11771  12.383  18.486   6.104 -0.0628 -0.2712 -0.0313
  736loPI   C6A11772  12.389  18.364   6.516  0.0502 -0.0953  0.0896
  736loPI   C1B11773  11.054  19.015   5.476 -0.1159  0.1114 -0.1380
  736loPI   C2B11774  11.287  19.126   5.757  0.1142 -0.0839  0.1029
  736loPI   C3B11775  11.667  19.247   5.966 -0.0697  0.2283  0.1232
  736loPI   C4B11776  12.045  19.367   5.803  0.0770  0.1379 -0.2901
  737loPI    C111777  10.681   8.213   4.265  0.0218 -0.1648 -0.0388
  737loPI    C211778  10.739   7.824   4.338 -0.0346 -0.1137  0.2952
  737loPI    C311779  10.374   7.957   4.240  0.0914 -0.2203 -0.3630
  737loPI   PO411780  10.889   8.252   4.546  0.0400 -0.0134  0.2995
  737loPI   GL111781  11.052   8.310   4.886  0.0686  0.1294 -0.5190
  737loPI   GL211782  11.232   8.044   5.001  0.2058  0.1948 -0.2236
  737loPI   C1A11783  11.038   8.413   5.332  0.2318  0.1504  0.2657
  737loPI   C2A11784  11.002   8.484   5.734 -0.3346  0.0959 -0.1331
  737loPI   C3A11785  11.182   8.445   6.126  0.2301 -0.0279 -0.3390
  737loPI   C4A11786  11.235   8.329   6.519  0.2054 -0.1352 -0.2244
  737loPI   C5A11787  11.353   8.068   6.858  0.2210  0.0383  0.1809
  737loPI   C6A11788  11.519   7.707   6.663 -0.2408 -0.3976  0.0002
  737loPI   C1B11789  11.320   7.972   5.375 -0.0437 -0.1143 -0.0291
  737loPI   C2B11790  11.264   8.049   5.832  0.1928  0.2312  0.3169
  737loPI   C3B11791  11.582   8.140   6.130  0.0285  0.0729  0.0953
  737loPI   C4B11792  11.765   8.075   6.542  0.1342 -0.0266  0.0732
  738loPI    C111793  17.049   5.990   4.201 -0.1271 -0.0720  0.0901
  738loPI    C211794  17.053   5.955   3.803  0.0860 -0.0523  0.0890
  738loPI    C311795  16.708   6.024   3.994 -0.0605 -0.3329 -0.0670
  738loPI   PO411796  17.359   6.055   4.209 -0.0232  0.0954  0.0745
  738loPI   GL111797  17.691   6.018   4.471 -0.2723  0.1710  0.2236
  738loPI   GL211798  17.525   5.785   4.646 -0.0536  0.2464  0.1967
  738loPI   C1A11799  18.077   5.992   4.774  0.1760  0.1856 -0.0436
  738loPI   C2A11800  18.231   5.673   5.163  0.0792  0.0909 -0.0014
  738loPI   C3A11801  18.045   5.472   5.481  0.1150 -0.0793 -0.1385
  738loPI   C4A11802  17.915   5.325   5.919  0.2991 -0.1395 -0.0724
  738loPI   C5A11803  17.976   5.362   6.335 -0.0799  0.3590 -0.2027
  738loPI   C6A11804  17.766   5.195   6.664 -0.4141 -0.2185  0.0012
  738loPI   C1B11805  17.608   6.191   4.905 -0.0134 -0.2894 -0.0404
  738loPI   C2B11806  17.709   6.424   5.127 -0.1687  0.2653  0.0670
  738loPI   C3B11807  17.627   6.612   5.466 -0.0256 -0.2176 -0.2520
  738loPI   C4B11808  17.513   6.808   5.875 -0.0612  0.1499  0.0228
  739loPI    C111809  12.088   2.435   4.373  0.0591  0.1436 -0.0787
  739loPI    C211810  12.430   2.634   4.317 -0.0206  0.2923 -0.0398
  739loPI    C311811  12.212   2.519   4.002  0.0611  0.2038 -0.0644
  739loPI   PO411812  12.057   2.483   4.683 -0.2367 -0.1117 -0.0299
  739loPI   GL111813  11.976   2.207   5.095  0.0268  0.0273 -0.0432
  739loPI   GL211814  11.683   2.250   4.922 -0.3906  0.0536  0.2318
  739loPI   C1A11815  12.224   2.323   5.499  0.1200  0.4001  0.2206
  739loPI   C2A11816  12.173   2.258   5.967 -0.2788 -0.2407 -0.1786
  739loPI   C3A11817  12.271   1.872   6.207 -0.0441  0.3553  0.2489
  739loPI   C4A11818  12.167   1.675   6.550  0.0812 -0.1899  0.0322
  739loPI   C5A11819  12.104   1.437   6.935  0.0253  0.2767 -0.3138
  739loPI   C6A11820  11.856   1.142   7.064 -0.0037  0.1639  0.2077
  739loPI   C1B11821  11.528   2.325   5.395 -0.3320 -0.1899  0.1736
  739loPI   C2B11822  11.612   2.252   5.714  0.1993 -0.0051  0.1261
  739loPI   C3B11823  11.409   2.049   6.019 -0.1091 -0.1238 -0.0718
  739loPI   C4B11824  11.358   1.993   6.503  0.1013  0.2505  0.3519
  740loPI    C111825  18.426  19.659   4.336  0.0819  0.1169 -0.1214
  740loPI    C211826  18.706  19.595   4.058 -0.0835  0.0560 -0.2756
  740loPI    C311827  18.484  19.928   4.046  0.1679  0.2394  0.0077
  740loPI   PO411828  18.505  19.684   4.548 -0.2014  0.0951 -0.1411
  740loPI   GL111829  18.772  19.627   4.922 -0.0650  0.0109 -0.1195
  740loPI   GL211830  18.972  19.321   4.953  0.0404  0.0062  0.1444
  740loPI   C1A11831  18.934  19.576   5.363  0.0188  0.2081  0.0688
  740loPI   C2A11832  18.976  19.244   5.692 -0.2298 -0.0952 -0.1796
  740loPI   C3A11833  18.805  18.873   5.719  0.2387 -0.0697  0.3410
  740loPI   C4A11834  18.691  18.677   6.059  0.1829  0.1432  0.0197
  740loPI   C5A11835  18.755  18.812   6.389  0.1267  0.0038 -0.1174
  740loPI   C6A11836  18.990  19.154   6.805  0.2840  0.2116  0.2229
  740loPI   C1B11837  18.843  18.967   4.989  0.3495 -0.3442 -0.1001
  740loPI   C2B11838  18.699  18.589   5.286 -0.1539 -0.0330  0.1223
  740loPI   C3B11839  18.437  18.345   5.393  0.0093  0.0347  0.2608
  740loPI   C4B11840  18.011  18.427   5.460  0.3513 -0.0071 -0.4627
  741loPI    C111841  18.219  14.979   3.854  0.1240  0.0078 -0.1652
  741loPI    C211842  18.141  14.653   3.636 -0.1537  0.0200 -0.0889
  741loPI    C311843  17.981  15.004   3.533 -0.2086  0.0449  0.0779
  741loPI   PO411844  18.220  14.990   4.118  0.0954 -0.2011 -0.4052
  741loPI   GL111845  18.300  15.275   4.444  0.0014 -0.2394  0.1118
  741loPI   GL211846  18.451  15.010   4.603  0.1683 -0.1112 -0.0327
  741loPI   C1A11847  18.227  15.498   4.806  0.0532 -0.0870 -0.3863
  741loPI   C2A11848  18.395  15.679   5.226  0.0540  0.0459 -0.0095
  741loPI   C3A11849  18.647  15.631   5.559 -0.3054  0.1574  0.3938
  741loPI   C4A11850  18.866  15.725   5.880  0.2324  0.0841 -0.2460
  741loPI   C5A11851  19.115  15.721   6.241 -0.1722 -0.0520 -0.2083
  741loPI   C6A11852  19.173  15.764   6.663 -0.2724  0.4118  0.0610
  741loPI   C1B11853  18.354  15.138   5.051 -0.1122 -0.0475  0.0163
  741loPI   C2B11854  18.196  15.239   5.453 -0.0825  0.0707  0.1582
  741loPI   C3B11855  18.235  15.289   5.955 -0.0618 -0.1881  0.0033
  741loPI   C4B11856  18.454  15.369   6.366  0.0697 -0.2762 -0.0133
  742loPI    C111857   3.627   5.401   4.538 -0.1295  0.0021 -0.0137
  742loPI    C211858   3.557   5.573   4.184 -0.2695  0.1173  0.0683
  742loPI    C311859   3.925   5.446   4.276 -0.1886  0.2717 -0.0377
  742loPI   PO411860   3.451   5.542   4.697 -0.0982 -0.0036  0.2540
  742loPI   GL111861   3.213   5.495   4.968 -0.0892  0.1476  0.3946
  742loPI   GL211862   2.844   5.516   4.828 -0.0293  0.2814  0.1424
  742loPI   C1A11863   3.354   5.746   5.313  0.0158  0.0429 -0.0341
  742loPI   C2A11864   3.286   6.089   5.461 -0.1679 -0.0995  0.1207
  742loPI   C3A11865   3.246   6.185   5.797  0.1027 -0.0066  0.2049
  742loPI   C4A11866   3.520   6.341   6.174 -0.0122 -0.0365 -0.1109
  742loPI   C5A11867   3.520   6.678   6.527  0.4727  0.1948 -0.1814
  742loPI   C6A11868   3.401   7.158   6.557  0.3620 -0.2546  0.1699
  742loPI   C1B11869   2.736   5.830   5.104 -0.5569  0.0424 -0.0300
  742loPI   C2B11870   2.854   5.777   5.490  0.0436 -0.0607 -0.2949
  742loPI   C3B11871   2.786   5.937   5.816  0.0389 -0.0757  0.0845
  742loPI   C4B11872   2.775   5.902   6.204 -0.1673  0.2190  0.0620
  743loPI    C111873   3.708   7.338   4.195 -0.0679 -0.1167 -0.0384
  743loPI    C211874   3.673   7.355   3.797  0.0244  0.0672 -0.0402
  743loPI    C311875   3.810   7.022   3.972  0.2094  0.0687 -0.1798
  743loPI   PO411876   3.412   7.429   4.284 -0.2976 -0.3649 -0.1388
  743loPI   GL111877   3.293   7.151   4.625  0.2409 -0.0363 -0.0924
  743loPI   GL211878   2.996   7.164   4.686  0.0991  0.1537  0.0700
  743loPI   C1A11879   3.296   7.214   5.108 -0.0349 -0.0082  0.1582
  743loPI   C2A11880   3.178   7.468   5.449 -0.0355 -0.0916 -0.0890
  743loPI   C3A11881   3.055   7.449   5.730  0.0683  0.0303  0.0420
  743loPI   C4A11882   3.010   7.292   6.181  0.0436 -0.1619 -0.0334
  743loPI   C5A11883   2.930   7.456   6.577 -0.3148 -0.0646  0.2185
  743loPI   C6A11884   2.913   7.093   6.835 -0.0316 -0.0455  0.6660
  743loPI   C1B11885   3.237   6.773   4.860  0.0296 -0.2182 -0.2041
  743loPI   C2B11886   3.245   6.597   5.188  0.0264 -0.0612  0.2492
  743loPI   C3B11887   3.394   6.627   5.531 -0.3135 -0.0744 -0.1380
  743loPI   C4B11888   3.735   6.515   5.777  0.1960  0.0555  0.0388
  744loPI    C111889  12.481  17.695   4.318 -0.1316  0.0803 -0.0363
  744loPI    C211890  12.550  17.320   4.198  0.1258  0.1441 -0.0932
  744loPI    C311891  12.422  17.594   3.936 -0.2378  0.0553 -0.0137
  744loPI   PO411892  12.442  17.720   4.571 -0.0722 -0.0701  0.0281
  744loPI   GL111893  12.598  18.017   4.743  0.0209 -0.0234  0.2018
  744loPI   GL211894  12.903  17.948   4.760 -0.2871  0.0409  0.0630
  744loPI   C1A11895  12.659  18.234   5.124 -0.0929  0.1364 -0.2976
  744loPI   C2A11896  12.594  18.288   5.572 -0.1664 -0.1990 -0.3066
  744loPI   C3A11897  12.773  18.192   5.967  0.1534 -0.0339  0.1397
  744loPI   C4A11898  12.986  18.207   6.383 -0.1946 -0.4791  0.3825
  744loPI   C5A11899  12.852  18.055   6.844  0.0291  0.2264  0.0154
  744loPI   C6A11900  12.988  17.697   7.060 -0.2229 -0.1085  0.0605
  744loPI   C1B11901  13.063  17.856   5.239  0.1890  0.0373  0.1287
  744loPI   C2B11902  13.037  17.837   5.615  0.0652 -0.0405  0.0791
  744loPI   C3B11903  12.829  17.606   5.960 -0.0516  0.0714 -0.0025
  744loPI   C4B11904  12.721  17.659   6.378 -0.2115  0.2500 -0.1683
  745loPI    C111905   6.398   8.674   4.892  0.2462 -0.0167 -0.0636
  745loPI    C211906   6.517   8.477   4.565 -0.0917 -0.1802 -0.0925
  745loPI    C311907   6.683   8.829   4.658  0.2172 -0.2742 -0.2738
  745loPI   PO411908   6.066   8.674   4.921  0.2625  0.0262  0.1119
  745loPI   GL111909   5.865   8.802   5.250 -0.0913  0.0875 -0.3130
  745loPI   GL211910   5.551   8.747   5.062 -0.0430  0.2478 -0.2148
  745loPI   C1A11911   6.185   8.857   5.541  0.1469  0.1762  0.2911
  745loPI   C2A11912   6.251   8.552   5.869  0.1736 -0.1753 -0.2303
  745loPI   C3A11913   6.393   8.387   6.176 -0.0457 -0.3304  0.2156
  745loPI   C4A11914   6.699   8.077   6.265 -0.0366  0.2048 -0.0792
  745loPI   C5A11915   6.933   7.861   6.556  0.0280 -0.0279 -0.1044
  745loPI   C6A11916   7.355   7.826   6.608  0.0095  0.2377 -0.4266
  745loPI   C1B11917   5.617   8.721   5.611  0.1431  0.0812 -0.3076
  745loPI   C2B11918   5.602   8.904   5.986  0.2640 -0.4406 -0.0484
  745loPI   C3B11919   5.646   8.762   6.457  0.1560 -0.0856  0.0261
  745loPI   C4B11920   5.489   8.885   6.801 -0.1493 -0.0260 -0.3934
  746loPI    C111921  16.088   5.620   4.212 -0.1642  0.1252 -0.0939
  746loPI    C211922  16.259   5.868   3.949 -0.0670  0.0615 -0.0912
  746loPI    C311923  16.143   5.503   3.834  0.1965 -0.0567  0.0108
  746loPI   PO411924  16.150   5.863   4.463  0.0235 -0.1036  0.1014
  746loPI   GL111925  15.963   5.934   4.881  0.1208 -0.0037 -0.1810
  746loPI   GL211926  16.185   5.846   4.957  0.0629  0.2455 -0.2955
  746loPI   C1A11927  15.885   6.132   5.356 -0.1456  0.0073  0.0947
  746loPI   C2A11928  16.015   6.227   5.808 -0.0444  0.1824 -0.1744
  746loPI   C3A11929  16.243   6.504   6.062  0.0606  0.1676  0.2854
  746loPI   C4A11930  16.168   6.776   6.447  0.1136  0.3277  0.0566
  746loPI   C5A11931  15.855   7.088   6.636  0.0499 -0.0341  0.1229
  746loPI   C6A11932  15.540   7.455   6.641 -0.0946  0.1911 -0.1453
  746loPI   C1B11933  16.406   5.852   5.315 -0.0917 -0.3639  0.2125
  746loPI   C2B11934  16.444   6.043   5.695  0.2090 -0.2365 -0.0223
  746loPI   C3B11935  16.308   5.960   6.056  0.2031 -0.1787 -0.5989
  746loPI   C4B11936  16.305   6.205   6.423 -0.0625  0.0977 -0.2735
  747loPI    C111937  16.132  19.187   4.044 -0.3210  0.1793 -0.0339
  747loPI    C211938  16.190  19.387   3.703 -0.2197  0.0395 -0.0993
  747loPI    C311939  16.082  19.002   3.693  0.1166 -0.0615  0.0237
  747loPI   PO411940  16.007  19.308   4.175 -0.1130  0.3364  0.3179
  747loPI   GL111941  15.836  19.216   4.653 -0.2115 -0.2279 -0.1222
  747loPI   GL211942  16.011  19.423   4.742 -0.0934 -0.0299 -0.0968
  747loPI   C1A11943  15.574  19.343   5.015 -0.0031 -0.2672 -0.1509
  747loPI   C2A11944  15.527  19.438   5.392  0.3040 -0.2941 -0.3327
  747loPI   C3A11945  15.400  19.564   5.645 -0.2644  0.0861 -0.0325
  747loPI   C4A11946  15.344  19.527   6.083  0.0830 -0.2760  0.1054
  747loPI   C5A11947  15.395  19.527   6.498 -0.0288  0.2146  0.1754
  747loPI   C6A11948  15.305  19.807   6.855  0.0166  0.0685 -0.0532
  747loPI   C1B11949  16.093  19.328   5.182 -0.1489  0.2178  0.1588
  747loPI   C2B11950  16.194  19.220   5.632  0.1124 -0.0552  0.1382
  747loPI   C3B11951  16.263  19.509   6.028 -0.0802  0.1919  0.0241
  747loPI   C4B11952  16.294  19.802   6.392 -0.1887 -0.0478  0.2529
  748loPI    C111953   1.468  11.309   4.361  0.3242  0.0854 -0.0320
  748loPI    C211954   1.346  11.313   3.980  0.3646  0.1271 -0.0445
  748loPI    C311955   1.442  11.655   4.163  0.0874  0.1378  0.0865
  748loPI   PO411956   1.256  11.181   4.504  0.1588  0.2010  0.1843
  748loPI   GL111957   1.095  11.414   4.768  0.1207  0.1267  0.1350
  748loPI   GL211958   1.083  11.809   4.667  0.1650  0.3077  0.0868
  748loPI   C1A11959   1.340  11.442   5.112  0.1205  0.5006  0.0891
  748loPI   C2A11960   1.647  11.412   5.406 -0.1697  0.1840  0.2893
  748loPI   C3A11961   1.684  11.516   5.762 -0.1144 -0.1211 -0.0405
  748loPI   C4A11962   1.566  11.490   6.097  0.1708 -0.1108 -0.0571
  748loPI   C5A11963   1.281  11.565   6.397  0.1620 -0.0239 -0.1297
  748loPI   C6A11964   1.375  11.694   6.795 -0.0721 -0.1795 -0.0554
  748loPI   C1B11965   0.997  11.797   5.092 -0.1660  0.1861 -0.1610
  748loPI   C2B11966   1.321  11.826   5.425  0.1211  0.0357 -0.0189
  748loPI   C3B11967   1.282  11.881   5.829  0.2223 -0.1262  0.2145
  748loPI   C4B11968   1.446  12.078   6.141 -0.1827  0.0874  0.2262
  749loPI    C111969  16.238  15.349   3.913  0.0606  0.1220 -0.1554
  749loPI    C211970  15.907  15.180   4.061  0.1502 -0.1372 -0.2445
  749loPI    C311971  15.906  15.332   3.691  0.0431  0.1445 -0.1313
  749loPI   PO411972  16.345  15.504   4.125 -0.1913  0.4737 -0.3245
  749loPI   GL111973  16.352  15.603   4.638 -0.0765  0.2305  0.4385
  749loPI   GL211974  16.571  15.292   4.641  0.0718 -0.3633  0.2026
  749loPI   C1A11975  16.024  15.709   4.853  0.0289 -0.0813  0.1553
  749loPI   C2A11976  15.977  15.682   5.279 -0.4225 -0.3103 -0.5245
  749loPI   C3A11977  15.701  15.636   5.657 -0.0814 -0.1114  0.0986
  749loPI   C4A11978  15.820  15.758   6.021  0.1700 -0.1496  0.1908
  749loPI   C5A11979  16.087  16.043   6.254 -0.1228  0.0677 -0.2874
  749loPI   C6A11980  16.225  16.391   6.006 -0.4667 -0.1264  0.0239
  749loPI   C1B11981  16.541  15.363   5.090 -0.1031  0.0279 -0.0828
  749loPI   C2B11982  16.598  15.122   5.513  0.4548  0.1688  0.0792
  749loPI   C3B11983  16.711  15.078   5.926  0.2783  0.0322 -0.1391
  749loPI   C4B11984  16.621  14.740   6.120  0.2088 -0.0909 -0.3396
  750loPI    C111985   4.380  10.119   4.623  0.0826 -0.0914  0.0568
  750loPI    C211986   4.128   9.854   4.784 -0.0204 -0.1385 -0.1782
  750loPI    C311987   4.459   9.728   4.599  0.1563 -0.0790  0.0919
  750loPI   PO411988   4.449  10.311   4.864 -0.1131  0.1270 -0.2561
  750loPI   GL111989   4.659  10.296   5.332  0.2155  0.3367  0.1881
  750loPI   GL211990   4.399  10.079   5.345 -0.0054  0.4203 -0.1316
  750loPI   C1A11991   4.889  10.138   5.736  0.1254  0.0953 -0.2034
  750loPI   C2A11992   4.862  10.067   6.094  0.2857 -0.2409 -0.1595
  750loPI   C3A11993   5.008  10.008   6.674  0.0920  0.1573  0.0071
  750loPI   C4A11994   4.998   9.769   6.992 -0.1073 -0.0802  0.3423
  750loPI   C5A11995   5.009   9.762   7.510 -0.2279 -0.3284  0.0687
  750loPI   C6A11996   5.112  10.038   7.928 -0.0120 -0.1410 -0.0319
  750loPI   C1B11997   4.364  10.296   5.709 -0.0975  0.2833 -0.4172
  750loPI   C2B11998   4.383  10.523   6.110 -0.0178  0.0364 -0.2014
  750loPI   C3B11999   4.430  10.895   6.351 -0.2000  0.0978 -0.1766
  750loPI   C4B12000   4.171  11.223   6.699  0.1742  0.1727 -0.0512
  751loPI    C112001  13.096  11.963   4.358 -0.0338 -0.1027  0.0460
  751loPI    C212002  13.085  11.833   3.980  0.0776  0.0121  0.0024
  751loPI    C312003  12.888  11.634   4.265 -0.0597 -0.0388 -0.1262
  751loPI   PO412004  13.086  12.242   4.403 -0.0546  0.2172  0.2136
  751loPI   GL112005  12.909  12.501   4.748 -0.1044 -0.3488 -0.0138
  751loPI   GL212006  12.623  12.752   4.870 -0.1206 -0.0361 -0.0382
  751loPI   C1A12007  12.999  12.556   5.233 -0.1488  0.1240  0.3089
  751loPI   C2A12008  13.125  12.509   5.609  0.1218  0.2541 -0.0061
  751loPI   C3A12009  12.933  12.321   5.931  0.2403  0.1881  0.1028
  751loPI   C4A12010  12.988  12.017   6.257 -0.0343 -0.0376 -0.2764
  751loPI   C5A12011  12.860  11.635   6.470 -0.1906  0.1050  0.0891
  751loPI   C6A12012  12.573  11.343   6.728  0.2343 -0.0241 -0.0648
  751loPI   C1B12013  12.571  12.795   5.260  0.0075  0.1883 -0.2865
  751loPI   C2B12014  12.675  12.736   5.764 -0.1504 -0.0050  0.2115
  751loPI   C3B12015  12.765  12.800   6.172 -0.4954 -0.2532 -0.0734
  751loPI   C4B12016  12.827  12.732   6.576  0.0506  0.0296  0.0583
  752loPI    C112017  11.806   3.348   4.228  0.0762  0.0997 -0.1497
  752loPI    C212018  11.760   3.620   3.937 -0.0777 -0.0323 -0.2499
  752loPI    C312019  11.618   3.248   3.889 -0.4068  0.0370  0.1276
  752loPI   PO412020  11.791   3.478   4.469 -0.2312 -0.0480  0.2927
  752loPI   GL112021  12.069   3.465   4.777  0.0911 -0.0823  0.0803
  752loPI   GL212022  11.934   3.152   4.994 -0.0923 -0.2186 -0.0873
  752loPI   C1A12023  12.249   3.485   5.183 -0.1292 -0.3090 -0.0867
  752loPI   C2A12024  12.460   3.150   5.480 -0.0711 -0.1590  0.0774
  752loPI   C3A12025  12.534   3.225   5.882 -0.0786  0.0323  0.2767
  752loPI   C4A12026  12.807   3.224   6.249  0.1990 -0.0859  0.0036
  752loPI   C5A12027  12.855   2.847   6.515  0.3227  0.0419 -0.0343
  752loPI   C6A12028  12.555   2.607   6.617 -0.2097 -0.0537 -0.1975
  752loPI   C1B12029  11.801   3.169   5.418  0.0865  0.0557 -0.2554
  752loPI   C2B12030  11.996   3.255   5.870  0.1468  0.2583 -0.0419
  752loPI   C3B12031  11.846   2.983   6.144 -0.0748 -0.0807  0.1362
  752loPI   C4B12032  11.898   2.553   6.203 -0.1477 -0.3182 -0.2078
  753loPI    C112033   7.112   5.542   4.952 -0.0889  0.0608 -0.0462
  753loPI    C212034   7.202   5.923   5.037  0.0844  0.0579 -0.2095
  753loPI    C312035   7.068   5.680   5.326  0.2747  0.1571 -0.0354
  753loPI   PO412036   7.330   5.384   4.863 -0.2445 -0.1679 -0.0975
  753loPI   GL112037   7.594   5.284   5.188  0.0477  0.1559 -0.1541
  753loPI   GL212038   7.629   5.627   5.261  0.3009  0.4518  0.1862
  753loPI   C1A12039   7.285   5.286   5.490 -0.3548 -0.3625 -0.0891
  753loPI   C2A12040   7.163   5.526   5.833 -0.2394  0.0787  0.0778
  753loPI   C3A12041   6.837   5.592   6.205  0.0207  0.2419  0.2212
  753loPI   C4A12042   6.858   5.673   6.694 -0.1687  0.0209 -0.1248
  753loPI   C5A12043   6.954   5.451   7.118 -0.0098  0.2786 -0.0085
  753loPI   C6A12044   6.807   5.339   7.489 -0.1243  0.0547  0.0300
  753loPI   C1B12045   7.684   5.637   5.704  0.1187  0.0160  0.3269
  753loPI   C2B12046   7.609   5.349   6.005 -0.2188  0.0967 -0.0103
  753loPI   C3B12047   7.399   5.219   6.314  0.3776  0.1264  0.1430
  753loPI   C4B12048   7.232   5.363   6.671 -0.1541 -0.1809 -0.0159
  754loPI    C112049   1.727   4.334   4.575  0.1015 -0.2037  0.1293
  754loPI    C212050   1.827   4.101   4.266  0.2988 -0.1230  0.1309
  754loPI    C312051   1.920   4.490   4.262 -0.2094  0.0059  0.0366
  754loPI   PO412052   1.483   4.295   4.657  0.0060  0.2655  0.0935
  754loPI   GL112053   1.320   4.041   5.021  0.0805  0.4691 -0.0163
  754loPI   GL212054   1.052   4.253   5.027 -0.2221  0.0088  0.0736
  754loPI   C1A12055   1.210   3.877   5.396 -0.1326 -0.1821 -0.0988
  754loPI   C2A12056   1.422   3.831   5.786  0.1721 -0.0107  0.0784
  754loPI   C3A12057   1.635   3.961   6.161 -0.1479 -0.1260 -0.0098
  754loPI   C4A12058   1.650   4.327   6.380  0.2212  0.1325  0.2188
  754loPI   C5A12059   1.558   4.508   6.801 -0.2596  0.1590  0.0626
  754loPI   C6A12060   1.292   4.552   7.220  0.0277 -0.0499 -0.0834
  754loPI   C1B12061   1.046   4.353   5.578  0.1385  0.3412  0.2442
  754loPI   C2B12062   0.829   4.263   5.913  0.0627  0.0428 -0.3011
  754loPI   C3B12063   0.834   4.314   6.326  0.2119  0.0301 -0.1103
  754loPI   C4B12064   0.662   4.125   6.693  0.0954 -0.0896  0.0787
  755loPI    C112065  12.734   9.756   4.315  0.0270  0.1358 -0.0068
  755loPI    C212066  12.659   9.960   3.979 -0.0566  0.3058  0.1138
  755loPI    C312067  12.429   9.648   4.079  0.0533  0.1689 -0.0561
  755loPI   PO412068  12.847  10.008   4.543  0.3742  0.0949  0.0619
  755loPI   GL112069  13.137   9.884   4.810 -0.1690  0.0688  0.1410
  755loPI   GL212070  12.791   9.688   4.866  0.0760  0.1804  0.0853
  755loPI   C1A12071  13.250  10.030   5.208 -0.0122  0.1695 -0.1558
  755loPI   C2A12072  13.266  10.138   5.643 -0.1544 -0.1847  0.2124
  755loPI   C3A12073  13.376  10.315   6.020  0.0762  0.0776 -0.0396
  755loPI   C4A12074  13.526  10.708   6.233  0.0019 -0.0289  0.2000
  755loPI   C5A12075  13.414  10.840   6.594  0.2377 -0.1879  0.1622
  755loPI   C6A12076  13.810  10.971   6.819 -0.2453  0.0099  0.2354
  755loPI   C1B12077  12.729   9.596   5.234  0.0876  0.3369 -0.0164
  755loPI   C2B12078  13.050   9.645   5.609  0.0010 -0.2273 -0.0497
  755loPI   C3B12079  13.258   9.656   5.982  0.2488  0.2494  0.1478
  755loPI   C4B12080  13.175   9.989   6.297 -0.0126 -0.1797  0.0304
  756loPI    C112081   0.197  12.039   3.979  0.1283  0.1042  0.1016
  756loPI    C212082   0.181  12.438   3.951  0.0021  0.0970  0.0665
  756loPI    C312083   0.333  12.222   3.651 -0.1359  0.1050 -0.0103
  756loPI   PO412084  -0.098  12.043   4.125  0.1240 -0.1880 -0.0315
  756loPI   GL112085  -0.403  12.184   4.496 -0.1284  0.0594 -0.2578
  756loPI   GL212086  -0.156  12.177   4.814 -0.2116 -0.0465 -0.1113
  756loPI   C1A12087  -0.737  12.175   4.894 -0.1563 -0.3225  0.0055
  756loPI   C2A12088  -0.994  12.079   5.168  0.0203 -0.1888 -0.1055
  756loPI   C3A12089  -1.120  12.106   5.634 -0.0162 -0.1860  0.3059
  756loPI   C4A12090  -1.331  12.265   6.007  0.1944 -0.0463 -0.1312
  756loPI   C5A12091  -1.604  12.020   6.317 -0.1555 -0.0400  0.1029
  756loPI   C6A12092  -1.900  11.993   6.616  0.1339 -0.0364 -0.1077
  756loPI   C1B12093  -0.112  12.113   5.226 -0.1904  0.0378 -0.2167
  756loPI   C2B12094  -0.007  12.412   5.626  0.0874 -0.0536 -0.2431
  756loPI   C3B12095   0.037  12.686   5.998  0.2135  0.1441 -0.0408
  756loPI   C4B12096  -0.168  12.734   6.481  0.2319  0.2044  0.1081
  757loPI    C112097   0.468  15.537   3.693  0.0860 -0.0345  0.1677
  757loPI    C212098   0.390  15.145   3.704 -0.1191  0.0032  0.1103
  757loPI    C312099   0.179  15.384   3.463  0.0666  0.1361  0.0769
  757loPI   PO412100   0.485  15.603   4.044  0.2480  0.2227 -0.3174
  757loPI   GL112101   0.279  15.519   4.392  0.2714  0.2336 -0.1770
  757loPI   GL212102   0.142  15.320   4.549 -0.0984  0.0444  0.1300
  757loPI   C1A12103   0.510  15.511   4.851  0.0299  0.0836 -0.0797
  757loPI   C2A12104   0.876  15.559   5.131 -0.1010  0.6294  0.2809
  757loPI   C3A12105   1.024  15.087   5.267  0.0292 -0.2318 -0.0483
  757loPI   C4A12106   1.024  14.945   5.626 -0.3362  0.2116 -0.0445
  757loPI   C5A12107   1.097  14.774   6.115 -0.1645 -0.2096  0.1109
  757loPI   C6A12108   1.035  14.754   6.528  0.0204 -0.5225 -0.0467
  757loPI   C1B12109  -0.209  15.439   4.968 -0.1859  0.0435 -0.1411
  757loPI   C2B12110  -0.418  15.371   5.350  0.2778  0.3643 -0.2562
  757loPI   C3B12111  -0.576  15.218   5.728  0.1285 -0.2492  0.1304
  757loPI   C4B12112  -0.641  15.295   6.161 -0.2815 -0.0194  0.2919
  758loPI    C112113   4.632  19.749   4.511 -0.0618  0.0294 -0.0223
  758loPI    C212114   4.846  19.646   4.189  0.1159 -0.0678  0.1253
  758loPI    C312115   4.482  19.490   4.245  0.0284  0.0529 -0.0968
  758loPI   PO412116   4.810  19.674   4.745 -0.1795  0.3027  0.0665
  758loPI   GL112117   4.593  19.693   5.198 -0.0720  0.0489 -0.0589
  758loPI   GL212118   4.470  19.941   5.442 -0.1377 -0.2382 -0.0612
  758loPI   C1A12119   4.904  19.527   5.461  0.1247  0.1016 -0.1359
  758loPI   C2A12120   5.013  19.785   5.848  0.0068 -0.3242 -0.0746
  758loPI   C3A12121   4.728  19.795   6.229  0.1723  0.1680 -0.1337
  758loPI   C4A12122   4.664  19.923   6.654 -0.0001 -0.3051 -0.4015
  758loPI   C5A12123   4.543  19.837   7.107  0.0987  0.0867 -0.0623
  758loPI   C6A12124   4.743  19.853   7.493  0.1204 -0.1625 -0.2254
  758loPI   C1B12125   4.488  19.789   5.763  0.1405 -0.0831 -0.0223
  758loPI   C2B12126   4.276  19.989   6.087  0.0957  0.1199 -0.0150
  758loPI   C3B12127   4.105  20.030   6.510  0.2308  0.2349  0.1750
  758loPI   C4B12128   4.221  20.251   6.932 -0.0193 -0.1731 -0.3534
  759loPI    C112129  17.724  18.776   3.898 -0.0869  0.0123  0.1727
  759loPI    C212130  17.907  19.113   4.010  0.0305  0.0652 -0.1663
  759loPI    C312131  17.690  19.106   3.675 -0.0916 -0.1593 -0.0844
  759loPI   PO412132  17.608  18.666   4.138  0.3754 -0.2013  0.0807
  759loPI   GL112133  17.745  18.381   4.575 -0.0772 -0.4566  0.3861
  759loPI   GL212134  17.894  18.477   4.690  0.1257 -0.1266 -0.2992
  759loPI   C1A12135  17.501  18.372   4.958  0.1496 -0.0675 -0.2621
  759loPI   C2A12136  17.485  18.504   5.332  0.1328 -0.0957 -0.0162
  759loPI   C3A12137  17.347  18.667   5.658 -0.3357  0.1402  0.1083
  759loPI   C4A12138  17.422  18.838   6.113  0.1786  0.0142 -0.0347
  759loPI   C5A12139  17.794  18.961   6.357  0.1348 -0.3936 -0.0536
  759loPI   C6A12140  18.040  19.268   6.442 -0.2792  0.1073  0.1848
  759loPI   C1B12141  17.824  18.804   5.100 -0.3270 -0.0993 -0.3386
  759loPI   C2B12142  17.497  19.044   5.366  0.0555  0.1273 -0.4457
  759loPI   C3B12143  17.214  19.149   5.819 -0.1581  0.4239  0.1696
  759loPI   C4B12144  16.922  18.879   6.041  0.1011 -0.0211  0.2575
  760loPI    C112145   4.260   8.206   4.219  0.1817  0.1446 -0.0738
  760loPI    C212146   4.542   8.439   4.057  0.3576 -0.0900 -0.1105
  760loPI    C312147   4.364   8.157   3.836  0.1398  0.0123 -0.0687
  760loPI   PO412148   4.097   8.343   4.396  0.0417  0.3678  0.0303
  760loPI   GL112149   3.859   8.260   4.703  0.2791  0.1149  0.1564
  760loPI   GL212150   3.845   7.912   4.890 -0.0389 -0.4138 -0.2013
  760loPI   C1A12151   3.914   8.439   5.056 -0.2246  0.0260  0.2290
  760loPI   C2A12152   3.812   8.709   5.395 -0.1262  0.0418  0.2490
  760loPI   C3A12153   3.770   8.741   5.802  0.0536  0.1444  0.0745
  760loPI   C4A12154   3.682   8.577   6.269 -0.1650  0.0331  0.1287
  760loPI   C5A12155   3.729   8.759   6.629 -0.1721  0.0714 -0.0673
  760loPI   C6A12156   3.632   8.757   7.035 -0.1172  0.0827  0.4252
  760loPI   C1B12157   3.907   8.054   5.359  0.1602  0.0968  0.2567
  760loPI   C2B12158   3.789   8.265   5.670 -0.1510  0.0321  0.1144
  760loPI   C3B12159   4.034   8.382   6.004 -0.2823 -0.1767 -0.0832
  760loPI   C4B12160   4.174   8.607   6.421 -0.1211 -0.1720 -0.2426
  761loPI    C112161  10.066   7.193   4.788 -0.0819  0.2084 -0.0706
  761loPI    C212162   9.893   7.553   4.802 -0.1808  0.1573  0.0355
  761loPI    C312163   9.834   7.315   4.486 -0.2357  0.1744  0.0329
  761loPI   PO412164  10.339   7.310   4.914  0.0068  0.3318  0.1005
  761loPI   GL112165  10.389   7.721   5.043 -0.0871  0.0765 -0.1173
  761loPI   GL212166  10.754   7.843   4.842  0.0617  0.2997  0.0818
  761loPI   C1A12167  10.279   7.692   5.496  0.2616 -0.1599 -0.3724
  761loPI   C2A12168  10.014   7.990   5.754 -0.1598  0.2246  0.3265
  761loPI   C3A12169   9.826   8.141   6.090 -0.0452  0.0112 -0.1784
  761loPI   C4A12170   9.860   8.247   6.479 -0.2314  0.0317 -0.2471
  761loPI   C5A12171  10.145   8.314   6.750 -0.0174  0.2863 -0.0522
  761loPI   C6A12172  10.308   8.562   7.101  0.1585 -0.2306 -0.1189
  761loPI   C1B12173  10.793   7.920   5.235 -0.1002 -0.0069 -0.2148
  761loPI   C2B12174  10.775   8.035   5.623 -0.0121  0.4122 -0.4866
  761loPI   C3B12175  10.813   8.021   6.065  0.2677  0.2979  0.0694
  761loPI   C4B12176  11.015   7.851   6.414  0.1808 -0.3392 -0.0351
  762loPI    C112177   1.386  19.280   4.731 -0.1235 -0.0047  0.0697
  762loPI    C212178   1.176  19.387   4.408  0.1516  0.2451 -0.0317
  762loPI    C312179   1.439  19.087   4.385  0.2011  0.2897 -0.0516
  762loPI   PO412180   1.508  19.550   4.796 -0.0090 -0.1597  0.1184
  762loPI   GL112181   1.717  19.834   4.998  0.2201 -0.0132  0.4073
  762loPI   GL212182   1.937  19.578   5.082  0.0014 -0.1835  0.4023
  762loPI   C1A12183   1.792  19.884   5.419  0.0474 -0.2060 -0.1425
  762loPI   C2A12184   1.911  19.747   5.865 -0.0641  0.0612 -0.2445
  762loPI   C3A12185   1.690  19.541   6.163  0.2678  0.1732  0.4891
  762loPI   C4A12186   1.459  19.545   6.483  0.0569  0.2060 -0.1380
  762loPI   C5A12187   1.500  19.516   6.869  0.3274  0.1513  0.1777
  762loPI   C6A12188   1.680  19.870   7.107  0.1471 -0.2151  0.1322
  762loPI   C1B12189   2.177  19.435   5.407  0.0954 -0.1186 -0.0225
  762loPI   C2B12190   2.262  19.370   5.892  0.2668 -0.0417 -0.0810
  762loPI   C3B12191   2.271  19.567   6.289 -0.0005 -0.1540  0.1266
  762loPI   C4B12192   1.942  19.730   6.543  0.0055 -0.2285 -0.1403
  763loPI    C112193  14.631  11.961   3.812 -0.2135  0.0386 -0.0538
  763loPI    C212194  14.745  12.321   3.942 -0.2131 -0.0033  0.0632
  763loPI    C312195  14.405  12.282   3.736 -0.0448  0.1146 -0.2448
  763loPI   PO412196  14.633  11.790   4.082 -0.2718 -0.2185  0.3551
  763loPI   GL112197  14.898  11.823   4.473  0.1110  0.1636 -0.2306
  763loPI   GL212198  14.835  11.444   4.392 -0.3724 -0.0434  0.3295
  763loPI   C1A12199  14.984  11.779   4.864 -0.2734 -0.0366 -0.1587
  763loPI   C2A12200  15.043  11.465   5.101 -0.0715 -0.1216  0.0791
  763loPI   C3A12201  15.106  11.298   5.472 -0.3975  0.0039  0.3324
  763loPI   C4A12202  15.214  11.108   5.827 -0.1411  0.1177  0.1101
  763loPI   C5A12203  14.966  10.895   6.086  0.0130  0.2689 -0.0069
  763loPI   C6A12204  14.875  10.820   6.478 -0.1708 -0.0082 -0.0936
  763loPI   C1B12205  14.637  11.410   4.786  0.0088 -0.0174  0.2247
  763loPI   C2B12206  14.550  11.461   5.210  0.0198  0.0212  0.0122
  763loPI   C3B12207  14.672  11.559   5.557 -0.0999  0.0644 -0.1244
  763loPI   C4B12208  14.607  11.413   5.961 -0.0539  0.0265 -0.1245
  764loPI    C112209  18.413  19.197   4.031 -0.1096 -0.1666 -0.0465
  764loPI    C212210  18.201  19.526   3.946 -0.0797 -0.0936  0.1563
  764loPI    C312211  18.221  19.227   3.681 -0.0885  0.0769 -0.0395
  764loPI   PO412212  18.363  19.166   4.366  0.2323  0.2833  0.0529
  764loPI   GL112213  18.315  19.189   4.746 -0.1536  0.2155 -0.2276
  764loPI   GL212214  18.302  18.866   4.883  0.1424  0.0816 -0.2578
  764loPI   C1A12215  18.421  19.348   5.211 -0.2336  0.0415 -0.1300
  764loPI   C2A12216  18.465  19.252   5.555 -0.3446 -0.1058 -0.0705
  764loPI   C3A12217  18.592  19.156   6.072 -0.0192  0.3515  0.0727
  764loPI   C4A12218  18.507  19.244   6.483  0.2292  0.3708 -0.2031
  764loPI   C5A12219  18.577  19.552   6.728 -0.0809 -0.1703  0.0960
  764loPI   C6A12220  18.948  19.715   6.830  0.3154 -0.3164 -0.1656
  764loPI   C1B12221  18.239  18.881   5.301  0.0006  0.2345 -0.1073
  764loPI   C2B12222  18.335  18.772   5.697  0.1668 -0.0225 -0.1878
  764loPI   C3B12223  18.222  18.727   6.166 -0.0289  0.1590  0.4255
  764loPI   C4B12224  18.115  18.781   6.675 -0.3254 -0.0721  0.0658
  765loPI    C112225  15.507   2.955   3.978  0.2035  0.0163 -0.2438
  765loPI    C212226  15.188   3.172   3.874  0.0806 -0.0583 -0.0269
  765loPI    C312227  15.415   3.004   3.591 -0.0688 -0.0007 -0.1830
  765loPI   PO412228  15.518   2.856   4.204 -0.1650 -0.1860 -0.2240
  765loPI   GL112229  15.497   3.029   4.596  0.0772 -0.2961 -0.0694
  765loPI   GL212230  15.267   2.842   4.610 -0.0692 -0.0057 -0.3610
  765loPI   C1A12231  15.680   3.179   4.952 -0.0402  0.4803  0.1028
  765loPI   C2A12232  15.603   3.096   5.456 -0.0700  0.1604 -0.0175
  765loPI   C3A12233  15.575   2.894   5.784 -0.0817  0.2277  0.1245
  765loPI   C4A12234  15.391   2.923   6.258  0.2677  0.1155 -0.2726
  765loPI   C5A12235  15.272   2.601   6.594 -0.1044 -0.1261  0.2747
  765loPI   C6A12236  15.155   2.360   6.928  0.2087  0.0872  0.1503
  765loPI   C1B12237  15.354   2.815   5.067 -0.1164 -0.1208  0.0257
  765loPI   C2B12238  15.200   2.659   5.481 -0.4219 -0.2441  0.0305
  765loPI   C3B12239  14.885   2.809   5.751  0.5239 -0.1878 -0.0367
  765loPI   C4B12240  14.870   2.982   6.065  0.0025 -0.3393 -0.0055
  766loPI    C112241   1.999  19.498   4.573  0.0954 -0.3889  0.0456
  766loPI    C212242   2.377  19.466   4.700  0.2111 -0.0824 -0.2084
  766loPI    C312243   2.299  19.623   4.340 -0.1665 -0.0227 -0.1052
  766loPI   PO412244   1.898  19.167   4.716 -0.2142 -0.4324  0.2740
  766loPI   GL112245   1.708  19.103   5.122  0.3058 -0.0383 -0.3258
  766loPI   GL212246   2.004  18.952   5.305 -0.1710 -0.0878  0.0021
  766loPI   C1A12247   1.460  19.375   5.398 -0.1204  0.0608  0.1218
  766loPI   C2A12248   1.354  19.661   5.628 -0.0943  0.0065 -0.2421
  766loPI   C3A12249   1.430  19.918   5.923  0.1573  0.0105 -0.1576
  766loPI   C4A12250   1.694  20.051   6.212  0.0735  0.1670  0.0258
  766loPI   C5A12251   1.634  20.147   6.656  0.1721  0.1284 -0.2230
  766loPI   C6A12252   1.775  20.416   6.911 -0.0332 -0.0839 -0.2360
  766loPI   C1B12253   1.818  19.150   5.708 -0.0442  0.1704  0.1467
  766loPI   C2B12254   1.385  19.220   5.949 -0.0061  0.0942 -0.0514
  766loPI   C3B12255   1.049  19.471   6.210 -0.0796 -0.2619  0.1039
  766loPI   C4B12256   0.660  19.690   6.271  0.2136  0.4141 -0.1218
  767loPI    C112257   3.184  15.291   4.616 -0.1291  0.0653 -0.0961
  767loPI    C212258   3.145  15.021   4.323  0.1005 -0.1403  0.0586
  767loPI    C312259   3.507  15.163   4.418  0.0203 -0.0280  0.2017
  767loPI   PO412260   3.013  15.277   4.778  0.2608  0.2193  0.2181
  767loPI   GL112261   2.693  15.100   5.090  0.4654 -0.0942  0.0718
  767loPI   GL212262   2.790  14.779   5.148 -0.2103 -0.1490  0.0277
  767loPI   C1A12263   2.656  15.248   5.558 -0.0337 -0.2372  0.1430
  767loPI   C2A12264   2.607  15.414   5.975  0.0689  0.1620  0.1232
  767loPI   C3A12265   2.656  15.469   6.458 -0.1421 -0.3122 -0.0684
  767loPI   C4A12266   2.818  15.414   6.890  0.0358 -0.2869  0.0549
  767loPI   C5A12267   2.998  15.115   7.243 -0.0055 -0.0317  0.3296
  767loPI   C6A12268   3.182  14.953   7.647 -0.0069 -0.0572 -0.1355
  767loPI   C1B12269   2.703  14.546   5.457 -0.0401  0.3172 -0.1835
  767loPI   C2B12270   2.744  14.307   5.847 -0.3522  0.3450 -0.2512
  767loPI   C3B12271   2.540  14.495   6.243 -0.2589 -0.1220 -0.0190
  767loPI   C4B12272   2.590  14.555   6.671  0.0272  0.2528 -0.1540
  768loPI    C112273   2.343  15.032   4.375 -0.3232 -0.3300 -0.2359
  768loPI    C212274   2.657  14.917   4.594 -0.3212  0.2553  0.0897
  768loPI    C312275   2.658  14.861   4.198  0.1928  0.2478  0.0844
  768loPI   PO412276   2.165  15.257   4.439  0.2427 -0.3871  0.3738
  768loPI   GL112277   2.041  15.282   4.846 -0.0404  0.1581  0.0917
  768loPI   GL212278   1.718  15.402   4.953 -0.0295 -0.2032  0.0358
  768loPI   C1A12279   2.154  15.219   5.312  0.0483  0.0826 -0.1127
  768loPI   C2A12280   2.277  14.851   5.487 -0.0573  0.1332  0.0306
  768loPI   C3A12281   2.477  14.948   5.916 -0.0866 -0.1841  0.2370
  768loPI   C4A12282   2.531  14.965   6.323 -0.3005 -0.2215  0.2211
  768loPI   C5A12283   2.319  15.086   6.709  0.1134  0.0182 -0.1821
  768loPI   C6A12284   2.543  14.938   7.120  0.0938  0.0901  0.1360
  768loPI   C1B12285   1.398  15.458   5.222 -0.1192  0.0314  0.1647
  768loPI   C2B12286   1.169  15.449   5.609  0.0184  0.1493 -0.0446
  768loPI   C3B12287   0.958  15.799   5.839  0.0351 -0.0314  0.0126
  768loPI   C4B12288   0.756  15.761   6.233  0.0066 -0.0724  0.0578
  769loPI    C112289  17.855   4.637   4.084 -0.0998  0.0703  0.1079
  769loPI    C212290  17.835   4.567   3.691 -0.2237  0.1805  0.0937
  769loPI    C312291  17.508   4.680   3.890 -0.2694 -0.3152  0.3150
  769loPI   PO412292  18.105   4.703   4.188 -0.0787  0.1483  0.3256
  769loPI   GL112293  18.248   4.674   4.607  0.3231  0.3186 -0.1052
  769loPI   GL212294  18.332   4.420   4.766 -0.2006 -0.0447 -0.5120
  769loPI   C1A12295  18.600   4.783   4.925 -0.3637 -0.0244 -0.2512
  769loPI   C2A12296  18.948   4.963   5.255  0.0390  0.0041 -0.1777
  769loPI   C3A12297  19.025   4.987   5.643  0.0452 -0.1439  0.0388
  769loPI   C4A12298  18.802   5.030   6.036 -0.2545 -0.0198  0.3880
  769loPI   C5A12299  18.903   4.894   6.428 -0.3229 -0.3940 -0.1752
  769loPI   C6A12300  19.058   4.873   6.854 -0.1566 -0.0029 -0.0803
  769loPI   C1B12301  18.124   4.417   5.185 -0.1124 -0.1765  0.0414
  769loPI   C2B12302  18.140   4.492   5.716 -0.2380 -0.0121  0.0811
  769loPI   C3B12303  17.997   4.463   6.064 -0.0580  0.1965  0.0777
  769loPI   C4B12304  18.156   4.427   6.505  0.0959 -0.0279  0.0201
  770loPI    C112305   6.774  14.806   4.564  0.0847 -0.0089 -0.0817
  770loPI    C212306   6.916  14.708   4.204  0.0590 -0.0323 -0.0855
  770loPI    C312307   6.554  14.875   4.237  0.0268 -0.1057 -0.0637
  770loPI   PO412308   6.872  14.598   4.745 -0.2906 -0.1988 -0.1475
  770loPI   GL112309   6.851  14.343   5.106 -0.2089  0.0793  0.1979
  770loPI   GL212310   7.003  14.671   5.204  0.0898 -0.0985 -0.0849
  770loPI   C1A12311   6.783  14.350   5.565  0.1931  0.3139  0.1071
  770loPI   C2A12312   6.831  14.187   5.923  0.1367  0.0522 -0.2697
  770loPI   C3A12313   6.670  14.135   6.353  0.0532  0.0729  0.2868
  770loPI   C4A12314   6.378  14.341   6.645  0.3040  0.1573  0.3333
  770loPI   C5A12315   5.997  14.183   6.829 -0.1165  0.0633  0.2707
  770loPI   C6A12316   5.736  13.877   6.704  0.2286 -0.0697 -0.2548
  770loPI   C1B12317   7.070  14.689   5.737 -0.1581 -0.0887 -0.2338
  770loPI   C2B12318   7.124  14.873   6.127  0.0059  0.3234 -0.0555
  770loPI   C3B12319   7.235  14.810   6.492 -0.0763 -0.1435  0.0761
  770loPI   C4B12320   7.237  14.719   6.910 -0.0474  0.2457 -0.1716
  771loPI    C112321  10.960   0.213   4.446 -0.1145  0.1533 -0.0684
  771loPI    C212322  10.689   0.032   4.678  0.0425  0.0729  0.0542
  771loPI    C312323  10.680  -0.020   4.281  0.0359 -0.1387  0.0810
  771loPI   PO412324  11.148   0.204   4.652  0.0226  0.1834  0.0247
  771loPI   GL112325  11.274   0.148   5.086 -0.1710 -0.1886 -0.1463
  771loPI   GL212326  10.964   0.074   5.152 -0.3958 -0.0379 -0.0858
  771loPI   C1A12327  11.077   0.009   5.616  0.0816 -0.3384  0.0767
  771loPI   C2A12328  10.885  -0.005   6.091  0.1152 -0.0204 -0.1686
  771loPI   C3A12329  10.624   0.027   6.472  0.1212  0.2480  0.1435
  771loPI   C4A12330  10.300  -0.190   6.633 -0.3100  0.1845 -0.1908
  771loPI   C5A12331   9.864  -0.451   6.591 -0.5191  0.0788 -0.0918
  771loPI   C6A12332   9.541  -0.658   6.737  0.1695  0.1168  0.2662
  771loPI   C1B12333  10.857   0.456   5.435  0.1784 -0.2077 -0.0526
  771loPI   C2B12334  10.982   0.609   5.758  0.1743 -0.2912  0.0396
  771loPI   C3B12335  11.037   0.717   6.176 -0.2861 -0.0120  0.2782
  771loPI   C4B12336  11.167   0.784   6.637  0.0572  0.1849  0.1201
  772loPI    C112337  14.471   2.484   4.102 -0.1452 -0.1059 -0.1596
  772loPI    C212338  14.306   2.120   4.078  0.1087 -0.2179 -0.2342
  772loPI    C312339  14.249   2.386   3.784 -0.0744 -0.1978 -0.1812
  772loPI   PO412340  14.619   2.473   4.284 -0.0199  0.0556 -0.0888
  772loPI   GL112341  14.663   2.393   4.719 -0.2217  0.3518 -0.0149
  772loPI   GL212342  14.979   2.374   4.654  0.0617 -0.3264  0.0450
  772loPI   C1A12343  14.783   2.627   5.076  0.0653 -0.1476  0.0254
  772loPI   C2A12344  14.824   2.945   5.254 -0.1269 -0.2213  0.1470
  772loPI   C3A12345  15.150   3.186   5.552 -0.1192  0.2469  0.1358
  772loPI   C4A12346  15.292   3.351   5.945  0.0477  0.2276 -0.1290
  772loPI   C5A12347  15.255   3.479   6.337  0.3385  0.0963  0.1371
  772loPI   C6A12348  14.877   3.581   6.644  0.0818  0.0434  0.3001
  772loPI   C1B12349  15.304   2.410   4.858  0.0361  0.3953 -0.2489
  772loPI   C2B12350  15.461   2.284   5.311 -0.2092  0.1340 -0.1527
  772loPI   C3B12351  15.455   2.276   5.724 -0.0536 -0.0750  0.0330
  772loPI   C4B12352  15.297   2.530   5.998  0.3906  0.0273 -0.3463
  773loPI    C112353   7.814   4.466   4.681 -0.0385 -0.2033  0.0962
  773loPI    C212354   7.890   4.287   4.331  0.1190 -0.1121  0.0828
  773loPI    C312355   7.633   4.593   4.347  0.0133 -0.1996  0.0695
  773loPI   PO412356   8.037   4.453   4.827  0.3277 -0.0432 -0.0578
  773loPI   GL112357   8.385   4.523   5.237  0.4569 -0.3253  0.5356
  773loPI   GL212358   8.332   4.105   5.137  0.0357  0.0805 -0.2111
  773loPI   C1A12359   8.366   4.434   5.648 -0.0218  0.0458  0.3345
  773loPI   C2A12360   8.261   4.068   5.934  0.3012  0.3194 -0.1021
  773loPI   C3A12361   8.186   3.631   6.035  0.2095 -0.0157 -0.0562
  773loPI   C4A12362   8.091   3.392   6.480 -0.1876 -0.0115  0.2590
  773loPI   C5A12363   7.746   3.467   6.790 -0.4681 -0.0941  0.4083
  773loPI   C6A12364   7.557   3.417   7.231 -0.0590 -0.2346 -0.1048
  773loPI   C1B12365   8.375   3.812   5.405 -0.1788  0.1408 -0.0100
  773loPI   C2B12366   7.984   3.563   5.579 -0.1223  0.0457  0.2613
  773loPI   C3B12367   7.678   3.476   5.991 -0.2032  0.0657 -0.1041
  773loPI   C4B12368   7.730   3.727   6.347  0.1004 -0.0878 -0.0643
  774loPI    C112369   1.676   5.069   4.190  0.0721  0.1670  0.2159
  774loPI    C212370   1.738   5.251   3.839 -0.0284 -0.1093  0.0510
  774loPI    C312371   1.930   4.911   3.924  0.3307  0.1817  0.4493
  774loPI   PO412372   1.684   5.286   4.389  0.2827 -0.2371  0.0126
  774loPI   GL112373   1.820   5.236   4.811 -0.2433  0.0917 -0.1817
  774loPI   GL212374   1.431   5.209   4.873 -0.2862  0.1096 -0.1399
  774loPI   C1A12375   1.775   5.529   5.082 -0.0037  0.0182  0.2472
  774loPI   C2A12376   1.862   5.511   5.501  0.0044 -0.0206 -0.3151
  774loPI   C3A12377   1.587   5.717   5.804 -0.0553  0.1907 -0.2627
  774loPI   C4A12378   1.586   5.956   6.189  0.1500 -0.0995 -0.1627
  774loPI   C5A12379   1.646   5.856   6.550 -0.0356 -0.1149 -0.0626
  774loPI   C6A12380   1.587   5.402   6.605 -0.2682 -0.3244  0.1721
  774loPI   C1B12381   1.396   5.335   5.285  0.1274 -0.1248 -0.0912
  774loPI   C2B12382   1.294   5.295   5.668 -0.1308 -0.0458 -0.1981
  774loPI   C3B12383   1.417   5.266   6.163  0.0572 -0.2462  0.1604
  774loPI   C4B12384   1.150   5.149   6.538 -0.1956  0.0675 -0.2167
  775loPI    C112385   4.951   9.707   4.699 -0.1457 -0.1660 -0.0625
  775loPI    C212386   4.820   9.997   4.941  0.1361 -0.1755  0.1049
  775loPI    C312387   4.924  10.082   4.565 -0.1301 -0.1279  0.0402
  775loPI   PO412388   5.037   9.565   4.853  0.3265 -0.2454 -0.3691
  775loPI   GL112389   4.929   9.251   5.148 -0.1727  0.0360  0.0934
  775loPI   GL212390   5.170   9.086   5.025 -0.2924 -0.2321 -0.0586
  775loPI   C1A12391   4.766   9.193   5.445 -0.4821 -0.4476  0.0486
  775loPI   C2A12392   4.714   9.273   5.816 -0.0738 -0.0008 -0.2290
  775loPI   C3A12393   4.581   9.449   6.232 -0.0894  0.0700  0.4221
  775loPI   C4A12394   4.590   9.782   6.447  0.1709  0.1405 -0.0829
  775loPI   C5A12395   4.639  10.232   6.535  0.0018 -0.0489  0.0807
  775loPI   C6A12396   4.750  10.426   6.882  0.2438 -0.0220 -0.1348
  775loPI   C1B12397   5.242   8.949   5.470 -0.0589  0.1548 -0.2089
  775loPI   C2B12398   5.182   9.115   5.878 -0.0298  0.2187  0.1795
  775loPI   C3B12399   5.217   9.178   6.305 -0.1813  0.0303 -0.2473
  775loPI   C4B12400   5.362   9.375   6.681  0.0222 -0.5411  0.3143
  776loPI    C112401   8.896   4.079   4.564 -0.4875  0.0414  0.1560
  776loPI    C212402   8.666   4.334   4.357 -0.1150  0.1161 -0.1793
  776loPI    C312403   8.669   3.945   4.263 -0.0563  0.1259 -0.2182
  776loPI   PO412404   8.848   4.159   4.788  0.2199 -0.0900 -0.2304
  776loPI   GL112405   8.942   4.466   5.058  0.1433 -0.0112 -0.1969
  776loPI   GL212406   9.192   4.198   5.163  0.0976 -0.0154 -0.0308
  776loPI   C1A12407   8.898   4.421   5.522  0.2011  0.2414  0.3760
  776loPI   C2A12408   8.727   4.255   5.910  0.0707  0.2055  0.1519
  776loPI   C3A12409   8.526   4.256   6.222 -0.2689 -0.1466  0.0869
  776loPI   C4A12410   8.382   4.676   6.454  0.2730 -0.0759 -0.0059
  776loPI   C5A12411   8.230   4.859   6.761 -0.2115 -0.1581  0.2097
  776loPI   C6A12412   8.350   5.121   7.087  0.2101  0.0796  0.2416
  776loPI   C1B12413   9.332   3.932   5.577  0.1843 -0.0140  0.4257
  776loPI   C2B12414   9.487   3.960   5.953 -0.0404  0.1475  0.0577
  776loPI   C3B12415   9.753   4.323   5.992 -0.1235 -0.0358 -0.0712
  776loPI   C4B12416  10.038   4.568   6.131 -0.0380 -0.2742 -0.2404
  777loPI    C112417   2.603  17.147   4.437 -0.0337 -0.0574  0.1155
  777loPI    C212418   2.442  17.506   4.511 -0.4029 -0.1803 -0.0660
  777loPI    C312419   2.616  17.433   4.158  0.0399 -0.0564  0.1199
  777loPI   PO412420   2.730  17.146   4.642  0.0296  0.0343 -0.0926
  777loPI   GL112421   2.785  17.130   5.123  0.0061  0.2442  0.4316
  777loPI   GL212422   2.822  16.782   5.232 -0.2865 -0.3368  0.2156
  777loPI   C1A12423   2.520  17.048   5.492  0.0126 -0.1066 -0.1378
  777loPI   C2A12424   2.436  16.975   5.933  0.0155 -0.2085 -0.0007
  777loPI   C3A12425   2.399  16.801   6.380 -0.0362  0.0303 -0.0587
  777loPI   C4A12426   2.475  16.791   6.790 -0.0603 -0.1676  0.1084
  777loPI   C5A12427   2.535  16.814   7.166  0.0415 -0.0915  0.1448
  777loPI   C6A12428   2.820  16.891   7.483 -0.2627 -0.4297  0.3319
  777loPI   C1B12429   2.615  16.592   5.657 -0.1809 -0.4559  0.0756
  777loPI   C2B12430   2.760  16.493   6.045 -0.2275  0.0952  0.0285
  777loPI   C3B12431   2.714  16.480   6.457 -0.1067  0.1116  0.1932
  777loPI   C4B12432   2.882  16.567   6.765 -0.0725  0.1897  0.0476
  778loPI    C112433  11.050  16.536   4.205 -0.1661  0.1780  0.1014
  778loPI    C212434  10.823  16.786   3.991  0.0349  0.1931 -0.0986
  778loPI    C312435  11.192  16.696   3.867  0.0936  0.0712  0.1573
  778loPI   PO412436  10.981  16.573   4.610  0.0161  0.0765 -0.2054
  778loPI   GL112437  10.989  16.545   5.176  0.0253 -0.2448  0.2401
  778loPI   GL212438  11.260  16.635   5.024 -0.1608 -0.3145 -0.0185
  778loPI   C1A12439  11.115  16.332   5.476 -0.0845 -0.0427  0.0395
  778loPI   C2A12440  11.197  16.112   5.923 -0.1701  0.1804  0.0912
  778loPI   C3A12441  10.992  15.817   6.175 -0.1036  0.2361 -0.0715
  778loPI   C4A12442  10.701  15.511   6.288 -0.0408  0.2743 -0.2103
  778loPI   C5A12443  10.938  15.134   6.099  0.0331 -0.3082 -0.2832
  778loPI   C6A12444  11.106  15.118   5.721  0.3727 -0.2360  0.1199
  778loPI   C1B12445  11.278  16.895   5.416  0.0022  0.0501  0.1792
  778loPI   C2B12446  11.349  17.209   5.781 -0.1356 -0.1349 -0.1745
  778loPI   C3B12447  11.542  17.429   6.062  0.2122  0.0241  0.1099
  778loPI   C4B12448  11.368  17.475   6.484 -0.0699  0.0992 -0.2870
  779loPI    C112449  12.203   5.703   4.417 -0.2398  0.0052 -0.1501
  779loPI    C212450  12.211   5.333   4.265  0.2991 -0.0493 -0.0086
  779loPI    C312451  12.410   5.629   4.083  0.0372  0.1293 -0.0098
  779loPI   PO412452  12.161   5.780   4.712 -0.0237  0.1069  0.5243
  779loPI   GL112453  11.947   5.666   5.081  0.0632 -0.1443 -0.0647
  779loPI   GL212454  11.974   5.405   5.214  0.0834  0.2082  0.0149
  779loPI   C1A12455  12.066   6.005   5.316  0.1744 -0.0096  0.0223
  779loPI   C2A12456  12.211   6.242   5.533 -0.3636 -0.0494 -0.1203
  779loPI   C3A12457  12.182   6.464   5.928  0.2729 -0.2070 -0.0398
  779loPI   C4A12458  12.409   6.335   6.292 -0.2466 -0.1251  0.4385
  779loPI   C5A12459  12.810   6.151   6.534 -0.1453  0.0806 -0.0625
  779loPI   C6A12460  13.085   5.952   6.858  0.2707  0.2074 -0.2108
  779loPI   C1B12461  11.833   5.467   5.611 -0.1967  0.0388 -0.1044
  779loPI   C2B12462  11.799   5.531   6.103  0.0945 -0.0273 -0.2180
  779loPI   C3B12463  11.838   5.656   6.547 -0.1120  0.0283  0.0726
  779loPI   C4B12464  12.118   5.547   6.932  0.2585  0.2347 -0.0389
  780loPI    C112465  16.981   5.142   4.308 -0.2612 -0.2831  0.2274
  780loPI    C212466  17.367   5.048   4.258 -0.2154  0.0371 -0.0533
  780loPI    C312467  17.083   4.825   4.086 -0.1510 -0.1185  0.0401
  780loPI   PO412468  16.993   5.204   4.604  0.0351 -0.0246  0.0478
  780loPI   GL112469  16.695   5.071   4.965  0.0993 -0.0873  0.1119
  780loPI   GL212470  16.354   5.287   5.067 -0.0931  0.3559 -0.1687
  780loPI   C1A12471  17.018   4.874   5.202 -0.1556 -0.0785  0.0481
  780loPI   C2A12472  17.196   4.771   5.598 -0.2934  0.1370 -0.0833
  780loPI   C3A12473  16.887   4.686   6.055 -0.0604 -0.3431  0.2978
  780loPI   C4A12474  16.893   4.410   6.337  0.0381 -0.0303  0.2197
  780loPI   C5A12475  17.133   4.053   6.418  0.1519  0.1030  0.2270
  780loPI   C6A12476  17.192   3.964   6.021 -0.0288  0.3063 -0.1264
  780loPI   C1B12477  16.075   5.033   5.421 -0.0468 -0.2255 -0.3750
  780loPI   C2B12478  15.905   4.818   5.820  0.1066  0.0296 -0.1065
  780loPI   C3B12479  15.820   4.986   6.239 -0.1622 -0.2048 -0.2867
  780loPI   C4B12480  15.637   4.995   6.733  0.0964 -0.2590  0.2563
  781loPI    C112481  15.274   6.990   4.577 -0.1481  0.0837 -0.0594
  781loPI    C212482  15.557   6.993   4.295 -0.2600 -0.2189 -0.1791
  781loPI    C312483  15.172   7.022   4.191 -0.3045 -0.3828 -0.0624
  781loPI   PO412484  15.401   7.027   4.809  0.0964  0.1396  0.1528
  781loPI   GL112485  15.511   6.905   5.257  0.1080  0.4722 -0.1434
  781loPI   GL212486  15.781   7.124   5.183  0.2957 -0.1416 -0.0917
  781loPI   C1A12487  15.500   7.147   5.620  0.2965  0.1722  0.1881
  781loPI   C2A12488  15.662   7.193   6.061  0.4753  0.3399  0.0570
  781loPI   C3A12489  15.882   7.435   6.233  0.2135 -0.0857  0.1294
  781loPI   C4A12490  15.984   7.734   6.480 -0.0839  0.0424  0.2696
  781loPI   C5A12491  16.309   7.821   6.687  0.1628 -0.1303  0.0260
  781loPI   C6A12492  16.377   8.166   6.879  0.1128  0.2288 -0.0109
  781loPI   C1B12493  15.900   6.891   5.573  0.0389  0.2406  0.3771
  781loPI   C2B12494  16.143   6.967   5.959  0.3431  0.0859 -0.1595
  781loPI   C3B12495  16.344   7.368   6.177 -0.1656  0.3574 -0.0483
  781loPI   C4B12496  16.606   7.614   6.357  0.0915 -0.2393 -0.0798
  782loPI    C112497  19.802   4.956   4.166 -0.1632 -0.1404  0.0345
  782loPI    C212498  19.488   4.842   4.387 -0.1036 -0.0219  0.1822
  782loPI    C312499  19.491   4.773   3.993 -0.3175 -0.0184  0.1790
  782loPI   PO412500  20.024   4.866   4.413  0.0833  0.2460  0.3794
  782loPI   GL112501  20.182   4.746   4.884  0.0991  0.0902 -0.4155
  782loPI   GL212502  19.834   4.690   4.817  0.1086 -0.1921 -0.0776
  782loPI   C1A12503  20.010   5.043   5.164  0.2315  0.0785 -0.0732
  782loPI   C2A12504  19.876   5.024   5.552  0.3245 -0.1463  0.0029
  782loPI   C3A12505  19.780   4.812   5.888  0.0334 -0.1882  0.1222
  782loPI   C4A12506  19.782   4.774   6.330  0.1305  0.0249  0.2169
  782loPI   C5A12507  19.653   4.958   6.749  0.3958 -0.1882  0.2908
  782loPI   C6A12508  19.496   5.293   7.028 -0.1512 -0.0224 -0.0617
  782loPI   C1B12509  19.481   4.984   4.972  0.2759 -0.4004  0.1331
  782loPI   C2B12510  19.474   5.278   5.325 -0.3122  0.0725  0.2520
  782loPI   C3B12511  19.418   5.206   5.839  0.0044  0.0417 -0.0779
  782loPI   C4B12512  19.397   5.157   6.301  0.2494 -0.2919 -0.1363
  783loPI    C112513  15.840   4.387   4.395 -0.0020 -0.1620  0.0623
  783loPI    C212514  15.651   4.535   4.715  0.0851 -0.0382  0.0571
  783loPI    C312515  15.468   4.268   4.480 -0.0695  0.0529  0.0730
  783loPI   PO412516  16.139   4.317   4.545 -0.2221  0.3113 -0.0238
  783loPI   GL112517  16.556   4.230   4.751 -0.0053 -0.0262 -0.2833
  783loPI   GL212518  16.793   4.528   4.949 -0.3614 -0.0092  0.1257
  783loPI   C1A12519  16.344   3.950   5.031 -0.1070  0.0835 -0.0409
  783loPI   C2A12520  16.302   3.592   5.353 -0.0364  0.0002  0.1181
  783loPI   C3A12521  16.267   3.568   5.741  0.1771  0.1566  0.1480
  783loPI   C4A12522  16.480   3.833   6.041  0.1856  0.2743 -0.0518
  783loPI   C5A12523  16.472   3.928   6.550 -0.0890  0.1325  0.2621
  783loPI   C6A12524  16.627   3.613   6.958  0.2117  0.3822 -0.0333
  783loPI   C1B12525  16.717   4.581   5.493 -0.2131  0.0292 -0.0021
  783loPI   C2B12526  16.461   4.676   5.872  0.2323 -0.0568 -0.1851
  783loPI   C3B12527  16.498   4.809   6.370  0.0206 -0.2496  0.0331
  783loPI   C4B12528  16.176   5.042   6.641  0.3504  0.1285  0.0921
  784loPI    C112529   8.554   2.687   4.731  0.0219 -0.0176  0.1183
  784loPI    C212530   8.370   2.626   4.381  0.0527 -0.1958  0.1318
  784loPI    C312531   8.770   2.626   4.400  0.0517 -0.1224  0.1566
  784loPI   PO412532   8.330   2.667   4.906  0.1840  0.0590  0.0564
  784loPI   GL112533   8.329   2.466   5.193 -0.0199 -0.0015  0.0432
  784loPI   GL212534   8.330   2.154   5.213  0.2248 -0.2903 -0.0103
  784loPI   C1A12535   7.961   2.403   5.517  0.3024  0.1540  0.1186
  784loPI   C2A12536   8.003   2.392   5.942 -0.2003 -0.0018 -0.2695
  784loPI   C3A12537   7.964   2.334   6.310  0.3212 -0.3592  0.0909
  784loPI   C4A12538   7.821   2.220   6.805  0.1458  0.3238  0.1736
  784loPI   C5A12539   7.808   2.135   7.135 -0.3131 -0.1258 -0.1998
  784loPI   C6A12540   7.828   2.182   7.592  0.1626 -0.1512 -0.2020
  784loPI   C1B12541   8.455   2.242   5.735 -0.0796  0.0867 -0.1907
  784loPI   C2B12542   8.786   2.118   6.014 -0.1351  0.0472  0.4067
  784loPI   C3B12543   8.909   1.829   6.286  0.0605  0.0401  0.1725
  784loPI   C4B12544   8.807   1.839   6.611  0.1680  0.0267 -0.0057
  785loPI    C112545  17.445   4.285   4.210 -0.1604  0.2460  0.0849
  785loPI    C212546  17.109   4.343   4.001 -0.0558  0.2977 -0.0705
  785loPI    C312547  17.428   4.177   3.825 -0.1514 -0.1928  0.2020
  785loPI   PO412548  17.491   4.492   4.411  0.0651 -0.1127  0.0040
  785loPI   GL112549  17.750   4.496   4.704  0.0046 -0.1513 -0.1371
  785loPI   GL212550  17.822   4.694   4.945 -0.0169 -0.0207 -0.3385
  785loPI   C1A12551  17.673   4.205   5.084 -0.2004 -0.1364  0.3001
  785loPI   C2A12552  17.592   4.011   5.485 -0.1930  0.1665  0.1626
  785loPI   C3A12553  17.549   4.212   5.853 -0.2928 -0.1663 -0.0382
  785loPI   C4A12554  17.292   4.505   6.094 -0.0612  0.1231  0.4122
  785loPI   C5A12555  17.302   4.942   6.344 -0.0989 -0.4758 -0.3106
  785loPI   C6A12556  17.491   5.289   6.209  0.0310 -0.0349 -0.2417
  785loPI   C1B12557  17.627   4.612   5.381 -0.0452 -0.4535 -0.2211
  785loPI   C2B12558  17.654   4.726   5.858 -0.2646 -0.2200 -0.3324
  785loPI   C3B12559  17.819   4.893   6.306  0.0807  0.1276 -0.2806
  785loPI   C4B12560  17.791   4.746   6.839 -0.0367 -0.1957  0.0474
  786loPI    C112561   8.410  15.214   4.599  0.0866 -0.3373 -0.1528
  786loPI    C212562   8.115  14.972   4.479  0.0123 -0.3015 -0.0442
  786loPI    C312563   8.486  14.920   4.338 -0.0747 -0.2513 -0.2982
  786loPI   PO412564   8.416  15.263   4.836 -0.1663  0.1095  0.1016
  786loPI   GL112565   8.645  15.198   5.269 -0.0820  0.2107 -0.4966
  786loPI   GL212566   8.237  15.093   5.309 -0.2025  0.1713  0.0392
  786loPI   C1A12567   8.744  15.600   5.513 -0.5794  0.0021 -0.1962
  786loPI   C2A12568   8.822  15.880   5.775 -0.1750 -0.1647 -0.1104
  786loPI   C3A12569   8.987  15.913   6.221 -0.2017  0.1785  0.3468
  786loPI   C4A12570   9.110  16.257   6.536 -0.1124 -0.1457  0.1561
  786loPI   C5A12571   8.987  16.678   6.386 -0.1544  0.0612 -0.0055
  786loPI   C6A12572   9.013  16.780   5.911 -0.1472  0.0195 -0.0894
  786loPI   C1B12573   8.414  15.190   5.720 -0.0044 -0.2410 -0.1738
  786loPI   C2B12574   8.692  15.436   5.989 -0.0928  0.1926 -0.0740
  786loPI   C3B12575   8.774  15.388   6.386  0.1684  0.0752  0.0498
  786loPI   C4B12576   8.671  15.074   6.671  0.0545 -0.2080 -0.0405
  787loPI    C112577  17.575   3.324   3.872 -0.0725  0.1656  0.0302
  787loPI    C212578  17.825   3.599   3.726 -0.0643  0.0947 -0.0900
  787loPI    C312579  17.707   3.294   3.496 -0.1403  0.0440  0.0157
  787loPI   PO412580  17.738   3.321   4.147  0.1514  0.1314  0.1761
  787loPI   GL112581  17.635   3.288   4.630  0.0925 -0.0009  0.1336
  787loPI   GL212582  17.515   3.504   4.766  0.0882 -0.2629 -0.2128
  787loPI   C1A12583  17.702   3.067   4.974  0.1312 -0.2841  0.3212
  787loPI   C2A12584  17.542   2.968   5.460 -0.1685 -0.0067  0.2541
  787loPI   C3A12585  17.603   2.965   5.981  0.1720 -0.0342  0.1641
  787loPI   C4A12586  17.314   2.891   6.294 -0.1993 -0.0227 -0.1301
  787loPI   C5A12587  17.166   2.985   6.633  0.2021 -0.1445 -0.0157
  787loPI   C6A12588  16.875   2.795   6.904  0.1112  0.0398  0.1627
  787loPI   C1B12589  17.346   3.783   5.111  0.1337  0.0186  0.2930
  787loPI   C2B12590  17.040   3.785   5.474 -0.0950  0.0866 -0.0703
  787loPI   C3B12591  16.743   3.530   5.710  0.1898 -0.3359 -0.1840
  787loPI   C4B12592  16.683   3.196   6.025  0.2311  0.0303  0.1198
  788loPI    C112593  14.284  11.012   3.764  0.0498 -0.0425 -0.2917
  788loPI    C212594  14.484  10.671   3.820  0.1271  0.0328 -0.0999
  788loPI    C312595  14.572  10.905   3.508  0.2605  0.0100 -0.0800
  788loPI   PO412596  14.135  10.924   4.059 -0.1200 -0.2180 -0.0485
  788loPI   GL112597  14.151  10.954   4.486  0.3170 -0.1253 -0.2090
  788loPI   GL212598  14.427  10.936   4.677  0.0395  0.0308  0.3542
  788loPI   C1A12599  14.025  11.332   4.636 -0.0096  0.1511  0.1494
  788loPI   C2A12600  14.083  11.621   4.977  0.0935 -0.4510  0.0333
  788loPI   C3A12601  14.221  11.825   5.333  0.2940 -0.4092  0.1495
  788loPI   C4A12602  14.329  11.913   5.771  0.1003 -0.0596 -0.0700
  788loPI   C5A12603  14.388  12.294   5.998 -0.0105  0.0177  0.2009
  788loPI   C6A12604  14.555  12.775   6.245 -0.0996  0.0894  0.2414
  788loPI   C1B12605  14.239  11.095   5.059 -0.2116  0.2244 -0.2446
  788loPI   C2B12606  14.176  10.953   5.504  0.0970 -0.3589 -0.1083
  788loPI   C3B12607  14.000  10.997   5.879 -0.1556  0.0204  0.2322
  788loPI   C4B12608  14.006  10.910   6.212 -0.0937 -0.1107 -0.0429
  789loPI    C112609   7.847   6.435   4.311 -0.2813  0.0223 -0.3144
  789loPI    C212610   7.838   6.055   4.435  0.1927  0.1164  0.0347
  789loPI    C312611   7.861   6.137   4.045  0.2729 -0.2175 -0.0346
  789loPI   PO412612   7.711   6.542   4.495 -0.4323  0.0549  0.2486
  789loPI   GL112613   7.607   6.684   4.942 -0.0230  0.1746  0.3109
  789loPI   GL212614   7.733   6.619   5.164  0.0723  0.0589  0.0882
  789loPI   C1A12615   7.391   6.941   5.293 -0.0325 -0.0803  0.0804
  789loPI   C2A12616   7.243   6.824   5.684 -0.3802 -0.2600 -0.1307
  789loPI   C3A12617   6.975   6.676   5.998  0.2134  0.2704  0.1489
  789loPI   C4A12618   6.959   6.446   6.298 -0.0893 -0.4429 -0.0331
  789loPI   C5A12619   7.033   6.175   6.624 -0.0957  0.1961 -0.1315
  789loPI   C6A12620   7.306   5.839   6.782  0.2026 -0.0801 -0.0764
  789loPI   C1B12621   7.668   6.509   5.558  0.1974  0.1873 -0.0442
  789loPI   C2B12622   7.319   6.365   5.921 -0.3052  0.0804 -0.2325
  789loPI   C3B12623   6.973   6.044   6.002 -0.0456  0.3576  0.0918
  789loPI   C4B12624   6.648   6.033   6.306  0.1878  0.2320 -0.2023
  790loPI    C112625   7.768   5.249   4.707  0.2934  0.0068 -0.0562
  790loPI    C212626   8.065   5.431   4.903  0.1833 -0.0274  0.1465
  790loPI    C312627   7.794   5.648   4.705  0.1420  0.0219  0.2565
  790loPI   PO412628   7.857   4.950   4.675 -0.0127  0.2730  0.0948
  790loPI   GL112629   8.086   4.882   5.062 -0.3481  0.1984 -0.0498
  790loPI   GL212630   7.813   4.749   5.123  0.1488  0.0712  0.1253
  790loPI   C1A12631   7.949   5.160   5.435  0.1712  0.3973 -0.1792
  790loPI   C2A12632   8.133   5.275   5.822  0.2067 -0.0057 -0.0538
  790loPI   C3A12633   8.125   5.406   6.178 -0.2578 -0.0891 -0.0964
  790loPI   C4A12634   8.183   5.311   6.557  0.2747  0.0254  0.1387
  790loPI   C5A12635   8.012   5.467   6.983 -0.0625 -0.1925  0.2937
  790loPI   C6A12636   7.857   5.556   7.403 -0.0612 -0.0662 -0.1972
  790loPI   C1B12637   7.953   4.632   5.546  0.2626  0.2318 -0.3114
  790loPI   C2B12638   7.798   4.894   5.871  0.4051 -0.0275  0.0776
  790loPI   C3B12639   7.890   4.987   6.279 -0.1006  0.0803  0.0866
  790loPI   C4B12640   7.742   5.144   6.688 -0.1257 -0.1491  0.2670
  791loPI    C112641   3.611  19.306   4.552  0.0687  0.0417  0.0693
  791loPI    C212642   3.808  19.634   4.673 -0.0377  0.1711 -0.1045
  791loPI    C312643   3.974  19.388   4.404  0.0462  0.0758  0.0331
  791loPI   PO412644   3.444  19.336   4.824 -0.0258  0.2254 -0.1563
  791loPI   GL112645   3.150  19.129   5.113  0.1647 -0.0554 -0.0943
  791loPI   GL212646   3.351  18.916   5.141 -0.2771  0.0867  0.0538
  791loPI   C1A12647   2.790  19.294   5.441 -0.0982  0.0013 -0.0286
  791loPI   C2A12648   2.692  19.065   5.928 -0.1549  0.0110 -0.1509
  791loPI   C3A12649   2.533  19.122   6.400 -0.2244 -0.1247  0.1126
  791loPI   C4A12650   2.361  19.038   6.795  0.1016  0.1518 -0.0173
  791loPI   C5A12651   2.327  19.118   7.218  0.1572 -0.3162  0.4360
  791loPI   C6A12652   2.627  18.984   7.298 -0.0747  0.0620  0.1614
  791loPI   C1B12653   3.604  18.910   5.484 -0.2732 -0.0096 -0.1415
  791loPI   C2B12654   3.706  19.046   5.947 -0.0234 -0.2946 -0.0159
  791loPI   C3B12655   3.728  19.361   6.246  0.1894  0.1914  0.1460
  791loPI   C4B12656   3.703  19.735   6.468 -0.1484  0.1174  0.0533
  792loPI    C112657  15.567   6.138   4.184  0.1470 -0.1328  0.0547
  792loPI    C212658  15.684   5.823   3.966 -0.0035 -0.1829  0.0445
  792loPI    C312659  15.446   6.100   3.804  0.2832  0.0390 -0.0073
  792loPI   PO412660  15.522   5.944   4.461 -0.2294  0.0189  0.1726
  792loPI   GL112661  15.522   6.169   4.873 -0.2725  0.0914  0.1046
  792loPI   GL212662  15.389   6.478   5.039 -0.1097  0.1483 -0.1372
  792loPI   C1A12663  15.200   6.058   5.312 -0.1115 -0.1813  0.1086
  792loPI   C2A12664  15.185   5.994   5.658  0.0752 -0.1592 -0.2633
  792loPI   C3A12665  14.895   5.927   5.846  0.2375 -0.0724  0.2803
  792loPI   C4A12666  14.418   5.886   6.055 -0.1580 -0.1488 -0.1801
  792loPI   C5A12667  14.341   5.530   6.319 -0.2364  0.1811  0.0243
  792loPI   C6A12668  14.343   5.145   6.608  0.2559  0.0378  0.1321
  792loPI   C1B12669  15.476   6.444   5.481  0.0402 -0.2997 -0.0046
  792loPI   C2B12670  15.626   6.696   5.936  0.1492  0.2393 -0.1709
  792loPI   C3B12671  15.736   6.553   6.283  0.6166  0.1501 -0.1423
  792loPI   C4B12672  15.886   6.390   6.639 -0.3127  0.0090 -0.1806
  793loPI    C112673   4.058   1.916   4.665 -0.1075  0.1965 -0.1087
  793loPI    C212674   4.293   2.198   4.507  0.0161  0.1563  0.0011
  793loPI    C312675   3.918   2.153   4.375  0.0344  0.2922 -0.1001
  793loPI   PO412676   4.048   1.945   4.920  0.0801  0.0767  0.0099
  793loPI   GL112677   4.228   1.972   5.343 -0.1381 -0.1437  0.1242
  793loPI   GL212678   4.534   2.011   5.456  0.1954  0.1299  0.2378
  793loPI   C1A12679   4.189   1.704   5.663 -0.0220  0.0399 -0.2004
  793loPI   C2A12680   4.171   1.537   6.138  0.3496  0.1382 -0.0806
  793loPI   C3A12681   4.341   1.379   6.444  0.1024 -0.4311  0.2323
  793loPI   C4A12682   4.136   1.254   6.801 -0.1373  0.4165 -0.0751
  793loPI   C5A12683   3.856   0.949   7.071  0.1503 -0.1974  0.0841
  793loPI   C6A12684   3.762   0.465   7.014  0.0517 -0.0746  0.1112
  793loPI   C1B12685   4.653   2.030   5.836 -0.0891  0.1235  0.0333
  793loPI   C2B12686   4.977   2.154   6.188 -0.1900  0.0368  0.0315
  793loPI   C3B12687   5.073   2.123   6.542 -0.3536 -0.1143  0.1619
  793loPI   C4B12688   4.850   2.125   6.863  0.1170 -0.0924  0.0408
  794loPI    C112689  16.926   3.020   4.052 -0.2873 -0.3405 -0.3363
  794loPI    C212690  16.718   3.233   3.786 -0.0179  0.0952 -0.2079
  794loPI    C312691  17.115   3.273   3.807 -0.0169 -0.0653  0.1423
  794loPI   PO412692  16.889   3.058   4.266 -0.2147  0.1336 -0.2015
  794loPI   GL112693  16.919   3.328   4.703 -0.1871 -0.2689 -0.0670
  794loPI   GL212694  17.138   3.093   4.736  0.1403 -0.1350  0.2909
  794loPI   C1A12695  16.787   3.457   5.124  0.0122  0.1297 -0.1294
  794loPI   C2A12696  16.585   3.173   5.392 -0.2492  0.0862 -0.1487
  794loPI   C3A12697  16.722   2.824   5.763  0.1230 -0.0713  0.1612
  794loPI   C4A12698  16.895   2.654   6.115  0.0187 -0.0571 -0.0479
  794loPI   C5A12699  17.019   2.463   6.440 -0.3088 -0.0500 -0.6057
  794loPI   C6A12700  17.265   2.476   6.746  0.0164  0.2194 -0.0040
  794loPI   C1B12701  17.223   3.265   5.170 -0.1419  0.3108 -0.0297
  794loPI   C2B12702  17.038   3.164   5.585 -0.2864  0.1573 -0.5015
  794loPI   C3B12703  17.169   3.405   5.960  0.0033  0.1646  0.1141
  794loPI   C4B12704  17.316   3.445   6.317  0.1362 -0.3518  0.0984
  795loPI    C112705  16.630  16.291   3.826  0.0382 -0.1659 -0.0448
  795loPI    C212706  16.641  16.482   3.474 -0.0007 -0.2495 -0.0919
  795loPI    C312707  16.643  16.082   3.485 -0.1665 -0.2490 -0.0028
  795loPI   PO412708  16.351  16.466   3.953 -0.0025  0.0564 -0.1920
  795loPI   GL112709  16.363  16.423   4.370 -0.0535  0.5321 -0.2112
  795loPI   GL212710  16.127  16.594   4.524  0.0500 -0.2962 -0.3268
  795loPI   C1A12711  16.332  16.073   4.634  0.1778 -0.0047 -0.1887
  795loPI   C2A12712  16.401  15.859   5.085  0.1894 -0.0246  0.0553
  795loPI   C3A12713  16.461  15.661   5.459  0.1442 -0.0513 -0.0368
  795loPI   C4A12714  16.197  15.532   5.804 -0.3826  0.0113 -0.0635
  795loPI   C5A12715  15.945  15.287   6.120  0.0863 -0.1793 -0.1149
  795loPI   C6A12716  15.840  15.232   6.561  0.0066  0.1618  0.2514
  795loPI   C1B12717  16.323  16.628   4.936 -0.3085  0.2481  0.2952
  795loPI   C2B12718  16.604  16.970   5.188  0.1800 -0.0186 -0.3256
  795loPI   C3B12719  16.893  17.211   5.477 -0.0937  0.0534 -0.3361
  795loPI   C4B12720  16.844  17.314   5.837  0.0396 -0.0154  0.1535
  796loPI    C112721  18.345   3.787   4.423  0.1392 -0.1330  0.1397
  796loPI    C212722  17.967   3.655   4.427  0.1040 -0.0348  0.1067
  796loPI    C312723  18.211   3.554   4.126  0.0751 -0.0185  0.0778
  796loPI   PO412724  18.351   3.919   4.607  0.3050 -0.0974 -0.0952
  796loPI   GL112725  17.974   3.723   4.879  0.1078 -0.0026  0.2441
  796loPI   GL212726  18.246   3.873   5.077 -0.2718  0.1427  0.0362
  796loPI   C1A12727  17.756   3.571   5.261 -0.0361  0.2853  0.1162
  796loPI   C2A12728  17.515   3.475   5.508  0.0142 -0.2214 -0.0463
  796loPI   C3A12729  17.603   3.584   5.872  0.0668 -0.0838 -0.0404
  796loPI   C4A12730  17.734   3.856   6.183 -0.3360 -0.0938  0.1728
  796loPI   C5A12731  17.559   3.877   6.581  0.1636 -0.1253  0.2727
  796loPI   C6A12732  17.585   3.727   6.998  0.1960 -0.0768  0.0068
  796loPI   C1B12733  18.104   3.968   5.501  0.0909  0.1350  0.2030
  796loPI   C2B12734  18.224   4.030   5.939 -0.1717 -0.3702  0.3179
  796loPI   C3B12735  18.468   4.080   6.323  0.0371 -0.1465  0.3193
  796loPI   C4B12736  18.650   4.442   6.617 -0.1586 -0.2493 -0.1748
  797loPI    C112737   3.509   4.057   4.801 -0.0464  0.0830 -0.0428
  797loPI    C212738   3.750   3.793   4.622 -0.2880 -0.1210 -0.0726
  797loPI    C312739   3.580   4.086   4.409 -0.1040 -0.0030 -0.0598
  797loPI   PO412740   3.513   4.029   5.095  0.0048  0.0509  0.0371
  797loPI   GL112741   3.457   4.157   5.603 -0.0708 -0.0691  0.3060
  797loPI   GL212742   3.472   4.481   5.434 -0.0635  0.0088 -0.3215
  797loPI   C1A12743   3.148   4.340   5.858  0.2293  0.0843 -0.3721
  797loPI   C2A12744   2.943   4.481   6.293  0.0772  0.4675  0.0871
  797loPI   C3A12745   2.814   4.128   6.276  0.1484 -0.2770 -0.0170
  797loPI   C4A12746   2.587   3.881   6.634  0.0403  0.2884 -0.0590
  797loPI   C5A12747   2.437   3.822   7.045  0.0306  0.0482 -0.0480
  797loPI   C6A12748   2.415   3.964   7.523  0.2179 -0.2974 -0.1159
  797loPI   C1B12749   3.794   4.543   5.733 -0.0948 -0.3181  0.0666
  797loPI   C2B12750   4.062   4.649   6.004 -0.1870 -0.2464  0.1439
  797loPI   C3B12751   4.407   4.976   6.174 -0.1887  0.2717  0.1439
  797loPI   C4B12752   4.682   4.947   6.536 -0.1028  0.1830  0.2058
  798loPI    C112753   5.364   0.152   4.263  0.1976  0.0380 -0.0955
  798loPI    C212754   5.456  -0.185   4.068 -0.1304 -0.0673 -0.0749
  798loPI    C312755   5.326   0.134   3.865  0.2206  0.0652 -0.0989
  798loPI   PO412756   5.509   0.152   4.571  0.0144  0.1925 -0.1626
  798loPI   GL112757   5.666   0.345   4.856 -0.3989  0.1640  0.1335
  798loPI   GL212758   5.392   0.380   4.961 -0.0631 -0.1620 -0.1967
  798loPI   C1A12759   5.772   0.363   5.269  0.0167 -0.1280 -0.0154
  798loPI   C2A12760   6.210   0.198   5.482  0.0647  0.0880  0.1758
  798loPI   C3A12761   6.243   0.194   5.991  0.0142 -0.0466 -0.0065
  798loPI   C4A12762   6.426   0.341   6.318  0.0301 -0.1128  0.0741
  798loPI   C5A12763   6.332   0.811   6.470  0.0715  0.3699  0.1532
  798loPI   C6A12764   5.915   0.912   6.542 -0.0661 -0.0543 -0.4648
  798loPI   C1B12765   5.218   0.224   5.304 -0.1059 -0.0987 -0.0491
  798loPI   C2B12766   4.951   0.297   5.639  0.0830  0.1018  0.0260
  798loPI   C3B12767   4.686   0.252   5.982 -0.3192 -0.0748  0.1169
  798loPI   C4B12768   4.543   0.351   6.404 -0.1655  0.1823 -0.4895
  799loPI    C112769  15.866  14.110   3.895 -0.0882 -0.0684 -0.1984
  799loPI    C212770  15.832  13.845   3.597 -0.1026 -0.1864 -0.0930
  799loPI    C312771  16.147  14.090   3.611 -0.1278 -0.1449 -0.2328
  799loPI   PO412772  15.779  13.947   4.101 -0.4536  0.1242  0.0299
  799loPI   GL112773  16.133  13.737   4.384 -0.2623  0.0647  0.0508
  799loPI   GL212774  16.410  13.685   4.456  0.1850 -0.3521 -0.1044
  799loPI   C1A12775  15.956  13.604   4.781  0.0514 -0.1026  0.0061
  799loPI   C2A12776  16.049  13.301   5.120 -0.0070  0.0579 -0.3134
  799loPI   C3A12777  15.730  13.136   5.488 -0.1700  0.2381 -0.2940
  799loPI   C4A12778  15.871  13.011   5.889 -0.2793  0.1227 -0.0894
  799loPI   C5A12779  16.101  12.725   6.220  0.2214 -0.0722  0.1486
  799loPI   C6A12780  16.285  12.610   6.644  0.2736  0.0888  0.2397
  799loPI   C1B12781  16.453  13.539   4.839 -0.1138  0.2290 -0.0460
  799loPI   C2B12782  16.589  13.475   5.238  0.4525  0.0291 -0.2872
  799loPI   C3B12783  16.581  13.497   5.690 -0.1051  0.1770 -0.2830
  799loPI   C4B12784  16.535  13.396   6.114 -0.1005 -0.0607  0.0935
  800loPI    C112785  12.964  10.800   3.805  0.0238 -0.2795  0.2529
  800loPI    C212786  13.264  10.679   3.569  0.0339  0.2268 -0.0077
  800loPI    C312787  12.898  10.526   3.521  0.0393  0.3132 -0.3467
  800loPI   PO412788  13.131  10.773   4.055 -0.1216 -0.2334  0.1982
  800loPI   GL112789  13.187  10.876   4.443  0.2164  0.0461  0.2734
  800loPI   GL212790  13.601  10.951   4.449 -0.1467  0.3336  0.1343
  800loPI   C1A12791  13.274  10.988   4.836 -0.2029  0.3974  0.3920
  800loPI   C2A12792  13.470  11.120   5.267  0.2308  0.0189  0.0124
  800loPI   C3A12793  13.344  11.514   5.567  0.0570 -0.0733 -0.4013
  800loPI   C4A12794  13.311  11.668   6.025  0.2460  0.1505  0.0281
  800loPI   C5A12795  13.386  11.705   6.516 -0.1221 -0.2597 -0.5043
  800loPI   C6A12796  13.591  11.921   6.925 -0.1984  0.0793 -0.0880
  800loPI   C1B12797  13.747  10.844   4.907  0.0386  0.0146  0.0740
  800loPI   C2B12798  13.801  10.696   5.294 -0.1315  0.0680 -0.6258
  800loPI   C3B12799  13.783  10.618   5.692  0.0499  0.1483 -0.1049
  800loPI   C4B12800  13.877  10.395   5.980  0.2570 -0.3681 -0.1019
  801loPI    C112801   1.537  18.575   4.549  0.0017  0.2123  0.0672
  801loPI    C212802   1.216  18.606   4.312  0.0210 -0.1134 -0.0068
  801loPI    C312803   1.558  18.459   4.166  0.2007  0.2114  0.0776
  801loPI   PO412804   1.499  18.784   4.756  0.2393 -0.2928  0.1535
  801loPI   GL112805   1.367  18.701   5.150  0.0338 -0.1217 -0.0887
  801loPI   GL212806   1.464  18.770   5.389 -0.2398  0.1218 -0.0978
  801loPI   C1A12807   1.079  18.509   5.441 -0.0002  0.1471  0.2688
  801loPI   C2A12808   0.830  18.254   5.792 -0.3314  0.1805 -0.0942
  801loPI   C3A12809   0.686  18.440   6.137  0.0764 -0.1299 -0.0460
  801loPI   C4A12810   0.722  18.601   6.494  0.1101  0.1039  0.0395
  801loPI   C5A12811   0.739  18.609   6.919  0.1792  0.4111 -0.2484
  801loPI   C6A12812   0.393  18.318   7.193 -0.0195  0.2166 -0.0149
  801loPI   C1B12813   1.459  18.673   5.828 -0.6149  0.0823 -0.3554
  801loPI   C2B12814   1.690  18.830   6.168  0.3298  0.1643  0.0647
  801loPI   C3B12815   1.728  18.804   6.630 -0.0545 -0.2397 -0.1730
  801loPI   C4B12816   1.887  19.062   6.922  0.0005 -0.0612  0.1591
  802loPI    C112817  12.103  12.260   4.551 -0.1066  0.0608 -0.0021
  802loPI    C212818  11.773  12.252   4.325 -0.1094  0.3502 -0.0123
  802loPI    C312819  12.112  12.404   4.178  0.1294 -0.2608 -0.1249
  802loPI   PO412820  11.972  12.321   4.834  0.3082  0.0184  0.1263
  802loPI   GL112821  11.769  12.399   5.220  0.0099 -0.0740 -0.2601
  802loPI   GL212822  11.716  12.729   5.114 -0.0145  0.0292  0.1266
  802loPI   C1A12823  11.851  12.260   5.586  0.3254  0.1447 -0.0425
  802loPI   C2A12824  12.005  12.280   5.940 -0.2806 -0.0127 -0.2508
  802loPI   C3A12825  12.156  12.238   6.413  0.1398  0.1817 -0.1745
  802loPI   C4A12826  12.342  12.601   6.653 -0.3240 -0.1521 -0.2057
  802loPI   C5A12827  12.302  12.944   7.003 -0.3095 -0.2840 -0.0956
  802loPI   C6A12828  12.589  13.278   7.227  0.1751  0.2514 -0.0134
  802loPI   C1B12829  11.675  12.712   5.638  0.1592 -0.0262  0.2040
  802loPI   C2B12830  11.848  13.062   5.913 -0.1651  0.0129 -0.0099
  802loPI   C3B12831  11.760  13.080   6.362  0.0886 -0.2706  0.0596
  802loPI   C4B12832  11.547  13.391   6.507 -0.1099 -0.0489 -0.0454
  803loPI    C112833  13.859   9.094   3.732 -0.0206  0.0927 -0.1604
  803loPI    C212834  13.926   8.790   3.481  0.3247 -0.0288  0.0709
  803loPI    C312835  13.559   8.946   3.514  0.2226 -0.1753 -0.3201
  803loPI   PO412836  14.093   9.079   3.982 -0.3072  0.1015  0.2324
  803loPI   GL112837  14.042   9.002   4.446  0.0015 -0.0203  0.0511
  803loPI   GL212838  14.256   8.697   4.348 -0.3061 -0.2100  0.2993
  803loPI   C1A12839  13.920   9.184   4.914  0.0422  0.2082  0.2248
  803loPI   C2A12840  13.768   9.334   5.149 -0.0991  0.0828 -0.0317
  803loPI   C3A12841  13.915   9.477   5.509 -0.0329  0.0411  0.1132
  803loPI   C4A12842  14.025   9.551   5.895 -0.1206 -0.2228 -0.0465
  803loPI   C5A12843  13.969   9.451   6.404 -0.0133  0.0073 -0.2423
  803loPI   C6A12844  13.888   8.991   6.592 -0.1906  0.1882  0.2530
  803loPI   C1B12845  14.497   8.857   4.660 -0.1891  0.3153  0.0880
  803loPI   C2B12846  14.309   8.655   5.034 -0.4632  0.0161 -0.1385
  803loPI   C3B12847  14.122   8.480   5.497 -0.0403 -0.0020  0.2124
  803loPI   C4B12848  14.050   8.570   5.898 -0.0223  0.1258 -0.0041
  804loPI    C112849   9.603  16.778   4.369 -0.1576  0.1409  0.1921
  804loPI    C212850   9.575  16.386   4.447  0.3754  0.0147 -0.1956
  804loPI    C312851   9.302  16.564   4.215 -0.0514 -0.0473  0.2427
  804loPI   PO412852   9.618  16.886   4.628  0.0012 -0.1169 -0.0420
  804loPI   GL112853   9.447  17.010   4.935  0.2332 -0.1048  0.1414
  804loPI   GL212854   9.161  17.158   4.955  0.3310 -0.0625 -0.3032
  804loPI   C1A12855   9.424  17.336   5.355 -0.5003 -0.1358  0.0965
  804loPI   C2A12856   9.599  17.663   5.684 -0.2642 -0.3137  0.0188
  804loPI   C3A12857   9.661  17.940   5.982 -0.1128 -0.0569 -0.0201
  804loPI   C4A12858   9.606  18.122   6.440 -0.1653  0.0923  0.2632
  804loPI   C5A12859   9.744  18.382   6.732  0.1307  0.0762 -0.3695
  804loPI   C6A12860   9.612  18.412   7.086 -0.1977  0.2607  0.0073
  804loPI   C1B12861   8.705  17.018   5.102 -0.2354 -0.2101 -0.1795
  804loPI   C2B12862   8.403  16.611   5.087  0.1181  0.0552  0.1091
  804loPI   C3B12863   8.648  16.343   5.268  0.0627 -0.1185  0.2192
  804loPI   C4B12864   9.046  16.332   5.582 -0.6006  0.2345 -0.3243
  805loPI    C112865   1.285   9.861   4.442 -0.1743  0.0856  0.0719
  805loPI    C212866   1.309   9.619   4.125  0.0711  0.2085 -0.0061
  805loPI    C312867   0.985   9.847   4.178 -0.0390  0.0716 -0.0831
  805loPI   PO412868   1.600   9.768   4.625 -0.1937  0.0674  0.3492
  805loPI   GL112869   1.796   9.489   4.918 -0.0213 -0.1691 -0.1072
  805loPI   GL212870   1.762   9.193   4.933  0.0668  0.1787 -0.2623
  805loPI   C1A12871   1.573   9.461   5.415 -0.0306 -0.0559 -0.1336
  805loPI   C2A12872   1.138   9.479   5.599  0.0261 -0.2048 -0.3483
  805loPI   C3A12873   0.859   9.380   5.932 -0.4723  0.1307 -0.2852
  805loPI   C4A12874   0.691   9.331   6.245 -0.0447 -0.0615 -0.3009
  805loPI   C5A12875   0.592   9.149   6.616  0.0671  0.2247  0.1999
  805loPI   C6A12876   0.324   8.896   6.845  0.3762  0.1618  0.4490
  805loPI   C1B12877   2.167   8.966   5.259 -0.1030 -0.2007  0.0168
  805loPI   C2B12878   2.452   8.730   5.451 -0.0547 -0.0559 -0.1023
  805loPI   C3B12879   2.811   8.484   5.623  0.1503 -0.0827 -0.0726
  805loPI   C4B12880   2.956   8.126   5.810 -0.0082  0.0108  0.3522
  806loPI    C112881  12.154   0.376   4.359  0.2203  0.0038  0.0037
  806loPI    C212882  12.319   0.635   4.104  0.0548 -0.0425 -0.1525
  806loPI    C312883  12.053   0.368   3.972 -0.0930 -0.0140  0.0833
  806loPI   PO412884  12.434   0.332   4.501 -0.0740 -0.0088  0.0395
  806loPI   GL112885  12.629   0.352   4.846  0.2192  0.4905  0.0459
  806loPI   GL212886  12.800   0.116   4.863 -0.1286 -0.0009  0.2607
  806loPI   C1A12887  12.790   0.525   5.341 -0.4460 -0.3082  0.0206
  806loPI   C2A12888  12.818   0.621   5.898  0.0602  0.3849  0.2259
  806loPI   C3A12889  13.031   0.806   6.227  0.1912  0.1304  0.1531
  806loPI   C4A12890  13.152   0.408   6.600  0.0151 -0.1439 -0.0940
  806loPI   C5A12891  13.405   0.266   7.031 -0.1502 -0.0861  0.3972
  806loPI   C6A12892  13.728  -0.053   7.054 -0.0804 -0.2094  0.1353
  806loPI   C1B12893  13.112   0.189   5.215  0.0126 -0.1936 -0.2637
  806loPI   C2B12894  13.245   0.374   5.649 -0.0691  0.0072 -0.1617
  806loPI   C3B12895  13.339   0.470   6.046 -0.1306  0.0765 -0.0049
  806loPI   C4B12896  13.553   0.682   6.370 -0.1784 -0.1760  0.1080
  807loPI    C112897  16.161  11.404   3.705  0.2018 -0.0932 -0.0038
  807loPI    C212898  16.153  11.270   3.328 -0.0908  0.1914 -0.1021
  807loPI    C312899  15.853  11.497   3.468 -0.0789 -0.0659  0.3616
  807loPI   PO412900  16.228  11.296   3.877 -0.0151 -0.0950 -0.1500
  807loPI   GL112901  16.074  11.149   4.264  0.1745  0.4168 -0.1072
  807loPI   GL212902  16.398  11.148   4.439  0.0295  0.2669 -0.0158
  807loPI   C1A12903  16.043  11.517   4.588  0.0048  0.1824  0.2661
  807loPI   C2A12904  15.912  11.724   4.998 -0.0109  0.5645 -0.1768
  807loPI   C3A12905  15.977  11.823   5.437  0.1216  0.2325  0.1757
  807loPI   C4A12906  16.350  11.946   5.583 -0.1614  0.2460 -0.3532
  807loPI   C5A12907  16.629  12.272   5.847 -0.2410  0.2654 -0.0966
  807loPI   C6A12908  16.609  12.722   5.988  0.1050  0.1823 -0.1641
  807loPI   C1B12909  16.328  11.272   4.908 -0.0523 -0.1915  0.0564
  807loPI   C2B12910  16.072  11.337   5.380 -0.1432 -0.1575 -0.3093
  807loPI   C3B12911  16.173  11.441   5.689 -0.0444 -0.1923  0.1276
  807loPI   C4B12912  16.089  11.558   6.077 -0.0322  0.1424  0.1038
  808loPI    C112913   1.085  13.317   4.224 -0.0423 -0.1562  0.0090
  808loPI    C212914   1.266  12.981   4.343  0.1854 -0.0520 -0.0384
  808loPI    C312915   1.106  13.004   3.977  0.1583 -0.1132 -0.0303
  808loPI   PO412916   0.980  13.374   4.439  0.0409 -0.0408 -0.0938
  808loPI   GL112917   1.024  13.601   4.793  0.0046  0.0500 -0.0589
  808loPI   GL212918   0.664  13.365   4.914 -0.0012 -0.1490  0.1158
  808loPI   C1A12919   1.085  13.660   5.198 -0.1187  0.1057  0.0612
  808loPI   C2A12920   1.269  13.811   5.568 -0.1064  0.1640  0.1334
  808loPI   C3A12921   1.414  13.893   5.944  0.0061  0.3187  0.0679
  808loPI   C4A12922   1.755  13.853   6.203  0.0450  0.1201 -0.5238
  808loPI   C5A12923   1.855  14.111   6.566 -0.1169  0.1083 -0.3237
  808loPI   C6A12924   2.017  14.180   6.899 -0.0177 -0.1007 -0.0825
  808loPI   C1B12925   0.812  13.022   5.226  0.1604  0.1423 -0.0431
  808loPI   C2B12926   0.772  12.686   5.630  0.1238  0.0596  0.0804
  808loPI   C3B12927   0.520  12.406   5.750 -0.1950 -0.0876  0.3213
  808loPI   C4B12928   0.244  11.963   5.682  0.0658  0.0084  0.3656
  809loPI    C112929   6.986  10.894   5.102  0.1895  0.1609  0.0845
  809loPI    C212930   6.744  11.130   4.888  0.1481  0.0079 -0.0384
  809loPI    C312931   7.140  11.180   4.868  0.1535 -0.1178 -0.2881
  809loPI   PO412932   6.923  10.677   5.122  0.0201  0.0450  0.1545
  809loPI   GL112933   7.290  10.408   5.335 -0.0416  0.1912  0.0274
  809loPI   GL212934   7.218  10.219   5.104  0.1054 -0.1899 -0.1121
  809loPI   C1A12935   7.198  10.465   5.748 -0.0242  0.0248 -0.0101
  809loPI   C2A12936   7.240  10.755   5.974 -0.0925  0.0155  0.1166
  809loPI   C3A12937   7.181  10.967   6.412  0.0181 -0.0125 -0.0158
  809loPI   C4A12938   7.514  10.805   6.793 -0.1139  0.1060 -0.0437
  809loPI   C5A12939   7.644  10.411   6.969  0.0561 -0.2225  0.4840
  809loPI   C6A12940   7.669  10.057   7.235  0.4455  0.0315  0.1694
  809loPI   C1B12941   7.044  10.044   5.484  0.1594  0.0403 -0.0121
  809loPI   C2B12942   7.187   9.966   5.903 -0.2337 -0.0100 -0.1650
  809loPI   C3B12943   6.991   9.967   6.450 -0.0935 -0.2214  0.4105
  809loPI   C4B12944   6.616   9.713   6.643 -0.2136  0.1910  0.0740
  810loPI    C112945  12.696   0.990   4.138 -0.0094 -0.0526  0.0367
  810loPI    C212946  12.699   1.293   3.877 -0.2567 -0.1545 -0.0880
  810loPI    C312947  12.803   0.925   3.759 -0.1177 -0.1515  0.0224
  810loPI   PO412948  12.859   1.134   4.303 -0.0386  0.0226  0.2569
  810loPI   GL112949  12.868   0.938   4.739  0.0414  0.0950 -0.0728
  810loPI   GL212950  12.992   1.262   4.850 -0.2301 -0.0066 -0.2325
  810loPI   C1A12951  12.609   0.918   5.061  0.0074  0.4129  0.2827
  810loPI   C2A12952  12.410   0.978   5.452 -0.0035  0.0330  0.1393
  810loPI   C3A12953  12.372   0.908   5.896  0.1869  0.3037  0.3184
  810loPI   C4A12954  12.562   1.010   6.253  0.1622  0.0978  0.1343
  810loPI   C5A12955  12.853   1.060   6.621  0.0907  0.1808 -0.0142
  810loPI   C6A12956  13.036   1.329   6.965  0.0541  0.0045  0.1551
  810loPI   C1B12957  13.361   1.171   5.115 -0.1829 -0.1806 -0.0913
  810loPI   C2B12958  13.581   1.126   5.429 -0.1833  0.0592  0.1910
  810loPI   C3B12959  13.956   1.185   5.702  0.3960  0.3959  0.2327
  810loPI   C4B12960  14.196   1.212   6.061  0.0321 -0.2979  0.1955
  811loPI    C112961  13.012   6.154   3.961  0.3531 -0.2065 -0.3658
  811loPI    C212962  12.677   5.972   3.837  0.0656 -0.0976  0.2172
  811loPI    C312963  12.747   6.352   3.736  0.1853 -0.2206 -0.1829
  811loPI   PO412964  13.045   6.130   4.301  0.0097 -0.0206  0.0710
  811loPI   GL112965  13.002   6.158   4.776  0.2346 -0.0735  0.2114
  811loPI   GL212966  13.225   6.094   4.903  0.0271  0.2158 -0.1967
  811loPI   C1A12967  12.938   6.132   5.265 -0.2627  0.1153  0.0248
  811loPI   C2A12968  13.021   6.104   5.727  0.4352 -0.1227 -0.2199
  811loPI   C3A12969  13.089   5.962   6.116 -0.1278  0.2862  0.0988
  811loPI   C4A12970  13.302   5.665   6.377 -0.4077  0.1537 -0.1981
  811loPI   C5A12971  13.423   5.522   6.741 -0.4083 -0.1975  0.1250
  811loPI   C6A12972  13.253   5.584   7.172  0.1622 -0.1692 -0.2088
  811loPI   C1B12973  13.430   5.888   5.313  0.0785  0.0093 -0.2707
  811loPI   C2B12974  13.430   5.755   5.765 -0.1120  0.1255 -0.2074
  811loPI   C3B12975  13.553   5.426   6.005  0.2970 -0.2024 -0.0478
  811loPI   C4B12976  13.696   5.085   5.837 -0.0245  0.1359 -0.0039
  812loPI    C112977   8.104  14.154   4.912  0.0734  0.1032 -0.0707
  812loPI    C212978   8.234  13.787   4.820 -0.0424 -0.0466  0.3414
  812loPI    C312979   7.861  13.839   4.958 -0.0549  0.2382  0.2061
  812loPI   PO412980   8.280  14.296   5.083 -0.0059 -0.2776  0.0043
  812loPI   GL112981   8.239  14.559   5.401 -0.1067 -0.2379  0.0455
  812loPI   GL212982   8.204  14.261   5.603 -0.0982  0.0472  0.2018
  812loPI   C1A12983   8.586  14.699   5.593 -0.0842  0.1523 -0.2380
  812loPI   C2A12984   8.875  14.976   5.813 -0.0508 -0.1907  0.0345
  812loPI   C3A12985   9.051  14.953   6.152  0.0968  0.1434  0.1485
  812loPI   C4A12986   9.170  15.101   6.555 -0.1392 -0.2572  0.2338
  812loPI   C5A12987   9.078  14.987   7.014 -0.2586  0.1791 -0.4299
  812loPI   C6A12988   9.552  14.884   6.949 -0.0012 -0.2643 -0.2431
  812loPI   C1B12989   8.267  14.470   5.935  0.0012  0.2461  0.0266
  812loPI   C2B12990   8.090  14.378   6.357  0.0718 -0.0373  0.0954
  812loPI   C3B12991   8.040  14.136   6.734  0.0435  0.1014 -0.0395
  812loPI   C4B12992   8.205  13.997   7.059  0.2484 -0.1529 -0.0325
  813loPI    C112993  14.074  14.194   3.935 -0.1719 -0.1125  0.1819
  813loPI    C212994  13.764  13.948   3.995 -0.1190 -0.2285 -0.0109
  813loPI    C312995  13.733  14.248   3.732 -0.0893 -0.1998  0.0181
  813loPI   PO412996  14.131  14.244   4.285  0.1445 -0.1182  0.0405
  813loPI   GL112997  14.215  14.114   4.644 -0.0322  0.0123  0.0401
  813loPI   GL212998  14.200  14.346   4.994  0.0534  0.0831  0.3045
  813loPI   C1A12999  14.522  13.955   5.022  0.0218  0.2617  0.0716
  813loPI   C2A13000  14.595  13.730   5.416 -0.0902 -0.3094  0.1162
  813loPI   C3A13001  14.825  13.555   5.682  0.0043 -0.0444  0.0305
  813loPI   C4A13002  15.128  13.557   5.932 -0.0968  0.0655  0.0329
  813loPI   C5A13003  15.315  13.726   6.313  0.1326  0.5297  0.4034
  813loPI   C6A13004  15.541  13.737   6.589  0.0150  0.1682  0.3864
  813loPI   C1B13005  14.037  13.949   5.078 -0.2331 -0.0877 -0.2885
  813loPI   C2B13006  14.176  13.473   5.230 -0.0245 -0.1588 -0.1516
  813loPI   C3B13007  14.365  13.238   5.653  0.3586 -0.0067  0.3998
  813loPI   C4B13008  14.361  13.236   6.098  0.3110  0.1087 -0.3400
  814loPI    C113009   2.803   5.256   4.238 -0.1447 -0.2034 -0.1761
  814loPI    C213010   2.857   4.931   4.010  0.0847 -0.2355 -0.0795
  814loPI    C313011   3.133   5.220   4.014 -0.2283  0.0765 -0.3491
  814loPI   PO413012   2.539   5.171   4.545 -0.0167 -0.0254  0.0437
  814loPI   GL113013   2.342   5.613   4.687 -0.1645  0.1376  0.0186
  814loPI   GL213014   2.271   5.507   4.795 -0.3240 -0.0615  0.0644
  814loPI   C1A13015   2.276   6.047   5.025  0.0472 -0.0906 -0.1230
  814loPI   C2A13016   2.376   6.187   5.456 -0.0934  0.0650 -0.3411
  814loPI   C3A13017   2.447   6.333   5.822  0.1520  0.4298 -0.0531
  814loPI   C4A13018   2.480   6.392   6.184 -0.0606  0.1111 -0.0367
  814loPI   C5A13019   2.590   6.442   6.579  0.1038 -0.1041 -0.1435
  814loPI   C6A13020   2.924   6.615   6.869  0.0586  0.0845 -0.0420
  814loPI   C1B13021   2.263   5.575   5.225 -0.1954 -0.1934 -0.0390
  814loPI   C2B13022   2.308   5.653   5.550 -0.0707 -0.0390  0.0479
  814loPI   C3B13023   2.323   5.711   5.943 -0.3429  0.1525 -0.1942
  814loPI   C4B13024   2.485   5.466   6.252 -0.0085 -0.0160  0.0722
  815loPI    C113025  12.817  10.551   4.385 -0.0484 -0.0995  0.2560
  815loPI    C213026  12.645  10.450   4.039  0.0984  0.2483  0.0766
  815loPI    C313027  12.991  10.282   4.146 -0.0334  0.0130  0.1388
  815loPI   PO413028  12.547  10.512   4.552  0.0884 -0.1111  0.0656
  815loPI   GL113029  12.517  10.460   4.922  0.1144 -0.0531 -0.2327
  815loPI   GL213030  12.745  10.221   4.977  0.0937  0.0060 -0.1721
  815loPI   C1A13031  12.678  10.654   5.313  0.1584  0.0177 -0.0636
  815loPI   C2A13032  12.818  10.701   5.751 -0.1946 -0.1024 -0.3238
  815loPI   C3A13033  13.031  10.642   6.200  0.0063 -0.1273 -0.0244
  815loPI   C4A13034  12.982  11.072   6.499  0.0834  0.0147  0.1656
  815loPI   C5A13035  12.965  11.320   6.992 -0.0488  0.0084 -0.0414
  815loPI   C6A13036  12.753  11.618   7.351 -0.2196 -0.0199 -0.2830
  815loPI   C1B13037  12.840  10.133   5.406  0.1117  0.0583  0.3481
  815loPI   C2B13038  12.817  10.218   5.892  0.1050  0.0601 -0.1122
  815loPI   C3B13039  12.680  10.062   6.268 -0.2958 -0.3028 -0.1498
  815loPI   C4B13040  12.849   9.740   6.569 -0.0438 -0.0150 -0.2140
  816loPI    C113041  19.168  16.761   4.133 -0.0272  0.0598  0.0797
  816loPI    C213042  19.528  16.606   4.052 -0.0489  0.0642 -0.0269
  816loPI    C313043  19.420  16.955   3.889 -0.1940 -0.0536 -0.1873
  816loPI   PO413044  19.164  16.822   4.502  0.0303  0.4588 -0.1661
  816loPI   GL113045  19.355  16.878   4.889  0.2609  0.1339  0.0688
  816loPI   GL213046  19.668  16.960   5.049  0.2099  0.1898  0.0845
  816loPI   C1A13047  19.204  16.416   5.122 -0.1371 -0.3618 -0.1145
  816loPI   C2A13048  19.376  16.231   5.568 -0.0436 -0.1230  0.1078
  816loPI   C3A13049  19.381  16.153   6.011  0.6337  0.0745 -0.3441
  816loPI   C4A13050  19.129  16.284   6.443 -0.2059  0.4926 -0.2005
  816loPI   C5A13051  19.018  16.544   6.824 -0.0274 -0.1573  0.0199
  816loPI   C6A13052  18.861  16.645   7.241 -0.2055 -0.1412 -0.3512
  816loPI   C1B13053  19.752  17.192   5.446 -0.1270  0.0520  0.1054
  816loPI   C2B13054  19.994  17.044   5.840  0.0237 -0.3102  0.3470
  816loPI   C3B13055  20.036  17.113   6.257 -0.0762  0.3681  0.0182
  816loPI   C4B13056  19.862  16.952   6.607 -0.0869  0.2320 -0.0946
  817loPI    C113057  15.432  18.097   4.318  0.1738 -0.0340 -0.1414
  817loPI    C213058  15.417  17.766   4.093  0.0574 -0.0387 -0.1274
  817loPI    C313059  15.254  18.106   3.960 -0.0113 -0.0414 -0.0508
  817loPI   PO413060  15.422  18.035   4.558 -0.1466  0.3509 -0.1046
  817loPI   GL113061  15.060  17.960   4.789  0.1556  0.3752  0.2931
  817loPI   GL213062  14.913  18.222   4.987  0.1318 -0.1259 -0.3923
  817loPI   C1A13063  15.332  18.027   5.287  0.0141  0.1248  0.2860
  817loPI   C2A13064  15.428  18.192   5.645 -0.0427 -0.2292 -0.2059
  817loPI   C3A13065  15.460  18.235   6.113  0.4120 -0.0921 -0.0710
  817loPI   C4A13066  15.644  18.212   6.458  0.1502  0.0632 -0.2259
  817loPI   C5A13067  15.805  18.563   6.668 -0.0333 -0.1048 -0.3600
  817loPI   C6A13068  16.254  18.629   6.960  0.1921 -0.1038  0.1610
  817loPI   C1B13069  14.707  18.321   5.361  0.0109 -0.1448 -0.2677
  817loPI   C2B13070  14.758  18.649   5.644 -0.0038 -0.1953  0.0915
  817loPI   C3B13071  14.684  19.001   5.973  0.4050 -0.2225 -0.1474
  817loPI   C4B13072  14.779  19.146   6.363 -0.1798 -0.1070 -0.0821
  818loPI    C113073  15.730   7.482   4.168 -0.0243 -0.0977  0.2431
  818loPI    C213074  15.337   7.470   4.092 -0.0664  0.4056  0.3474
  818loPI    C313075  15.591   7.263   3.863 -0.3674  0.2945  0.1068
  818loPI   PO413076  15.645   7.456   4.462  0.2515 -0.2304  0.0566
  818loPI   GL113077  15.628   7.567   4.943  0.0039  0.1627 -0.1517
  818loPI   GL213078  15.728   7.880   4.907 -0.1696 -0.0813  0.0680
  818loPI   C1A13079  15.467   7.546   5.363  0.0808  0.0989  0.2008
  818loPI   C2A13080  15.099   7.463   5.638 -0.0626 -0.3123  0.1695
  818loPI   C3A13081  14.832   7.584   6.002  0.1237 -0.1173  0.0547
  818loPI   C4A13082  14.677   7.590   6.336 -0.0704 -0.1521  0.2995
  818loPI   C5A13083  14.458   7.649   6.710  0.0834 -0.2085 -0.2913
  818loPI   C6A13084  14.522   7.404   7.077  0.1087  0.1799  0.0856
  818loPI   C1B13085  15.939   8.108   5.300 -0.0456  0.0419  0.1219
  818loPI   C2B13086  15.890   8.411   5.732 -0.0979  0.1944 -0.0005
  818loPI   C3B13087  15.767   8.921   5.770 -0.1294  0.1422  0.0844
  818loPI   C4B13088  15.417   9.055   5.945  0.0729 -0.3757  0.2273
  819loPI    C113089   1.746  17.807   4.730 -0.1698  0.1298 -0.1929
  819loPI    C213090   2.105  17.877   4.569  0.1164 -0.1226  0.3083
  819loPI    C313091   1.803  18.132   4.504  0.3893  0.1107 -0.0920
  819loPI   PO413092   1.831  17.741   5.075 -0.0989  0.1150  0.0310
  819loPI   GL113093   1.632  17.563   5.433 -0.0228 -0.2486  0.1023
  819loPI   GL213094   1.316  17.521   5.576 -0.0690  0.3025 -0.1562
  819loPI   C1A13095   1.759  17.817   5.734 -0.2713 -0.3866 -0.0830
  819loPI   C2A13096   1.401  18.143   5.996  0.0404  0.1798 -0.2834
  819loPI   C3A13097   1.422  18.433   6.374 -0.2151  0.1059 -0.2118
  819loPI   C4A13098   1.163  18.773   6.417  0.1055 -0.2309  0.1296
  819loPI   C5A13099   1.161  19.153   6.609 -0.4047 -0.0865  0.0979
  819loPI   C6A13100   1.013  19.522   6.753 -0.0504 -0.0968 -0.0830
  819loPI   C1B13101   1.126  17.617   5.907 -0.0625 -0.0847  0.0507
  819loPI   C2B13102   0.951  17.764   6.239  0.4701 -0.1635  0.0578
  819loPI   C3B13103   0.921  18.112   6.413  0.1473  0.2011 -0.0745
  819loPI   C4B13104   1.122  18.307   6.751  0.1817  0.0222 -0.1394
  820loPI    C113105   7.455   6.188   4.722 -0.2359 -0.1858 -0.0153
  820loPI    C213106   7.375   5.843   4.536 -0.2041 -0.1065 -0.1780
  820loPI    C313107   7.347   6.189   4.337 -0.0138 -0.0329 -0.0795
  820loPI   PO413108   7.624   6.131   4.979 -0.0301 -0.4303  0.1245
  820loPI   GL113109   8.013   6.156   5.278 -0.1043 -0.0887 -0.5605
  820loPI   GL213110   8.038   5.863   5.140 -0.1090 -0.2547 -0.2160
  820loPI   C1A13111   7.857   6.081   5.693 -0.1720  0.0799  0.3756
  820loPI   C2A13112   7.975   5.903   6.090  0.1838  0.1536 -0.0511
  820loPI   C3A13113   8.119   5.868   6.457  0.2551 -0.5790 -0.0526
  820loPI   C4A13114   8.328   5.755   6.817 -0.1421  0.2156 -0.0993
  820loPI   C5A13115   8.755   5.921   6.909 -0.3043 -0.3468  0.1408
  820loPI   C6A13116   9.051   5.887   7.213  0.1621 -0.0562  0.0109
  820loPI   C1B13117   8.180   5.661   5.412 -0.2276  0.0362  0.2915
  820loPI   C2B13118   8.365   5.778   5.819 -0.2101  0.0339  0.0155
  820loPI   C3B13119   8.545   5.657   6.237 -0.1213 -0.0781 -0.0324
  820loPI   C4B13120   8.702   5.498   6.523 -0.1729  0.3211  0.1863
  821loPI    C113121  11.456   4.465   4.410  0.0370  0.0255  0.3539
  821loPI    C213122  11.207   4.575   4.118  0.0392 -0.1352  0.2903
  821loPI    C313123  11.602   4.597   4.062  0.0397 -0.1655  0.2813
  821loPI   PO413124  11.337   4.316   4.518  0.0057  0.0291  0.2124
  821loPI   GL113125  11.114   4.210   4.733 -0.3289 -0.1157  0.2412
  821loPI   GL213126  11.170   3.865   4.883  0.0943  0.1164 -0.2638
  821loPI   C1A13127  11.188   4.335   5.171 -0.0054  0.5317  0.4001
  821loPI   C2A13128  11.212   4.689   5.555 -0.0102 -0.1461 -0.0226
  821loPI   C3A13129  11.495   4.599   5.959  0.1377  0.1135 -0.0599
  821loPI   C4A13130  11.486   4.668   6.381 -0.0444  0.0862  0.1219
  821loPI   C5A13131  11.410   4.959   6.704  0.0758 -0.4008 -0.0277
  821loPI   C6A13132  11.640   5.032   7.180  0.0895  0.1016 -0.1091
  821loPI   C1B13133  11.248   3.910   5.397 -0.0133 -0.1072  0.2214
  821loPI   C2B13134  11.137   4.228   5.751 -0.3966  0.0067  0.1742
  821loPI   C3B13135  11.174   4.262   6.152  0.0350 -0.0394  0.0462
  821loPI   C4B13136  10.825   4.314   6.384  0.2424  0.1382  0.0959
  822loPI    C113137   2.157  15.784   4.444 -0.1698 -0.0042  0.0530
  822loPI    C213138   1.949  15.706   4.111  0.0446 -0.1265 -0.0545
  822loPI    C313139   2.326  15.579   4.145  0.0649 -0.0069  0.1859
  822loPI   PO413140   2.091  15.738   4.641  0.0672  0.1481  0.1255
  822loPI   GL113141   2.319  15.707   5.070 -0.2475  0.1907  0.3888
  822loPI   GL213142   2.651  15.749   5.141 -0.1646  0.0716 -0.1185
  822loPI   C1A13143   2.255  15.644   5.467  0.3095  0.0357 -0.0046
  822loPI   C2A13144   2.095  15.271   5.787  0.0820 -0.1049  0.2361
  822loPI   C3A13145   2.126  15.211   6.247  0.0445  0.0925  0.1156
  822loPI   C4A13146   1.837  15.101   6.543 -0.0159  0.2193  0.2062
  822loPI   C5A13147   1.465  15.205   6.821 -0.1257 -0.1767 -0.0742
  822loPI   C6A13148   1.036  15.060   6.989 -0.2087 -0.5558  0.0574
  822loPI   C1B13149   2.891  15.667   5.587 -0.0104  0.0310 -0.0863
  822loPI   C2B13150   3.047  15.702   6.013  0.0249  0.5643  0.0468
  822loPI   C3B13151   3.185  15.721   6.416  0.2127 -0.1161 -0.0077
  822loPI   C4B13152   3.235  15.335   6.700  0.0109 -0.0818 -0.1160
  823loPI    C113153  13.482  15.358   4.227  0.1213 -0.1975  0.2611
  823loPI    C213154  13.768  15.108   4.102  0.0289 -0.1703 -0.0113
  823loPI    C313155  13.752  15.481   3.959 -0.1118 -0.1551  0.0421
  823loPI   PO413156  13.493  15.356   4.499  0.3481 -0.4745 -0.1650
  823loPI   GL113157  13.187  15.521   4.816 -0.0452 -0.2025 -0.3328
  823loPI   GL213158  12.964  15.678   4.957  0.0245 -0.2150  0.0198
  823loPI   C1A13159  13.362  15.242   5.146 -0.2527  0.3150 -0.1593
  823loPI   C2A13160  13.634  14.964   5.375  0.1181 -0.1493  0.3232
  823loPI   C3A13161  13.861  14.870   5.677 -0.3417  0.2903 -0.0939
  823loPI   C4A13162  13.875  14.533   5.832  0.1872 -0.0376  0.2602
  823loPI   C5A13163  13.955  14.127   6.015 -0.1083 -0.0108  0.1010
  823loPI   C6A13164  13.747  13.903   6.363  0.1719 -0.1809  0.0204
  823loPI   C1B13165  12.931  15.941   5.348 -0.1489 -0.3201 -0.0995
  823loPI   C2B13166  13.323  16.025   5.706  0.1076  0.3139 -0.1390
  823loPI   C3B13167  13.602  16.089   6.126  0.3514  0.0684 -0.1339
  823loPI   C4B13168  13.975  16.210   5.978 -0.3272 -0.0736  0.3652
  824loPI    C113169   5.903  11.162   4.948  0.0598  0.1351  0.0949
  824loPI    C213170   5.841  11.099   4.558  0.1060 -0.0822  0.1214
  824loPI    C313171   5.621  10.904   4.829  0.1638 -0.0313  0.2051
  824loPI   PO413172   6.191  11.127   5.013 -0.0989 -0.3311 -0.0278
  824loPI   GL113173   6.253  11.426   5.466  0.0002 -0.0651 -0.1159
  824loPI   GL213174   6.579  11.354   5.345 -0.0226 -0.2081  0.0324
  824loPI   C1A13175   6.186  11.040   5.646 -0.2652  0.2240 -0.0689
  824loPI   C2A13176   6.148  11.000   6.058 -0.2783 -0.1125 -0.1512
  824loPI   C3A13177   6.207  11.150   6.482  0.3680 -0.1231 -0.1246
  824loPI   C4A13178   6.309  11.266   6.946 -0.1050 -0.1189 -0.0542
  824loPI   C5A13179   6.232  11.502   7.326  0.0771 -0.1357 -0.1148
  824loPI   C6A13180   6.024  11.747   7.400 -0.0474 -0.0447 -0.2296
  824loPI   C1B13181   6.627  11.452   5.819 -0.1180 -0.2818  0.0201
  824loPI   C2B13182   6.673  11.589   6.272 -0.2298 -0.0440 -0.0054
  824loPI   C3B13183   6.614  11.601   6.745  0.1242  0.3166  0.0596
  824loPI   C4B13184   6.720  11.462   7.243 -0.0754 -0.0311  0.2171
  825loPI    C113185   8.464  18.387   4.332 -0.1450  0.1680 -0.4404
  825loPI    C213186   8.497  17.996   4.255 -0.0154  0.1121 -0.1156
  825loPI    C313187   8.471  18.258   3.953  0.2522 -0.1163 -0.3426
  825loPI   PO413188   8.548  18.352   4.647 -0.2569 -0.1535  0.0582
  825loPI   GL113189   8.312  18.478   5.047 -0.0480  0.1867  0.0222
  825loPI   GL213190   8.455  18.199   5.127 -0.1455 -0.0211  0.0698
  825loPI   C1A13191   8.382  18.746   5.252 -0.1209 -0.0378 -0.0689
  825loPI   C2A13192   8.674  18.612   5.497  0.2661  0.1839  0.0618
  825loPI   C3A13193   9.030  18.621   5.765 -0.1712  0.1516  0.2633
  825loPI   C4A13194   8.981  18.732   6.194  0.0771 -0.0655 -0.0596
  825loPI   C5A13195   9.044  18.588   6.547 -0.2589 -0.1673 -0.0748
  825loPI   C6A13196   9.147  18.440   6.871  0.1261 -0.1138  0.1263
  825loPI   C1B13197   8.952  18.128   5.349 -0.2011 -0.1022 -0.1692
  825loPI   C2B13198   8.984  18.126   5.801 -0.1973  0.2216 -0.3587
  825loPI   C3B13199   9.274  18.232   6.099  0.2036 -0.1528  0.1496
  825loPI   C4B13200   9.129  18.055   6.506  0.0353  0.0313  0.2031
  826loPI    C113201   6.852   4.201   4.370 -0.2985  0.2217 -0.0551
  826loPI    C213202   6.577   3.990   4.171 -0.0406  0.0384 -0.2235
  826loPI    C313203   6.884   4.154   3.975  0.0514  0.1159 -0.0176
  826loPI   PO413204   6.851   4.143   4.628 -0.4104  0.0467  0.3141
  826loPI   GL113205   6.711   4.221   4.988  0.4058  0.2925  0.3494
  826loPI   GL213206   7.037   4.085   5.134  0.1933 -0.1511 -0.1038
  826loPI   C1A13207   6.806   4.581   5.303  0.0845 -0.3425  0.0399
  826loPI   C2A13208   6.771   4.586   5.664  0.3903 -0.1461 -0.0085
  826loPI   C3A13209   6.640   4.574   6.121  0.0435  0.0617  0.2644
  826loPI   C4A13210   6.599   4.566   6.653 -0.0829 -0.1155  0.0508
  826loPI   C5A13211   6.275   4.313   6.936  0.1706  0.1632 -0.2659
  826loPI   C6A13212   5.993   4.049   6.851  0.1304  0.1955  0.1417
  826loPI   C1B13213   6.706   4.010   5.439  0.0515  0.1612  0.0014
  826loPI   C2B13214   6.345   3.764   5.638 -0.4557  0.2198  0.3117
  826loPI   C3B13215   6.181   3.692   6.036  0.1679  0.1829  0.4168
  826loPI   C4B13216   5.954   3.566   6.427 -0.1065  0.0567  0.2469
  827loPI    C113217  18.830  16.206   4.112  0.3165 -0.0764  0.0286
  827loPI    C213218  19.197  16.293   3.980  0.2693 -0.0186 -0.0656
  827loPI    C313219  18.917  16.165   3.724  0.2195 -0.0480  0.0034
  827loPI   PO413220  18.761  16.442   4.285 -0.0772 -0.0814 -0.1273
  827loPI   GL113221  18.857  16.448   4.710  0.0087 -0.0186  0.1149
  827loPI   GL213222  18.688  16.774   4.796 -0.2384 -0.1823 -0.1976
  827loPI   C1A13223  18.639  16.488   5.242 -0.3535  0.3056  0.0052
  827loPI   C2A13224  18.491  16.614   5.688  0.2162  0.3684 -0.2006
  827loPI   C3A13225  18.278  16.931   5.985 -0.1988 -0.0639  0.1552
  827loPI   C4A13226  18.250  17.176   6.355 -0.0248 -0.2428 -0.0507
  827loPI   C5A13227  18.324  17.296   6.761 -0.0480  0.3009  0.0006
  827loPI   C6A13228  18.597  17.237   7.172  0.0458  0.1410  0.2201
  827loPI   C1B13229  18.899  16.920   5.164  0.2368 -0.0540 -0.2304
  827loPI   C2B13230  18.995  16.776   5.617 -0.1185 -0.1112  0.0201
  827loPI   C3B13231  19.287  16.715   6.010  0.0281 -0.0516  0.1862
  827loPI   C4B13232  19.299  16.752   6.422 -0.0709 -0.1113  0.1889
  828loPI    C113233  12.198  16.931   4.122  0.0074  0.0384  0.0519
  828loPI    C213234  12.386  16.981   3.773  0.0241 -0.1950  0.0255
  828loPI    C313235  12.027  16.806   3.783 -0.0920  0.0436  0.1000
  828loPI   PO413236  12.397  16.823   4.316  0.0830  0.0715 -0.3094
  828loPI   GL113237  12.804  16.750   4.571 -0.2295  0.0411  0.2968
  828loPI   GL213238  13.126  16.824   4.780 -0.1919 -0.0382  0.1939
  828loPI   C1A13239  12.729  16.662   5.015  0.1008 -0.0451  0.4291
  828loPI   C2A13240  12.432  16.808   5.343  0.0524 -0.0465 -0.0449
  828loPI   C3A13241  12.177  16.644   5.657  0.0839 -0.0314 -0.1533
  828loPI   C4A13242  11.858  16.533   6.004 -0.1709  0.3053 -0.0428
  828loPI   C5A13243  11.664  16.165   6.041 -0.0686  0.0178  0.0037
  828loPI   C6A13244  11.645  15.958   5.606  0.2259  0.3267 -0.2318
  828loPI   C1B13245  13.182  16.867   5.194  0.0099 -0.0767 -0.1576
  828loPI   C2B13246  13.304  16.865   5.609  0.3949 -0.0933  0.2446
  828loPI   C3B13247  13.228  16.846   5.967 -0.1584 -0.0368 -0.0063
  828loPI   C4B13248  12.848  16.986   6.240  0.1069 -0.0743 -0.2655
  829loPI    C113249   9.801  17.649   4.097  0.0173 -0.1248  0.0705
  829loPI    C213250  10.150  17.589   3.912 -0.0541  0.1753 -0.1684
  829loPI    C313251   9.825  17.385   3.798  0.0097  0.0017 -0.0426
  829loPI   PO413252   9.915  17.664   4.416  0.1367 -0.1261  0.0558
  829loPI   GL113253  10.116  17.786   4.809 -0.2470  0.2550 -0.1373
  829loPI   GL213254  10.428  17.832   4.804 -0.3494 -0.1383 -0.1983
  829loPI   C1A13255  10.071  17.872   5.249 -0.1615 -0.0078 -0.3060
  829loPI   C2A13256  10.051  17.985   5.673 -0.1963  0.0637 -0.4237
  829loPI   C3A13257  10.250  17.998   6.141  0.1339  0.1459  0.0987
  829loPI   C4A13258  10.097  18.011   6.560 -0.2403  0.1045  0.0820
  829loPI   C5A13259  10.029  17.812   6.989 -0.0037  0.0872  0.2107
  829loPI   C6A13260   9.996  17.638   7.318 -0.1080  0.1753  0.0529
  829loPI   C1B13261  10.598  17.965   5.234  0.2624  0.1853 -0.1852
  829loPI   C2B13262  10.436  18.223   5.590 -0.1882  0.1075 -0.2085
  829loPI   C3B13263  10.420  18.438   5.979 -0.1556 -0.0230 -0.2860
  829loPI   C4B13264  10.740  18.578   6.341 -0.3114  0.3730  0.0386
  830loPI    C113265   9.056   9.349   4.777 -0.0317 -0.0736 -0.1067
  830loPI    C213266   9.291   9.283   4.460 -0.1530 -0.3200 -0.1474
  830loPI    C313267   8.931   9.450   4.411 -0.0413 -0.0600 -0.0997
  830loPI   PO413268   9.118   9.371   4.982  0.0001 -0.2443  0.2497
  830loPI   GL113269   9.323   9.595   5.319 -0.2077 -0.0399 -0.2604
  830loPI   GL213270   9.467   9.298   5.357  0.3671  0.0054 -0.5280
  830loPI   C1A13271   9.538   9.865   5.681 -0.0018 -0.2480 -0.0415
  830loPI   C2A13272   9.858   9.708   6.020  0.0656 -0.1333  0.1435
  830loPI   C3A13273  10.126   9.920   6.306 -0.0433 -0.2432  0.0658
  830loPI   C4A13274  10.453  10.087   6.524 -0.5804  0.0942 -0.2139
  830loPI   C5A13275  10.787  10.176   6.714 -0.0566 -0.0450  0.3226
  830loPI   C6A13276  11.173  10.367   6.866 -0.0860  0.1181 -0.2316
  830loPI   C1B13277   9.694   9.363   5.725 -0.0618 -0.0604  0.2669
  830loPI   C2B13278   9.704   9.164   6.111  0.0477 -0.0352 -0.1258
  830loPI   C3B13279   9.454   9.020   6.508  0.1971  0.0087  0.3701
  830loPI   C4B13280   9.065   8.951   6.856  0.1140 -0.0666 -0.0314
  831loPI    C113281   0.697  10.389   4.187 -0.1098 -0.0018  0.1186
  831loPI    C213282   0.856  10.683   3.968 -0.1588  0.1000  0.2189
  831loPI    C313283   0.592  10.431   3.804  0.1607 -0.1178  0.0291
  831loPI   PO413284   0.540  10.450   4.405  0.0284  0.0804 -0.0936
  831loPI   GL113285   0.609  10.580   4.810 -0.2814 -0.0512  0.2921
  831loPI   GL213286   0.313  10.620   4.912 -0.0431  0.0375 -0.1552
  831loPI   C1A13287   0.607  10.242   5.168  0.2134 -0.3314 -0.0641
  831loPI   C2A13288   0.464  10.247   5.547  0.0704  0.0574  0.1299
  831loPI   C3A13289   0.359  10.052   5.986 -0.0598 -0.1424 -0.0700
  831loPI   C4A13290   0.362   9.616   5.997 -0.0063 -0.1626  0.1662
  831loPI   C5A13291   0.273   9.257   5.964  0.1168  0.0276 -0.1396
  831loPI   C6A13292   0.254   8.872   6.221 -0.1434 -0.0603  0.1891
  831loPI   C1B13293   0.294  10.832   5.187  0.1603  0.2888 -0.4398
  831loPI   C2B13294   0.269  10.723   5.637  0.2736 -0.0493  0.0085
  831loPI   C3B13295   0.160  10.528   6.004 -0.0234  0.3926 -0.2565
  831loPI   C4B13296   0.205  10.689   6.440 -0.1621  0.2242 -0.1824
  832loPI    C113297   6.575  15.270   4.615 -0.2241 -0.2989 -0.0056
  832loPI    C213298   6.464  15.453   4.276 -0.3112 -0.0924  0.1325
  832loPI    C313299   6.221  15.185   4.448 -0.1697 -0.3668 -0.0874
  832loPI   PO413300   6.583  15.477   4.832  0.2196  0.0679 -0.3136
  832loPI   GL113301   6.575  15.450   5.250 -0.0214 -0.4482 -0.2288
  832loPI   GL213302   6.803  15.351   5.359  0.2076 -0.3781 -0.0043
  832loPI   C1A13303   6.610  15.700   5.664  0.0118 -0.3076  0.2818
  832loPI   C2A13304   6.667  15.824   6.025  0.1362  0.1676  0.1881
  832loPI   C3A13305   6.702  15.553   6.362 -0.1342  0.0068  0.0909
  832loPI   C4A13306   6.706  15.739   6.795  0.2043  0.1920 -0.0283
  832loPI   C5A13307   6.400  15.779   7.177 -0.1054 -0.2870  0.3285
  832loPI   C6A13308   6.074  15.641   7.305  0.0274 -0.0158 -0.0596
  832loPI   C1B13309   6.742  14.969   5.528  0.1032  0.1323 -0.1772
  832loPI   C2B13310   6.483  14.769   5.797  0.0798  0.1743 -0.1286
  832loPI   C3B13311   6.329  14.350   5.697  0.0469 -0.0530  0.1440
  832loPI   C4B13312   5.940  14.074   5.787  0.0726  0.0704  0.2212
  833loPI    C113313  18.169  17.950   3.936 -0.1661  0.0010 -0.1173
  833loPI    C213314  18.158  18.312   3.766  0.2785  0.1211  0.0946
  833loPI    C313315  18.338  18.009   3.578 -0.1345 -0.0083 -0.1040
  833loPI   PO413316  17.931  17.844   4.026 -0.2219 -0.0628  0.0444
  833loPI   GL113317  17.909  17.838   4.453 -0.1278 -0.1893 -0.1079
  833loPI   GL213318  17.995  17.502   4.566  0.1894 -0.1108  0.2175
  833loPI   C1A13319  17.701  17.928   4.826 -0.1871  0.0964 -0.2976
  833loPI   C2A13320  17.883  18.075   5.148  0.1524 -0.0637 -0.1463
  833loPI   C3A13321  17.801  18.011   5.708  0.2609 -0.0737 -0.0775
  833loPI   C4A13322  17.645  17.934   6.105 -0.2128 -0.1267 -0.0366
  833loPI   C5A13323  17.361  17.796   6.410 -0.1068  0.0671 -0.0490
  833loPI   C6A13324  17.176  17.543   6.275 -0.0925  0.4591  0.0427
  833loPI   C1B13325  18.272  17.783   4.841  0.2709 -0.0543 -0.0332
  833loPI   C2B13326  18.265  17.757   5.279 -0.1599  0.3152  0.1087
  833loPI   C3B13327  18.272  17.887   5.683 -0.0711 -0.1548 -0.0192
  833loPI   C4B13328  18.269  18.306   5.896  0.2446 -0.2122 -0.3068
  834loPI    C113329   6.149  13.961   4.619 -0.1120 -0.0815  0.1280
  834loPI    C213330   6.196  13.588   4.481  0.0998  0.0670 -0.2169
  834loPI    C313331   6.437  13.880   4.353 -0.1133  0.3402 -0.0088
  834loPI   PO413332   6.177  13.868   4.935  0.1002 -0.0462  0.1687
  834loPI   GL113333   5.994  13.729   5.290  0.2894 -0.1623 -0.3919
  834loPI   GL213334   5.646  13.819   5.452  0.1453 -0.0279 -0.1078
  834loPI   C1A13335   6.062  13.590   5.638 -0.2676 -0.0072 -0.0561
  834loPI   C2A13336   6.192  13.396   5.998  0.1584  0.1134 -0.2729
  834loPI   C3A13337   5.992  13.174   6.284 -0.1970 -0.2612 -0.0672
  834loPI   C4A13338   5.714  12.818   6.544  0.3960  0.0915  0.1131
  834loPI   C5A13339   5.852  12.476   6.914  0.2704 -0.0903 -0.0138
  834loPI   C6A13340   5.790  12.147   7.187  0.2452  0.0431 -0.2452
  834loPI   C1B13341   5.563  13.660   5.850 -0.0175  0.2175  0.0938
  834loPI   C2B13342   5.895  13.724   6.197  0.0306  0.0349  0.2389
  834loPI   C3B13343   6.092  13.585   6.526  0.3961  0.0648 -0.0155
  834loPI   C4B13344   6.096  13.576   7.025  0.0024  0.1748 -0.0333
  835loPI    C113345   7.414  13.745   4.563 -0.1278 -0.1377 -0.0830
  835loPI    C213346   7.786  13.737   4.416 -0.0761  0.0916  0.0316
  835loPI    C313347   7.513  13.982   4.256 -0.0813  0.1781  0.1707
  835loPI   PO413348   7.401  13.776   4.852  0.1065 -0.1751 -0.0225
  835loPI   GL113349   7.510  13.736   5.357  0.1710  0.4285 -0.2217
  835loPI   GL213350   7.767  13.921   5.487  0.0199  0.0823  0.0917
  835loPI   C1A13351   7.201  13.597   5.696 -0.2230  0.3150 -0.0570
  835loPI   C2A13352   6.932  13.752   6.045 -0.2563 -0.3259  0.0269
  835loPI   C3A13353   7.088  13.876   6.406  0.2466  0.1737 -0.0672
  835loPI   C4A13354   7.008  13.974   6.812  0.3528 -0.4419 -0.0916
  835loPI   C5A13355   6.744  14.191   7.084 -0.1078  0.0287 -0.0639
  835loPI   C6A13356   6.344  14.144   7.326  0.2514  0.4531  0.1987
  835loPI   C1B13357   7.646  13.712   5.794  0.2995  0.2649  0.0523
  835loPI   C2B13358   7.577  13.576   6.194  0.0214  0.0726  0.1316
  835loPI   C3B13359   7.477  13.520   6.616 -0.0412 -0.0502 -0.1090
  835loPI   C4B13360   7.360  13.705   6.967 -0.2193 -0.3929 -0.2454
  836loPI    C113361  15.571  16.608   3.982 -0.0119 -0.2713  0.4336
  836loPI    C213362  15.959  16.704   3.971 -0.1320  0.2089  0.0328
  836loPI    C313363  15.828  16.382   3.773  0.1020 -0.1424  0.4329
  836loPI   PO413364  15.507  16.570   4.277 -0.0069 -0.1185 -0.0138
  836loPI   GL113365  15.451  16.419   4.761  0.0761 -0.3198 -0.2851
  836loPI   GL213366  15.713  16.507   4.838  0.2685 -0.0412 -0.0653
  836loPI   C1A13367  15.579  16.114   5.224  0.1078 -0.0315 -0.2085
  836loPI   C2A13368  15.542  16.138   5.584  0.1479  0.4817 -0.1457
  836loPI   C3A13369  15.802  16.268   5.842  0.1473 -0.3137 -0.1067
  836loPI   C4A13370  15.773  16.448   6.211  0.1330  0.0589  0.0028
  836loPI   C5A13371  15.596  16.532   6.639 -0.1384  0.0438  0.1873
  836loPI   C6A13372  15.378  16.779   6.875 -0.1467  0.0641  0.0561
  836loPI   C1B13373  15.715  16.627   5.290 -0.1746 -0.1774 -0.1066
  836loPI   C2B13374  15.477  16.714   5.638 -0.1703  0.2154  0.0024
  836loPI   C3B13375  15.463  16.807   6.071 -0.0715  0.0153  0.2061
  836loPI   C4B13376  15.477  16.984   6.439  0.0488  0.3688  0.1278
  837loPI    C113377  17.306  17.903   3.780  0.2902  0.0644 -0.1130
  837loPI    C213378  16.932  17.964   3.652  0.2913  0.0611 -0.1175
  837loPI    C313379  17.137  17.644   3.527  0.2634  0.0146 -0.0444
  837loPI   PO413380  17.304  17.966   4.056  0.1855 -0.2249  0.1522
  837loPI   GL113381  17.363  18.172   4.481  0.0407 -0.0806 -0.0810
  837loPI   GL213382  17.233  18.372   4.388 -0.0584  0.2108 -0.3202
  837loPI   C1A13383  17.093  18.185   4.805  0.4003 -0.2161 -0.4001
  837loPI   C2A13384  17.057  18.257   5.205  0.0682  0.2680 -0.0485
  837loPI   C3A13385  16.903  18.415   5.643  0.0321  0.1623  0.1062
  837loPI   C4A13386  16.716  18.422   6.073  0.0557  0.1825  0.3513
  837loPI   C5A13387  16.610  18.526   6.498  0.0776 -0.0319 -0.0019
  837loPI   C6A13388  16.743  18.469   6.775 -0.1239 -0.1965  0.3650
  837loPI   C1B13389  17.038  18.636   4.716  0.1067  0.1130  0.3088
  837loPI   C2B13390  17.022  18.763   5.160  0.1213 -0.0592 -0.0536
  837loPI   C3B13391  17.066  19.185   5.232 -0.5134 -0.2787 -0.2413
  837loPI   C4B13392  17.113  19.549   5.524 -0.0666  0.1034  0.0180
  838loPI    C113393  12.777  -0.108   3.880  0.0291  0.0337 -0.4333
  838loPI    C213394  12.587   0.202   4.047  0.2980  0.0400 -0.1296
  838loPI    C313395  12.410  -0.007   3.756 -0.0582  0.2145 -0.0440
  838loPI   PO413396  13.040   0.029   4.092  0.1246 -0.0595 -0.0850
  838loPI   GL113397  13.149   0.112   4.469  0.0764  0.1678 -0.2022
  838loPI   GL213398  13.461  -0.005   4.487 -0.4289 -0.0816 -0.0785
  838loPI   C1A13399  13.140   0.436   4.739  0.1019 -0.2551 -0.3667
  838loPI   C2A13400  13.211   0.699   5.130 -0.0613  0.2406 -0.2384
  838loPI   C3A13401  13.073   0.900   5.460  0.1557 -0.0987  0.3496
  838loPI   C4A13402  12.846   1.087   5.794  0.0551 -0.0106  0.1931
  838loPI   C5A13403  13.036   1.339   6.081 -0.0116  0.0816  0.1136
  838loPI   C6A13404  13.093   1.586   6.489  0.1182 -0.0663  0.1068
  838loPI   C1B13405  13.526   0.196   4.920  0.2864  0.1365  0.0147
  838loPI   C2B13406  13.651   0.352   5.345 -0.2781 -0.0039 -0.2000
  838loPI   C3B13407  13.652   0.679   5.606  0.0186 -0.0901 -0.1278
  838loPI   C4B13408  13.338   0.971   5.850 -0.1350  0.1265 -0.0534
  839loPI    C113409   2.476  12.270   4.407 -0.2625  0.0618 -0.0229
  839loPI    C213410   2.360  11.887   4.407 -0.3799  0.0969 -0.0197
  839loPI    C313411   2.432  12.074   4.061  0.2728 -0.1040 -0.0045
  839loPI   PO413412   2.415  12.367   4.606  0.0993 -0.0195  0.1999
  839loPI   GL113413   2.572  12.486   5.041  0.0871 -0.0425  0.1480
  839loPI   GL213414   2.579  12.735   4.940 -0.1336 -0.0322  0.1545
  839loPI   C1A13415   2.519  12.180   5.365  0.0823 -0.4581  0.1815
  839loPI   C2A13416   2.448  12.169   5.839 -0.1162 -0.0890 -0.2320
  839loPI   C3A13417   2.261  12.278   6.285 -0.0268 -0.2498 -0.3557
  839loPI   C4A13418   1.880  12.152   6.431  0.0618 -0.0539 -0.0806
  839loPI   C5A13419   1.523  12.211   6.605  0.1147 -0.2793  0.0581
  839loPI   C6A13420   1.410  12.526   6.940  0.0896 -0.0137 -0.1284
  839loPI   C1B13421   2.502  12.929   5.305 -0.2375 -0.1731  0.2057
  839loPI   C2B13422   2.400  12.750   5.702  0.5057  0.1536  0.0073
  839loPI   C3B13423   2.544  12.618   6.060 -0.4458 -0.0292 -0.1679
  839loPI   C4B13424   2.827  12.583   6.386 -0.1198 -0.3029 -0.4367
  840loPI    C113425  14.350  12.797   3.876 -0.4340  0.6017 -0.0586
  840loPI    C213426  14.651  12.708   3.629 -0.1762  0.0697  0.4223
  840loPI    C313427  14.273  12.682   3.501 -0.0474 -0.1223  0.0649
  840loPI   PO413428  14.421  12.675   4.102  0.1802 -0.2902  0.2662
  840loPI   GL113429  14.384  12.816   4.506  0.0923  0.0638  0.2878
  840loPI   GL213430  14.703  12.580   4.504 -0.1543 -0.1931 -0.3308
  840loPI   C1A13431  14.333  12.519   4.804 -0.1000 -0.2450 -0.0090
  840loPI   C2A13432  14.081  12.319   5.108  0.2237  0.2854 -0.3205
  840loPI   C3A13433  14.093  12.313   5.542  0.2161  0.0993  0.3199
  840loPI   C4A13434  13.896  12.345   5.984  0.0918  0.0182  0.0117
  840loPI   C5A13435  14.025  12.478   6.403 -0.2254  0.1026  0.0128
  840loPI   C6A13436  14.140  12.967   6.507  0.2082  0.1531 -0.3069
  840loPI   C1B13437  14.815  12.285   4.814  0.2594  0.0389  0.1528
  840loPI   C2B13438  15.105  12.203   5.219  0.2129 -0.0864  0.1953
  840loPI   C3B13439  15.053  11.875   5.515  0.0452  0.1772 -0.0698
  840loPI   C4B13440  14.855  11.917   5.901 -0.2558 -0.1272 -0.1558
  841loPI    C113441  13.245  16.653   4.336 -0.0804 -0.0139 -0.1596
  841loPI    C213442  13.581  16.868   4.312 -0.0504 -0.0369  0.0399
  841loPI    C313443  13.230  17.051   4.373 -0.0465 -0.0304  0.0430
  841loPI   PO413444  13.287  16.451   4.484 -0.1958  0.1167 -0.2184
  841loPI   GL113445  13.414  16.377   4.844 -0.0292 -0.0111  0.1056
  841loPI   GL213446  13.658  16.748   4.786  0.1740  0.2040 -0.2555
  841loPI   C1A13447  13.189  16.380   5.235 -0.0519  0.3124 -0.4412
  841loPI   C2A13448  13.036  16.482   5.596  0.0461 -0.1328 -0.1292
  841loPI   C3A13449  13.108  16.352   5.990 -0.0304 -0.0689  0.0108
  841loPI   C4A13450  13.213  16.473   6.352  0.2551  0.3055  0.4674
  841loPI   C5A13451  13.574  16.493   6.644  0.0074  0.1908  0.0749
  841loPI   C6A13452  13.771  16.348   6.915 -0.1438  0.1463 -0.2853
  841loPI   C1B13453  13.641  16.592   5.260  0.1021 -0.2076 -0.2046
  841loPI   C2B13454  13.641  16.470   5.663 -0.0403  0.2571 -0.0258
  841loPI   C3B13455  13.658  16.619   6.122  0.1140 -0.1813  0.0702
  841loPI   C4B13456  13.495  16.934   6.364 -0.0611  0.3676 -0.0797
  842loPI    C113457   3.618  18.223   4.200  0.0717 -0.0500  0.0332
  842loPI    C213458   3.884  18.433   3.987 -0.0770  0.2764  0.1638
  842loPI    C313459   3.549  18.301   3.814 -0.0588  0.2862  0.1211
  842loPI   PO413460   3.548  18.374   4.451  0.0603 -0.0450 -0.1550
  842loPI   GL113461   3.527  18.495   4.931  0.2073  0.4262  0.2451
  842loPI   GL213462   3.236  18.434   5.189 -0.0154  0.1035  0.1857
  842loPI   C1A13463   3.833  18.519   5.248 -0.1360 -0.1855  0.0112
  842loPI   C2A13464   3.887  18.524   5.681 -0.0775  0.0145  0.0322
  842loPI   C3A13465   4.000  18.386   6.110 -0.1676  0.1124 -0.1755
  842loPI   C4A13466   4.033  18.032   6.458 -0.0756 -0.0990  0.2892
  842loPI   C5A13467   3.793  17.771   6.833 -0.1044  0.0179 -0.0138
  842loPI   C6A13468   3.393  17.565   7.177  0.3535 -0.1375 -0.3037
  842loPI   C1B13469   3.311  18.478   5.530  0.0232 -0.2048 -0.3533
  842loPI   C2B13470   3.403  18.452   5.954 -0.2165 -0.2169 -0.0515
  842loPI   C3B13471   3.562  18.725   6.321  0.2637 -0.1139  0.0028
  842loPI   C4B13472   3.753  19.041   6.673 -0.0284 -0.0785 -0.0305
  843loPI    C113473   9.482  12.818   4.803  0.1948 -0.1017 -0.0705
  843loPI    C213474   9.484  13.105   4.524  0.1741  0.1053  0.1390
  843loPI    C313475   9.795  12.855   4.556  0.1626  0.0603 -0.0881
  843loPI   PO413476   9.453  12.938   5.035  0.1203 -0.2037  0.1116
  843loPI   GL113477   9.205  13.010   5.401  0.2044  0.3169  0.2427
  843loPI   GL213478   8.869  13.130   5.369 -0.4239 -0.1153  0.1590
  843loPI   C1A13479   9.492  13.252   5.694  0.0616 -0.1063  0.0148
  843loPI   C2A13480   9.397  13.621   5.936  0.0739  0.1485  0.1433
  843loPI   C3A13481   9.285  13.731   6.389 -0.0076 -0.1619 -0.1591
  843loPI   C4A13482   9.121  13.982   6.810  0.3804  0.0558  0.2058
  843loPI   C5A13483   8.933  14.035   7.180  0.2557  0.0675 -0.1520
  843loPI   C6A13484   8.557  14.264   7.274 -0.0701  0.0273 -0.0441
  843loPI   C1B13485   8.986  13.271   5.748 -0.0847 -0.1189  0.2847
  843loPI   C2B13486   9.011  13.318   6.179 -0.0339 -0.0076  0.0545
  843loPI   C3B13487   8.923  13.314   6.691  0.0947 -0.2376 -0.1262
  843loPI   C4B13488   8.866  12.954   7.008 -0.0082 -0.2328  0.0742
  844loPI    C113489   7.525   0.962   4.097 -0.1314 -0.0117 -0.0928
  844loPI    C213490   7.735   0.629   4.021 -0.2126 -0.0982  0.0562
  844loPI    C313491   7.559   0.828   3.722 -0.1094 -0.1529 -0.0414
  844loPI   PO413492   7.628   1.105   4.393 -0.0048  0.3911 -0.1146
  844loPI   GL113493   7.434   1.272   4.763 -0.0206  0.2842 -0.1060
  844loPI   GL213494   7.161   1.180   4.997 -0.0434  0.2544 -0.1344
  844loPI   C1A13495   7.782   1.524   4.952  0.0602  0.0884 -0.4743
  844loPI   C2A13496   7.978   1.456   5.457 -0.3897  0.0459 -0.0153
  844loPI   C3A13497   7.977   1.438   5.936 -0.1051 -0.0620  0.0180
  844loPI   C4A13498   8.031   1.486   6.300 -0.0452  0.2098  0.0395
  844loPI   C5A13499   8.029   1.279   6.640 -0.1058  0.0836  0.2183
  844loPI   C6A13500   7.743   1.218   7.012  0.0317 -0.0063 -0.0213
  844loPI   C1B13501   7.106   1.381   5.451 -0.2287  0.0334  0.1773
  844loPI   C2B13502   7.002   1.389   5.861 -0.1843  0.0638 -0.1673
  844loPI   C3B13503   7.069   1.235   6.275  0.1611  0.3506 -0.2408
  844loPI   C4B13504   7.247   1.101   6.605 -0.0089  0.3012 -0.0871
  845loPI    C113505   8.144  13.388   5.122 -0.1121 -0.1251  0.0220
  845loPI    C213506   8.043  13.013   5.024 -0.0771 -0.1405  0.0445
  845loPI    C313507   8.056  13.297   4.742 -0.0813 -0.1611  0.0236
  845loPI   PO413508   7.956  13.444   5.316  0.1330 -0.3092  0.1253
  845loPI   GL113509   8.073  13.446   5.691 -0.1529  0.0397  0.0612
  845loPI   GL213510   8.218  13.752   5.826  0.1292  0.0582 -0.0399
  845loPI   C1A13511   8.095  13.120   5.879 -0.0577  0.1357 -0.2203
  845loPI   C2A13512   8.269  13.005   6.276 -0.1133  0.2303 -0.2467
  845loPI   C3A13513   8.384  13.288   6.674  0.0852 -0.0096  0.2700
  845loPI   C4A13514   8.146  13.373   7.117  0.0657  0.0272  0.2414
  845loPI   C5A13515   7.868  13.646   7.371 -0.0510 -0.0822  0.0204
  845loPI   C6A13516   7.815  14.106   7.443  0.5818  0.3391  0.1727
  845loPI   C1B13517   7.900  14.080   5.968 -0.1631  0.0378  0.3551
  845loPI   C2B13518   7.657  14.051   6.330 -0.0379 -0.1961  0.0955
  845loPI   C3B13519   7.519  14.123   6.648  0.0544  0.1644  0.1872
  845loPI   C4B13520   7.601  14.318   7.020  0.0281 -0.1862  0.1441
  846loPI    C113521  14.467  18.448   4.112  0.1247 -0.0997 -0.0491
  846loPI    C213522  14.224  18.250   3.864  0.0646  0.0285 -0.0937
  846loPI    C313523  14.611  18.294   3.773  0.0594  0.0075 -0.1264
  846loPI   PO413524  14.395  18.781   4.171 -0.0343 -0.0015 -0.0407
  846loPI   GL113525  14.547  18.955   4.570  0.0407  0.0724 -0.2982
  846loPI   GL213526  14.758  19.014   4.704  0.0784 -0.0650  0.2861
  846loPI   C1A13527  14.201  19.182   4.855  0.1979 -0.2181 -0.1280
  846loPI   C2A13528  14.113  19.497   5.169 -0.0742 -0.1629 -0.2413
  846loPI   C3A13529  13.881  19.805   5.445  0.0271 -0.2096 -0.2382
  846loPI   C4A13530  14.073  20.093   5.816  0.1029  0.1261  0.0289
  846loPI   C5A13531  13.947  20.379   6.184 -0.1574  0.1337 -0.4279
  846loPI   C6A13532  13.871  20.764   6.009 -0.2282 -0.1777  0.0803
  846loPI   C1B13533  14.728  18.911   5.181  0.0593 -0.0237  0.1561
  846loPI   C2B13534  14.467  19.081   5.478 -0.1824  0.0065 -0.3650
  846loPI   C3B13535  14.244  19.386   5.635 -0.1651  0.2535 -0.4075
  846loPI   C4B13536  14.008  19.629   5.923 -0.0202  0.1039 -0.1852
  847loPI    C113537  18.229   0.599   4.163 -0.0269 -0.1318 -0.1198
  847loPI    C213538  18.365   0.900   3.937 -0.2280 -0.0192 -0.0923
  847loPI    C313539  18.309   0.538   3.775  0.0946 -0.0655 -0.1057
  847loPI   PO413540  18.207   0.761   4.461  0.0978  0.0361 -0.1542
  847loPI   GL113541  18.210   0.907   4.878 -0.0954  0.2304 -0.0476
  847loPI   GL213542  17.811   0.830   4.819 -0.0881 -0.1399  0.2083
  847loPI   C1A13543  18.313   0.892   5.337 -0.0630  0.2148  0.3325
  847loPI   C2A13544  18.279   0.890   5.832  0.0218  0.2094  0.3377
  847loPI   C3A13545  18.421   0.963   6.189  0.3459 -0.0350  0.0851
  847loPI   C4A13546  18.211   0.931   6.619 -0.4600  0.3183 -0.1309
  847loPI   C5A13547  18.088   0.874   6.987  0.2374 -0.1948  0.0432
  847loPI   C6A13548  18.246   0.620   7.200 -0.1138  0.1703  0.2407
  847loPI   C1B13549  17.827   0.693   5.224  0.1679 -0.3695  0.1884
  847loPI   C2B13550  17.873   0.765   5.592 -0.2568 -0.1809  0.0430
  847loPI   C3B13551  17.841   0.757   5.955 -0.2653  0.0067 -0.1199
  847loPI   C4B13552  17.882   0.604   6.390  0.1648  0.0428  0.0314
  848loPI    C113553   3.919  12.622   4.919  0.1306  0.1649 -0.1891
  848loPI    C213554   4.143  12.293   4.883  0.1698  0.1693  0.0047
  848loPI    C313555   3.808  12.331   4.668  0.1268 -0.0294  0.0344
  848loPI   PO413556   4.134  12.878   4.874  0.3662  0.1763 -0.0737
  848loPI   GL113557   4.235  13.267   5.020  0.0089 -0.1730 -0.0306
  848loPI   GL213558   4.563  13.088   5.132  0.1678  0.3414  0.0265
  848loPI   C1A13559   4.243  13.431   5.514  0.0985  0.0236 -0.2563
  848loPI   C2A13560   4.337  13.573   5.947  0.3279 -0.0860  0.0454
  848loPI   C3A13561   4.185  13.539   6.387  0.3272 -0.2247 -0.1012
  848loPI   C4A13562   4.251  13.384   6.704 -0.0047  0.1412  0.0889
  848loPI   C5A13563   4.314  13.379   7.182  0.1488 -0.1437 -0.4062
  848loPI   C6A13564   4.238  13.250   7.621  0.2139 -0.0361 -0.1965
  848loPI   C1B13565   4.457  12.927   5.505  0.2870  0.4532 -0.0684
  848loPI   C2B13566   4.604  12.722   5.822 -0.4272  0.1724  0.2310
  848loPI   C3B13567   4.733  12.694   6.261  0.4711  0.2271  0.3883
  848loPI   C4B13568   4.879  12.575   6.674  0.1838 -0.4388 -0.0028
  849loPI    C113569   1.440   7.357   4.013 -0.0838  0.3098 -0.0119
  849loPI    C213570   1.390   6.963   3.966 -0.0755  0.2893  0.1484
  849loPI    C313571   1.472   7.193   3.649  0.1002  0.1358  0.0812
  849loPI   PO413572   1.548   7.324   4.290  0.1310 -0.2795 -0.2085
  849loPI   GL113573   1.677   7.287   4.781 -0.4825  0.0107 -0.2638
  849loPI   GL213574   1.576   7.578   4.778 -0.1704 -0.2459 -0.2958
  849loPI   C1A13575   1.883   7.376   5.150  0.2832  0.0188 -0.0964
  849loPI   C2A13576   1.829   7.536   5.463 -0.0342  0.1923  0.0189
  849loPI   C3A13577   1.832   7.929   5.580  0.0587 -0.0918  0.0393
  849loPI   C4A13578   1.788   8.161   5.966  0.3162 -0.1112 -0.1165
  849loPI   C5A13579   2.159   8.051   6.115  0.0834  0.0625  0.0151
  849loPI   C6A13580   2.236   7.863   6.420 -0.0842 -0.4344  0.0202
  849loPI   C1B13581   1.885   7.835   4.971  0.0082  0.1032  0.3033
  849loPI   C2B13582   1.892   8.127   5.130  0.1189  0.2692  0.0904
  849loPI   C3B13583   1.986   8.511   5.476 -0.0309  0.0783  0.1413
  849loPI   C4B13584   1.959   8.617   5.912  0.0784 -0.1014  0.3168
  850loPI    C113585  18.556   4.362   4.231  0.3107  0.1512 -0.0905
  850loPI    C213586  18.415   4.069   3.999  0.0029 -0.0236  0.3058
  850loPI    C313587  18.357   4.451   3.896  0.0759 -0.0978 -0.0207
  850loPI   PO413588  18.761   4.191   4.463 -0.3575 -0.2938 -0.2024
  850loPI   GL113589  18.959   4.247   4.903 -0.0823  0.1388 -0.2058
  850loPI   GL213590  18.711   4.044   4.957  0.0178 -0.0571 -0.1572
  850loPI   C1A13591  18.842   4.457   5.205 -0.3687 -0.1163 -0.1315
  850loPI   C2A13592  19.098   4.436   5.497 -0.3179  0.0605 -0.2450
  850loPI   C3A13593  19.270   4.185   5.797  0.2915  0.0813  0.1563
  850loPI   C4A13594  19.337   4.143   6.301  0.1836 -0.1220 -0.1428
  850loPI   C5A13595  19.511   4.007   6.714  0.2941 -0.0372 -0.1270
  850loPI   C6A13596  19.723   3.919   7.063 -0.0031  0.0644 -0.2338
  850loPI   C1B13597  18.807   3.979   5.410  0.3223  0.3346 -0.0060
  850loPI   C2B13598  18.574   4.251   5.614  0.0352 -0.0211  0.2304
  850loPI   C3B13599  18.665   4.642   5.728 -0.0327  0.0643  0.2658
  850loPI   C4B13600  18.461   4.777   5.373  0.1998  0.2845  0.1974
  851loPI    C113601  12.951  19.310   4.313 -0.3107 -0.1001  0.0657
  851loPI    C213602  13.015  19.055   4.615 -0.1281 -0.0407  0.0781
  851loPI    C313603  12.685  19.021   4.391 -0.2779 -0.0689  0.2998
  851loPI   PO413604  13.102  19.563   4.381  0.0223 -0.1059  0.0871
  851loPI   GL113605  13.070  19.693   4.852 -0.0097  0.1524 -0.0067
  851loPI   GL213606  13.245  19.408   4.840  0.4135  0.0490  0.0368
  851loPI   C1A13607  12.926  19.669   5.230  0.1327 -0.0354 -0.1382
  851loPI   C2A13608  12.973  19.450   5.675  0.1457 -0.2602 -0.1572
  851loPI   C3A13609  13.008  19.193   5.977 -0.0740 -0.2445 -0.2122
  851loPI   C4A13610  12.838  19.116   6.370  0.0120 -0.0125  0.3852
  851loPI   C5A13611  12.684  18.864   6.503  0.2375 -0.0916  0.1697
  851loPI   C6A13612  12.820  18.554   6.675  0.0205  0.0727  0.2690
  851loPI   C1B13613  13.099  19.200   5.111 -0.2008 -0.0597  0.0681
  851loPI   C2B13614  13.175  18.986   5.420  0.0820  0.2537 -0.0757
  851loPI   C3B13615  13.368  18.880   5.790  0.2570  0.2479 -0.2411
  851loPI   C4B13616  13.519  19.073   6.153  0.1879  0.0828 -0.1853
  852loPI    C113617  18.215   5.931   4.103 -0.1449  0.0077  0.2351
  852loPI    C213618  18.534   5.706   4.193 -0.1295 -0.1550 -0.2039
  852loPI    C313619  18.203   5.682   4.417  0.0806 -0.1616  0.1121
  852loPI   PO413620  18.300   6.139   4.114 -0.2169 -0.1466 -0.1141
  852loPI   GL113621  18.391   6.487   4.427 -0.0038  0.3226  0.0171
  852loPI   GL213622  18.506   6.187   4.586 -0.1209 -0.2926  0.2191
  852loPI   C1A13623  18.520   6.636   4.878 -0.2099  0.0120 -0.4954
  852loPI   C2A13624  18.752   6.549   5.193 -0.0416 -0.2161 -0.0789
  852loPI   C3A13625  18.966   6.552   5.536 -0.1236 -0.2422 -0.1252
  852loPI   C4A13626  19.033   6.563   6.041  0.0717 -0.0960 -0.1823
  852loPI   C5A13627  18.775   6.258   6.437  0.0487  0.0933 -0.0291
  852loPI   C6A13628  18.438   6.186   6.671  0.1293  0.2189 -0.2725
  852loPI   C1B13629  18.549   6.145   5.027 -0.2766  0.1942  0.0067
  852loPI   C2B13630  18.671   5.858   5.370  0.2635 -0.1550 -0.0647
  852loPI   C3B13631  18.399   5.790   5.739 -0.0266 -0.3462  0.3986
  852loPI   C4B13632  18.052   5.876   5.989  0.1702  0.0664  0.4616
  853loPI    C113633  10.369   3.801   4.490 -0.1550 -0.3487 -0.2656
  853loPI    C213634  10.004   3.945   4.416 -0.1293 -0.0933  0.0809
  853loPI    C313635  10.320   4.098   4.226 -0.1522  0.0022  0.1189
  853loPI   PO413636  10.378   3.710   4.770  0.1118 -0.1802  0.1798
  853loPI   GL113637  10.721   3.810   5.025 -0.0295  0.0856  0.1010
  853loPI   GL213638  10.655   4.154   5.033  0.0696  0.1777 -0.0057
  853loPI   C1A13639  10.768   3.986   5.502  0.0337  0.1953  0.3608
  853loPI   C2A13640  10.801   3.914   5.926 -0.1857  0.0700  0.0414
  853loPI   C3A13641  11.046   3.813   6.340 -0.0588 -0.2414 -0.0457
  853loPI   C4A13642  11.189   3.606   6.677  0.0319  0.5250 -0.0788
  853loPI   C5A13643  11.346   3.324   6.907  0.1501  0.0799 -0.1060
  853loPI   C6A13644  11.699   3.264   7.017 -0.3038  0.1883  0.0594
  853loPI   C1B13645  10.685   4.472   5.429 -0.0578  0.0692 -0.3095
  853loPI   C2B13646  10.660   4.474   5.928 -0.0788 -0.1998 -0.1321
  853loPI   C3B13647  10.502   4.686   6.254  0.1063 -0.2002  0.0684
  853loPI   C4B13648  10.595   4.736   6.711  0.4382 -0.1951  0.4286
  854loPI    C113649  13.799   7.347   4.331 -0.3153  0.1459  0.0244
  854loPI    C213650  13.905   7.587   4.029  0.2530 -0.0754  0.0341
  854loPI    C313651  13.629   7.303   3.972 -0.1566  0.3306 -0.0755
  854loPI   PO413652  13.696   7.483   4.483  0.2100  0.3076  0.1432
  854loPI   GL113653  13.787   7.819   4.751  0.0244  0.1291 -0.0792
  854loPI   GL213654  13.477   7.770   4.876 -0.1073  0.3250 -0.0869
  854loPI   C1A13655  13.943   7.822   5.142 -0.2593  0.1952 -0.0196
  854loPI   C2A13656  14.317   7.816   5.292  0.2711  0.3879  0.0707
  854loPI   C3A13657  14.477   7.937   5.678  0.1710 -0.3191  0.3939
  854loPI   C4A13658  14.609   8.015   6.121  0.4211 -0.1262  0.0122
  854loPI   C5A13659  14.447   8.350   6.352 -0.1135 -0.0025  0.0285
  854loPI   C6A13660  14.066   8.525   6.425  0.2248 -0.2394  0.0541
  854loPI   C1B13661  13.539   7.598   5.287  0.1266  0.0390  0.1058
  854loPI   C2B13662  13.621   7.623   5.798  0.2660 -0.2852 -0.4215
  854loPI   C3B13663  13.671   7.675   6.304  0.1240 -0.1894  0.2130
  854loPI   C4B13664  13.899   7.613   6.732 -0.1750 -0.1324 -0.1153
  855loPI    C113665  17.862   2.875   3.941 -0.0921 -0.2090  0.1216
  855loPI    C213666  18.093   3.187   3.844 -0.0426 -0.2018  0.2617
  855loPI    C313667  18.024   2.899   3.576 -0.1688 -0.0219  0.0990
  855loPI   PO413668  17.955   2.753   4.225 -0.0978  0.1488 -0.0984
  855loPI   GL113669  17.913   2.752   4.658 -0.1165  0.0286 -0.1556
  855loPI   GL213670  18.122   2.855   4.887 -0.1728  0.2741  0.2940
  855loPI   C1A13671  17.917   2.411   4.858 -0.0021  0.0287  0.0591
  855loPI   C2A13672  18.109   2.161   5.158 -0.1064 -0.0713 -0.1847
  855loPI   C3A13673  18.185   2.173   5.593  0.0127  0.2085  0.0785
  855loPI   C4A13674  18.292   2.209   6.094 -0.3844  0.0880 -0.2539
  855loPI   C5A13675  18.491   2.113   6.500 -0.3612  0.3304 -0.2595
  855loPI   C6A13676  18.565   2.064   6.899  0.1581  0.0264  0.1450
  855loPI   C1B13677  18.064   2.663   5.244 -0.0163 -0.3955 -0.1733
  855loPI   C2B13678  17.998   2.762   5.632  0.0296 -0.1551 -0.4906
  855loPI   C3B13679  18.080   2.852   6.072 -0.1626  0.0781  0.0773
  855loPI   C4B13680  18.179   2.547   6.399  0.2083 -0.0419 -0.1637
  856loPI    C113681   7.717  16.846   4.414  0.0872  0.2657 -0.0953
  856loPI    C213682   7.770  16.477   4.270  0.0261  0.1069  0.2774
  856loPI    C313683   8.084  16.722   4.313  0.0872  0.0499  0.1590
  856loPI   PO413684   7.648  16.849   4.698  0.2022  0.0922  0.2144
  856loPI   GL113685   7.641  16.756   5.041  0.1018  0.3110  0.0439
  856loPI   GL213686   7.960  16.913   5.115  0.3606 -0.2763 -0.1055
  856loPI   C1A13687   7.655  16.806   5.514 -0.3539 -0.1335 -0.0230
  856loPI   C2A13688   7.454  16.886   5.831  0.0378 -0.0412  0.1209
  856loPI   C3A13689   7.525  16.995   6.243 -0.2184 -0.2788 -0.2044
  856loPI   C4A13690   7.474  16.813   6.614 -0.2112 -0.2275 -0.0578
  856loPI   C5A13691   7.277  16.861   7.000 -0.0934  0.1450 -0.2667
  856loPI   C6A13692   6.912  16.750   7.140 -0.0948 -0.0530 -0.2728
  856loPI   C1B13693   8.249  17.029   5.394 -0.0950  0.1800 -0.1686
  856loPI   C2B13694   8.546  16.835   5.622  0.0464 -0.0641  0.1679
  856loPI   C3B13695   8.529  16.740   6.125 -0.1459  0.1608  0.1550
  856loPI   C4B13696   8.348  16.821   6.496 -0.3312 -0.1068  0.0155
  857loPI    C113697  19.732   2.877   4.382  0.3236  0.1460 -0.0247
  857loPI    C213698  19.835   3.171   4.131  0.1071  0.1070 -0.1623
  857loPI    C313699  19.697   2.825   3.987  0.1187  0.0306  0.0075
  857loPI   PO413700  19.546   2.919   4.480  0.1072 -0.0153 -0.1380
  857loPI   GL113701  19.378   2.962   4.920  0.1235  0.0406 -0.0404
  857loPI   GL213702  19.299   3.072   5.308 -0.1912  0.0899 -0.0111
  857loPI   C1A13703  19.716   3.036   5.095 -0.2380 -0.0922  0.0528
  857loPI   C2A13704  20.046   3.042   5.433 -0.2397  0.0042 -0.2640
  857loPI   C3A13705  19.960   3.067   5.822  0.0768  0.0961  0.1261
  857loPI   C4A13706  19.541   3.068   6.050 -0.2949  0.3655 -0.1703
  857loPI   C5A13707  19.240   3.040   5.777  0.2252 -0.1793 -0.0093
  857loPI   C6A13708  18.966   2.765   5.402 -0.3690 -0.1285 -0.0591
  857loPI   C1B13709  19.635   3.333   5.572  0.0719 -0.2108  0.1160
  857loPI   C2B13710  19.691   3.736   5.918  0.0516 -0.0131 -0.0021
  857loPI   C3B13711  19.777   3.914   6.320  0.2468 -0.2625  0.0161
  857loPI   C4B13712  20.080   3.967   6.684  0.2491 -0.0034  0.2305
  858loPI    C113713   7.327  15.802   4.497 -0.2471 -0.2964  0.0831
  858loPI    C213714   7.624  15.695   4.252 -0.0831 -0.2348  0.2530
  858loPI    C313715   7.455  16.056   4.216  0.0289 -0.1758  0.3126
  858loPI   PO413716   7.455  15.841   4.700  0.3306  0.0726 -0.1324
  858loPI   GL113717   7.273  16.031   5.164  0.0521 -0.0032 -0.0237
  858loPI   GL213718   7.387  16.389   5.302 -0.4895 -0.0761 -0.0658
  858loPI   C1A13719   7.215  16.056   5.649  0.0510  0.2825 -0.2126
  858loPI   C2A13720   7.314  16.258   6.001  0.0225  0.2197 -0.1247
  858loPI   C3A13721   7.679  16.499   6.161  0.2235 -0.0286  0.0861
  858loPI   C4A13722   7.832  16.469   6.539 -0.1331  0.1288 -0.1863
  858loPI   C5A13723   8.069  16.430   6.842 -0.1038 -0.1786  0.2927
  858loPI   C6A13724   8.252  16.210   7.363 -0.2829 -0.1940  0.0271
  858loPI   C1B13725   7.646  16.322   5.618 -0.1114  0.2997 -0.0813
  858loPI   C2B13726   8.001  16.228   5.909 -0.2225  0.0961 -0.1248
  858loPI   C3B13727   8.254  16.298   6.296 -0.1845  0.0070 -0.0154
  858loPI   C4B13728   8.538  16.314   6.651 -0.2727 -0.0326 -0.1572
  859loPI    C113729   3.816  10.869   4.329  0.2077 -0.0932  0.0905
  859loPI    C213730   3.949  11.078   4.015 -0.0565  0.0059  0.0423
  859loPI    C313731   3.764  10.728   3.959  0.1323 -0.1058  0.1059
  859loPI   PO413732   4.090  10.968   4.518 -0.0471  0.0662 -0.0514
  859loPI   GL113733   4.243  10.739   4.959 -0.0067 -0.0526  0.0023
  859loPI   GL213734   4.474  10.782   5.144  0.1815 -0.0204  0.1387
  859loPI   C1A13735   4.048  10.588   5.351  0.1501 -0.1922 -0.1556
  859loPI   C2A13736   3.733  10.532   5.415 -0.1365  0.0914 -0.0655
  859loPI   C3A13737   3.316  10.427   5.541 -0.2093  0.0697  0.0396
  859loPI   C4A13738   3.147  10.320   5.915 -0.1667 -0.1171  0.0656
  859loPI   C5A13739   2.828  10.400   6.279  0.0204  0.0561  0.0479
  859loPI   C6A13740   2.945  10.477   6.727  0.3771  0.1517 -0.0998
  859loPI   C1B13741   4.416  10.772   5.572 -0.1526  0.1498 -0.1436
  859loPI   C2B13742   4.353  11.056   5.864 -0.3980  0.4388  0.1899
  859loPI   C3B13743   4.269  11.311   6.157  0.0173 -0.0113  0.0486
  859loPI   C4B13744   4.146  11.801   6.293  0.4286  0.0469  0.1937
  860loPI    C113745   9.879   6.018   4.240 -0.0273  0.0223  0.0727
  860loPI    C213746  10.200   6.221   4.113 -0.2179  0.1684 -0.1846
  860loPI    C313747  10.116   5.861   3.959  0.0371 -0.0469  0.1650
  860loPI   PO413748   9.890   6.224   4.499  0.4030 -0.0597 -0.4472
  860loPI   GL113749   9.867   6.236   4.958 -0.2703  0.0569  0.2207
  860loPI   GL213750   9.597   5.954   4.814 -0.1319  0.4779 -0.1092
  860loPI   C1A13751   9.944   6.200   5.337 -0.1654 -0.2238  0.0649
  860loPI   C2A13752   9.743   6.502   5.622  0.1812 -0.1425 -0.0131
  860loPI   C3A13753   9.761   6.796   5.844 -0.0223 -0.0918 -0.3472
  860loPI   C4A13754   9.778   7.035   6.147 -0.1192  0.2808  0.2060
  860loPI   C5A13755   9.490   7.156   6.498 -0.1440  0.0556  0.1849
  860loPI   C6A13756   9.432   7.084   6.837  0.0984 -0.0032  0.1606
  860loPI   C1B13757   9.807   5.718   5.257 -0.1134 -0.1677 -0.0590
  860loPI   C2B13758   9.935   5.767   5.753  0.0408  0.1657  0.3651
  860loPI   C3B13759   9.893   5.717   6.258 -0.0751  0.0450 -0.2095
  860loPI   C4B13760   9.755   5.640   6.736 -0.0068  0.2000  0.1448
  861loPI    C113761  10.811  16.110   4.731  0.1285  0.2817 -0.0588
  861loPI    C213762  10.690  15.771   4.556  0.1144  0.1411  0.2191
  861loPI    C313763  10.934  16.020   4.361  0.1105 -0.0198  0.0058
  861loPI   PO413764  10.683  16.075   4.979 -0.3363  0.1571 -0.1193
  861loPI   GL113765  10.500  16.271   5.291  0.0316  0.2371 -0.0418
  861loPI   GL213766  10.287  16.083   5.478 -0.0058  0.4425 -0.1121
  861loPI   C1A13767  10.603  16.573   5.564 -0.3419 -0.3481  0.0452
  861loPI   C2A13768  10.927  16.796   5.819  0.1319 -0.1578  0.2268
  861loPI   C3A13769  11.053  17.051   6.180 -0.0477  0.3676  0.0458
  861loPI   C4A13770  11.434  16.987   6.270  0.0199 -0.0774 -0.0042
  861loPI   C5A13771  11.634  16.733   6.621 -0.1057 -0.2334 -0.0585
  861loPI   C6A13772  11.521  16.402   6.893 -0.1216 -0.2232 -0.0018
  861loPI   C1B13773  10.276  16.269   5.879 -0.0507 -0.0573  0.2174
  861loPI   C2B13774  10.205  16.277   6.342 -0.1539 -0.1874 -0.2061
  861loPI   C3B13775  10.168  16.114   6.865 -0.2951 -0.0734 -0.0994
  861loPI   C4B13776  10.558  16.188   7.175 -0.2495  0.3402  0.1535
  862loPI    C113777  10.306  18.495   4.160  0.2404 -0.0464  0.0661
  862loPI    C213778  10.260  18.801   3.907 -0.1364 -0.0680  0.1029
  862loPI    C313779  10.268  18.427   3.767  0.0489 -0.0583  0.0855
  862loPI   PO413780  10.181  18.675   4.422 -0.1063  0.1498  0.1566
  862loPI   GL113781  10.277  18.693   4.897  0.0479 -0.2805  0.1539
  862loPI   GL213782  10.099  18.312   4.895  0.2587  0.3872 -0.1306
  862loPI   C1A13783  10.330  18.664   5.354  0.2093 -0.1753 -0.0516
  862loPI   C2A13784  10.304  18.855   5.790 -0.1204  0.1453 -0.2144
  862loPI   C3A13785  10.358  18.963   6.267 -0.1666 -0.2707  0.1898
  862loPI   C4A13786  10.380  19.251   6.578  0.1182 -0.0372 -0.2892
  862loPI   C5A13787  10.707  19.470   6.831  0.1805 -0.1550  0.0497
  862loPI   C6A13788  10.860  19.851   6.878  0.0479  0.1395 -0.1435
  862loPI   C1B13789   9.883  18.339   5.281  0.0342  0.1285  0.2869
  862loPI   C2B13790   9.944  18.516   5.722 -0.0752 -0.0006 -0.2395
  862loPI   C3B13791   9.997  18.424   6.203 -0.0306  0.3677 -0.3559
  862loPI   C4B13792  10.240  18.471   6.640 -0.2111  0.0705 -0.0994
  863loPI    C113793  10.397   4.915   4.487  0.1183  0.0822 -0.0577
  863loPI    C213794  10.055   5.116   4.542  0.1120 -0.0372  0.3701
  863loPI    C313795  10.290   5.203   4.230 -0.2280  0.1548  0.1615
  863loPI   PO413796  10.488   4.954   4.817  0.2134 -0.0828  0.1293
  863loPI   GL113797  10.651   5.060   5.168 -0.2448 -0.1903 -0.1770
  863loPI   GL213798  10.332   5.081   5.332  0.0315 -0.2817 -0.3042
  863loPI   C1A13799  10.785   5.029   5.649 -0.1716 -0.2246  0.0109
  863loPI   C2A13800  10.770   5.293   6.042 -0.1163 -0.1586  0.0099
  863loPI   C3A13801  10.528   5.175   6.439  0.1311  0.2067  0.0211
  863loPI   C4A13802  10.217   5.165   6.724 -0.3068  0.1052  0.2309
  863loPI   C5A13803  10.122   5.437   7.044 -0.0567  0.0371 -0.0792
  863loPI   C6A13804  10.270   5.699   7.368 -0.0941 -0.2244 -0.1937
  863loPI   C1B13805   9.982   5.307   5.536 -0.0737 -0.0819  0.1970
  863loPI   C2B13806   9.702   5.378   5.976 -0.0371  0.0262 -0.2080
  863loPI   C3B13807   9.574   5.269   6.383 -0.0958 -0.3089  0.0445
  863loPI   C4B13808   9.666   5.055   6.786 -0.2893 -0.0765  0.1132
  864loPI    C113809  16.293   2.013   3.998 -0.0726  0.1114 -0.0445
  864loPI    C213810  16.184   1.633   3.934  0.0160  0.0570  0.1198
  864loPI    C313811  16.101   1.914   3.661  0.0422 -0.0984 -0.0505
  864loPI   PO413812  16.389   2.035   4.290  0.1950  0.1721 -0.0770
  864loPI   GL113813  16.613   2.288   4.589 -0.0175 -0.0284 -0.1556
  864loPI   GL213814  16.868   2.108   4.398  0.3210 -0.0015  0.1349
  864loPI   C1A13815  16.659   2.309   4.945 -0.2627 -0.2808  0.2684
  864loPI   C2A13816  16.731   2.361   5.366  0.0750  0.1576 -0.1819
  864loPI   C3A13817  16.873   2.300   5.776  0.0622  0.1053 -0.1940
  864loPI   C4A13818  17.082   2.048   6.158 -0.2342 -0.1020  0.1829
  864loPI   C5A13819  17.411   2.111   6.405 -0.1274 -0.2622 -0.3310
  864loPI   C6A13820  17.535   2.071   6.891  0.2389 -0.1849  0.0370
  864loPI   C1B13821  17.157   2.209   4.697 -0.1472 -0.0275  0.1727
  864loPI   C2B13822  17.105   2.352   5.046 -0.0143  0.2098  0.3399
  864loPI   C3B13823  17.163   2.089   5.360 -0.0913 -0.2044 -0.1246
  864loPI   C4B13824  17.395   2.055   5.738  0.2328 -0.0574 -0.1095
  865loPI    C113825  14.112   3.329   3.848 -0.0057 -0.1337  0.3771
  865loPI    C213826  13.848   3.625   3.797 -0.0776 -0.2393  0.1176
  865loPI    C313827  14.209   3.648   3.627 -0.0120 -0.2133  0.2585
  865loPI   PO413828  14.090   3.295   4.144  0.1296  0.1221  0.0829
  865loPI   GL113829  13.962   3.281   4.658  0.4553  0.0871  0.0468
  865loPI   GL213830  14.282   3.193   4.867 -0.2117 -0.0511  0.1065
  865loPI   C1A13831  13.857   3.388   5.104 -0.1888  0.1598 -0.0885
  865loPI   C2A13832  13.546   3.268   5.533 -0.3808  0.0509 -0.1799
  865loPI   C3A13833  13.707   3.029   5.847  0.2134  0.3641 -0.0120
  865loPI   C4A13834  13.758   3.218   6.238 -0.2985  0.0463  0.3012
  865loPI   C5A13835  14.055   3.189   6.531 -0.1374  0.4066  0.0693
  865loPI   C6A13836  14.278   2.844   6.750  0.2245 -0.1437 -0.1662
  865loPI   C1B13837  14.332   3.279   5.253  0.0528 -0.0193 -0.2435
  865loPI   C2B13838  14.475   3.306   5.728 -0.1324 -0.0531  0.1210
  865loPI   C3B13839  14.588   3.473   6.120 -0.2269  0.2386  0.0902
  865loPI   C4B13840  14.459   3.610   6.419  0.5079 -0.1071  0.0600
  866loPI    C113841   1.152   3.866   4.599  0.1809 -0.2512 -0.0055
  866loPI    C213842   1.072   3.714   4.238 -0.0722 -0.1365 -0.0000
  866loPI    C313843   1.325   4.022   4.274  0.0920 -0.2632 -0.0589
  866loPI   PO413844   0.874   3.890   4.707 -0.1680  0.1668  0.1692
  866loPI   GL113845   0.817   3.832   5.117  0.3086  0.3267  0.1580
  866loPI   GL213846   0.586   4.023   5.238  0.1277 -0.2417  0.3251
  866loPI   C1A13847   0.803   3.854   5.687 -0.2190 -0.0041 -0.0867
  866loPI   C2A13848   0.952   3.785   6.024 -0.1598 -0.1522  0.0129
  866loPI   C3A13849   0.944   3.703   6.478 -0.1267 -0.2683 -0.4131
  866loPI   C4A13850   1.039   3.506   6.904  0.1569 -0.1591  0.3889
  866loPI   C5A13851   1.390   3.728   7.263  0.3169  0.0540 -0.2282
  866loPI   C6A13852   1.676   3.604   7.529 -0.0000 -0.5510 -0.0785
  866loPI   C1B13853   0.593   4.463   5.546  0.2911  0.0950 -0.0883
  866loPI   C2B13854   0.739   4.722   5.925  0.1382 -0.1466 -0.1434
  866loPI   C3B13855   0.754   4.829   6.295 -0.4686  0.2505 -0.1066
  866loPI   C4B13856   0.709   4.848   6.667  0.0354  0.1308  0.2214
  867loPI    C113857   1.796   3.417   4.902  0.3685  0.0686  0.0557
  867loPI    C213858   1.634   3.733   4.719  0.1406 -0.1320 -0.0967
  867loPI    C313859   2.016   3.635   4.649  0.2483  0.1741  0.0410
  867loPI   PO413860   1.582   3.129   4.852 -0.2867  0.3092 -0.0074
  867loPI   GL113861   1.498   2.864   5.129  0.2386 -0.2589  0.0395
  867loPI   GL213862   1.310   3.015   5.228  0.0262 -0.2714 -0.1020
  867loPI   C1A13863   1.743   2.598   5.406 -0.2078 -0.3021  0.0087
  867loPI   C2A13864   1.904   2.374   5.686  0.3681 -0.0540 -0.0506
  867loPI   C3A13865   1.927   2.229   6.070 -0.2043  0.0442 -0.1010
  867loPI   C4A13866   1.632   2.207   6.466  0.3514  0.1682 -0.1543
  867loPI   C5A13867   1.232   2.201   6.736 -0.4537 -0.2608  0.0119
  867loPI   C6A13868   0.984   2.274   7.155  0.1667 -0.4824  0.1838
  867loPI   C1B13869   1.016   2.921   5.515 -0.1377  0.4010 -0.2558
  867loPI   C2B13870   0.866   2.503   5.732 -0.0444 -0.3647 -0.0364
  867loPI   C3B13871   0.744   2.314   6.177  0.0773  0.1364  0.0307
  867loPI   C4B13872   0.757   2.411   6.627 -0.0177  0.3276  0.0301
  868loPI    C113873  11.861  18.908   4.117 -0.0274  0.1456  0.0064
  868loPI    C213874  12.042  18.567   4.010 -0.0628  0.0447  0.2612
  868loPI    C313875  11.702  18.678   3.830 -0.0623 -0.0652  0.1915
  868loPI   PO413876  11.740  18.936   4.366  0.3056  0.0023  0.0820
  868loPI   GL113877  11.625  18.677   4.867 -0.3641 -0.2164  0.1021
  868loPI   GL213878  11.699  18.459   5.116 -0.1870 -0.1622 -0.1809
  868loPI   C1A13879  11.717  19.039   5.134  0.0751  0.2209 -0.0714
  868loPI   C2A13880  11.729  19.312   5.452 -0.2271 -0.1313  0.2106
  868loPI   C3A13881  11.491  19.590   5.671  0.1079  0.1430  0.2958
  868loPI   C4A13882  11.573  19.773   5.991  0.0875  0.1294 -0.0433
  868loPI   C5A13883  11.668  19.643   6.342 -0.0885  0.0064 -0.1338
  868loPI   C6A13884  11.854  19.186   6.595  0.1892  0.0831 -0.0946
  868loPI   C1B13885  11.678  18.164   5.502 -0.0437 -0.2545 -0.1547
  868loPI   C2B13886  11.791  17.996   5.907  0.0853  0.4219  0.1540
  868loPI   C3B13887  11.928  18.197   6.279  0.0255  0.0940  0.0884
  868loPI   C4B13888  11.833  18.581   6.441  0.1617 -0.1940 -0.2565
  869loPI    C113889  12.787   1.943   4.471  0.0367  0.2129  0.0056
  869loPI    C213890  12.597   1.810   4.145  0.0659 -0.0983  0.1128
  869loPI    C313891  12.540   2.185   4.271 -0.1145 -0.0444 -0.1239
  869loPI   PO413892  12.694   1.754   4.640 -0.3400 -0.2999  0.2445
  869loPI   GL113893  12.689   1.630   4.966  0.0556 -0.0545 -0.0533
  869loPI   GL213894  12.446   1.346   5.090  0.2902 -0.0274 -0.1595
  869loPI   C1A13895  12.872   1.359   5.310 -0.1230  0.1257 -0.1731
  869loPI   C2A13896  13.192   1.371   5.556  0.0850 -0.1910  0.0039
  869loPI   C3A13897  13.499   1.610   5.544  0.1499  0.0790  0.0564
  869loPI   C4A13898  13.735   2.036   5.641  0.0204 -0.0727  0.0848
  869loPI   C5A13899  13.840   2.061   6.122  0.1940  0.1980  0.0415
  869loPI   C6A13900  13.522   2.216   6.476 -0.0320 -0.0919  0.4774
  869loPI   C1B13901  12.445   1.471   5.547 -0.2878 -0.0925  0.2287
  869loPI   C2B13902  12.485   1.519   5.934 -0.3093 -0.0707  0.2127
  869loPI   C3B13903  12.615   1.514   6.371 -0.1374  0.0240 -0.0089
  869loPI   C4B13904  12.606   1.541   6.788  0.0924  0.1911  0.0306
  870loPI    C113905   7.656  12.823   4.681 -0.0400  0.2136 -0.0623
  870loPI    C213906   7.712  12.464   4.514 -0.2238  0.2038 -0.1052
  870loPI    C313907   8.016  12.722   4.539 -0.0905  0.0456 -0.0736
  870loPI   PO413908   7.613  12.798   4.909  0.0124  0.0114  0.1566
  870loPI   GL113909   7.561  12.942   5.320  0.1552  0.1172 -0.0058
  870loPI   GL213910   7.500  13.231   5.507 -0.2101 -0.2154  0.0973
  870loPI   C1A13911   7.278  12.782   5.772  0.0508  0.1633 -0.3430
  870loPI   C2A13912   7.289  12.638   6.170  0.2309 -0.3093  0.1742
  870loPI   C3A13913   7.075  12.400   6.486 -0.2471 -0.1350 -0.1151
  870loPI   C4A13914   6.823  12.481   6.879 -0.4637  0.0651 -0.1897
  870loPI   C5A13915   6.826  12.391   7.396 -0.3810 -0.0404  0.3485
  870loPI   C6A13916   6.660  12.271   7.753  0.2574 -0.1664  0.0376
  870loPI   C1B13917   7.614  13.194   5.893 -0.0240  0.0464  0.3358
  870loPI   C2B13918   7.773  13.180   6.334 -0.1793  0.1217 -0.0550
  870loPI   C3B13919   7.832  13.217   6.775 -0.1886  0.2343  0.2820
  870loPI   C4B13920   7.962  12.903   7.138 -0.0190 -0.1116 -0.2438
  871loPI    C113921  10.071  16.725   4.552 -0.0733 -0.1853 -0.1427
  871loPI    C213922  10.420  16.708   4.357 -0.0093  0.3690 -0.0929
  871loPI    C313923  10.102  16.514   4.214  0.2207  0.1726 -0.3476
  871loPI   PO413924  10.240  16.998   4.716 -0.1580  0.0362  0.0480
  871loPI   GL113925  10.489  16.999   5.149 -0.1857  0.0353 -0.0730
  871loPI   GL213926  10.824  17.025   5.180 -0.3828  0.1838 -0.0058
  871loPI   C1A13927  10.314  16.998   5.445  0.0816 -0.3345 -0.1216
  871loPI   C2A13928  10.435  17.064   5.869 -0.1436  0.0603  0.0715
  871loPI   C3A13929  10.604  17.154   6.276 -0.0971  0.1309  0.2418
  871loPI   C4A13930  10.509  17.058   6.735 -0.1034 -0.0206  0.2214
  871loPI   C5A13931  10.805  17.152   7.054  0.1661  0.1591  0.6042
  871loPI   C6A13932  11.188  17.486   7.018 -0.1559 -0.1091 -0.0712
  871loPI   C1B13933  10.863  17.253   5.584 -0.2513 -0.1719  0.1357
  871loPI   C2B13934  10.927  17.503   5.861 -0.1909  0.1639 -0.0513
  871loPI   C3B13935  10.907  17.612   6.291  0.2437  0.2350  0.0474
  871loPI   C4B13936  10.923  17.318   6.615  0.3847 -0.1452  0.1913
  872loPI    C113937   5.686   5.065   4.574 -0.1690 -0.0845  0.1110
  872loPI    C213938   5.744   5.448   4.672 -0.0925 -0.0539 -0.0503
  872loPI    C313939   6.044   5.234   4.518 -0.1480 -0.1658 -0.0037
  872loPI   PO413940   5.424   5.073   4.754  0.1338 -0.0172 -0.1549
  872loPI   GL113941   5.406   5.089   5.207  0.0093 -0.5076 -0.1849
  872loPI   GL213942   5.594   5.342   5.193 -0.1634  0.0966 -0.1703
  872loPI   C1A13943   5.144   5.442   5.474  0.1442 -0.1191  0.1364
  872loPI   C2A13944   5.179   5.724   5.745  0.0021  0.0584 -0.0487
  872loPI   C3A13945   4.975   5.758   6.162  0.0325 -0.1984  0.3053
  872loPI   C4A13946   4.563   5.649   6.314 -0.0058 -0.0721 -0.1760
  872loPI   C5A13947   4.314   5.300   6.481  0.1259 -0.0161  0.0163
  872loPI   C6A13948   3.867   5.319   6.745 -0.1094 -0.4444  0.1442
  872loPI   C1B13949   5.696   5.360   5.693 -0.4253 -0.1401  0.0473
  872loPI   C2B13950   5.946   5.609   5.962  0.2922  0.3897 -0.1421
  872loPI   C3B13951   5.849   5.783   6.360  0.0720 -0.1968  0.0312
  872loPI   C4B13952   5.807   5.888   6.787 -0.1204 -0.1500 -0.3111
  873loPI    C113953   4.705  12.128   4.631 -0.0119 -0.1197 -0.0213
  873loPI    C213954   4.969  12.427   4.634 -0.1688  0.0203 -0.0253
  873loPI    C313955   4.676  12.423   4.362 -0.1052 -0.1929 -0.0924
  873loPI   PO413956   4.661  12.049   4.832  0.0979 -0.0495  0.2186
  873loPI   GL113957   4.528  12.221   5.279 -0.0256  0.0490  0.0071
  873loPI   GL213958   4.247  12.510   5.308  0.0634 -0.2585 -0.1240
  873loPI   C1A13959   4.546  12.248   5.756  0.0725  0.1962 -0.2691
  873loPI   C2A13960   4.429  12.198   6.218  0.2452 -0.1874  0.0173
  873loPI   C3A13961   4.361  12.153   6.699 -0.0349 -0.2718  0.1142
  873loPI   C4A13962   4.164  11.792   6.878  0.1998  0.0498 -0.0304
  873loPI   C5A13963   3.897  11.509   7.046 -0.0693 -0.2699  0.3975
  873loPI   C6A13964   3.796  11.484   7.451 -0.0704 -0.4500  0.0294
  873loPI   C1B13965   3.807  12.402   5.404 -0.0440 -0.1506  0.0315
  873loPI   C2B13966   3.533  12.209   5.831  0.1380 -0.2313 -0.2756
  873loPI   C3B13967   3.697  11.823   6.078  0.0656  0.0117  0.0420
  873loPI   C4B13968   3.723  11.582   6.553  0.5320  0.1112 -0.1075
  874loPI    C113969  19.764  19.666   4.407 -0.3632 -0.0948  0.1378
  874loPI    C213970  19.627  19.323   4.255 -0.0093 -0.1711 -0.0202
  874loPI    C313971  19.805  19.590   4.017 -0.1418  0.0548  0.1299
  874loPI   PO413972  19.742  19.618   4.653  0.1206 -0.0265 -0.0342
  874loPI   GL113973  19.805  19.405   5.045  0.2707 -0.0617  0.2071
  874loPI   GL213974  20.143  19.459   4.901  0.2247  0.0854 -0.0788
  874loPI   C1A13975  19.867  18.974   5.261  0.1224  0.2068 -0.1312
  874loPI   C2A13976  20.080  18.948   5.627  0.0515 -0.0307  0.1940
  874loPI   C3A13977  19.989  19.029   6.048 -0.0337  0.3419 -0.1405
  874loPI   C4A13978  19.699  19.078   6.431 -0.2976  0.2245 -0.1566
  874loPI   C5A13979  19.872  19.126   6.858 -0.0562  0.3692  0.4670
  874loPI   C6A13980  19.965  19.285   7.190  0.2657  0.0331 -0.0320
  874loPI   C1B13981  20.261  19.792   5.322 -0.1559  0.1223 -0.2504
  874loPI   C2B13982  20.406  19.720   5.725  0.0505 -0.4521  0.0698
  874loPI   C3B13983  20.214  19.475   5.990  0.0123  0.0443  0.1080
  874loPI   C4B13984  20.187  19.325   6.437 -0.0600  0.3049  0.3186
  875loPI    C113985  13.651   2.804   4.136 -0.0876 -0.0442 -0.0916
  875loPI    C213986  13.675   3.154   3.945  0.1119 -0.2385 -0.4330
  875loPI    C313987  13.446   2.861   3.797 -0.3419 -0.1392  0.0431
  875loPI   PO413988  13.696   2.912   4.419 -0.3007  0.0730  0.0096
  875loPI   GL113989  13.510   3.032   4.766 -0.1280 -0.0771  0.2424
  875loPI   GL213990  13.460   3.426   4.857  0.1138 -0.0886  0.0427
  875loPI   C1A13991  13.435   2.891   5.126 -0.1707  0.0603  0.0693
  875loPI   C2A13992  13.799   2.734   5.459  0.5938  0.1536  0.3159
  875loPI   C3A13993  14.052   2.464   5.749  0.0945 -0.1639 -0.1617
  875loPI   C4A13994  14.082   2.551   6.154 -0.2647  0.2576 -0.0786
  875loPI   C5A13995  13.804   2.740   6.530 -0.3791 -0.1421  0.1855
  875loPI   C6A13996  13.434   3.022   6.595 -0.0793  0.1427 -0.1472
  875loPI   C1B13997  13.302   3.515   5.208 -0.0156 -0.4342  0.3023
  875loPI   C2B13998  13.202   3.835   5.474 -0.1789  0.2079  0.0742
  875loPI   C3B13999  13.477   4.214   5.612  0.2034 -0.3721 -0.0019
  875loPI   C4B14000  13.577   4.648   5.679  0.2922  0.0599  0.0109
  876loPI    C114001   5.460  13.721   4.948 -0.0075 -0.0170 -0.1799
  876loPI    C214002   5.789  13.561   4.785  0.1314 -0.1842  0.2503
  876loPI    C314003   5.638  13.408   5.122 -0.2862  0.0057  0.1558
  876loPI   PO414004   5.624  13.987   5.016  0.0340  0.0959 -0.1835
  876loPI   GL114005   5.418  14.265   5.339 -0.0521 -0.0056 -0.0177
  876loPI   GL214006   5.239  14.483   5.351 -0.2314  0.2059 -0.0033
  876loPI   C1A14007   5.455  14.147   5.826  0.1108  0.0289 -0.0638
  876loPI   C2A14008   5.334  13.998   6.253  0.0664 -0.1476  0.1477
  876loPI   C3A14009   5.199  13.758   6.735 -0.3093 -0.0180 -0.1847
  876loPI   C4A14010   5.387  13.906   7.123  0.5356  0.0983  0.1885
  876loPI   C5A14011   5.809  14.008   7.285  0.1044  0.0134  0.1023
  876loPI   C6A14012   5.991  13.848   7.717  0.2365  0.0284 -0.1507
  876loPI   C1B14013   5.137  14.637   5.725 -0.5037  0.0567  0.0931
  876loPI   C2B14014   5.247  14.675   5.997 -0.1523  0.1343 -0.0543
  876loPI   C3B14015   5.176  14.645   6.371 -0.2493  0.0440  0.1314
  876loPI   C4B14016   5.243  14.767   6.772 -0.0220  0.1469 -0.1767
  877loPI    C114017   6.019   1.353   4.496  0.0325  0.0289 -0.0944
  877loPI    C214018   6.358   1.512   4.637 -0.1228  0.1804  0.1153
  877loPI    C314019   6.143   1.710   4.364 -0.0272  0.0691 -0.0426
  877loPI   PO414020   5.930   1.187   4.733 -0.0637 -0.2758 -0.0545
  877loPI   GL114021   5.756   1.304   5.207 -0.2592 -0.1572 -0.2580
  877loPI   GL214022   5.465   1.478   5.206 -0.1594  0.1942 -0.0761
  877loPI   C1A14023   5.878   1.142   5.560  0.1681 -0.1187  0.0639
  877loPI   C2A14024   5.695   0.754   5.642 -0.0152  0.1731  0.0156
  877loPI   C3A14025   5.736   0.404   5.881  0.4808 -0.0220  0.1069
  877loPI   C4A14026   5.901   0.414   6.344 -0.1464  0.4259  0.1332
  877loPI   C5A14027   6.168   0.453   6.782 -0.0080 -0.0693  0.0055
  877loPI   C6A14028   6.457   0.421   7.087  0.0874 -0.2113  0.1121
  877loPI   C1B14029   5.381   1.175   5.518 -0.1100 -0.2828 -0.0469
  877loPI   C2B14030   5.510   1.140   5.924 -0.0551 -0.0852 -0.1500
  877loPI   C3B14031   5.514   0.890   6.232 -0.4095  0.0939 -0.0253
  877loPI   C4B14032   5.433   0.602   6.513 -0.1245  0.1764  0.0669
  878loPI    C114033  16.154  14.532   3.925  0.2971  0.0734 -0.2689
  878loPI    C214034  16.195  14.888   3.746  0.0807  0.0164 -0.4347
  878loPI    C314035  15.995  14.593   3.564  0.0955 -0.1310 -0.2166
  878loPI   PO414036  16.047  14.577   4.125  0.1157  0.0307  0.0267
  878loPI   GL114037  15.879  14.300   4.439 -0.1902  0.0206 -0.0179
  878loPI   GL214038  15.814  14.647   4.559  0.1072  0.0397 -0.2727
  878loPI   C1A14039  16.296  14.225   4.676 -0.0137 -0.1586 -0.1410
  878loPI   C2A14040  16.569  14.045   4.960  0.3821  0.4890 -0.1820
  878loPI   C3A14041  16.685  14.059   5.390 -0.1464 -0.1804 -0.2491
  878loPI   C4A14042  16.861  13.910   5.828  0.0667  0.2656 -0.0004
  878loPI   C5A14043  16.993  13.956   6.225 -0.2496  0.0752 -0.3327
  878loPI   C6A14044  17.210  13.933   6.586  0.0690 -0.0393 -0.1947
  878loPI   C1B14045  16.084  14.653   4.853 -0.1559 -0.0701  0.0222
  878loPI   C2B14046  16.304  14.549   5.075 -0.0157 -0.3654  0.3214
  878loPI   C3B14047  16.576  14.542   5.398 -0.1388 -0.2828 -0.1288
  878loPI   C4B14048  16.533  14.366   5.760  0.2289 -0.3793  0.1903
  879loPI    C114049  13.667   8.331   4.229 -0.0979  0.0383  0.3690
  879loPI    C214050  13.600   7.940   4.278  0.0561 -0.0591 -0.1362
  879loPI    C314051  13.314   8.173   4.125  0.0796 -0.0374 -0.1470
  879loPI   PO414052  13.918   8.335   4.501 -0.2561  0.2522 -0.0324
  879loPI   GL114053  13.827   8.671   4.782 -0.0914 -0.0136 -0.0822
  879loPI   GL214054  13.982   8.263   5.000 -0.1270  0.0631  0.1462
  879loPI   C1A14055  13.899   8.812   5.241  0.0086 -0.0120 -0.1179
  879loPI   C2A14056  13.817   8.980   5.602  0.0062 -0.1576 -0.0837
  879loPI   C3A14057  13.519   8.827   5.837  0.0706 -0.1305  0.1803
  879loPI   C4A14058  13.594   8.792   6.268  0.0171  0.0726 -0.2879
  879loPI   C5A14059  13.281   8.760   6.492 -0.2580 -0.3097 -0.2857
  879loPI   C6A14060  12.862   8.782   6.448  0.0843 -0.1606  0.0621
  879loPI   C1B14061  13.547   8.202   5.108 -0.0054 -0.0970 -0.1751
  879loPI   C2B14062  13.293   7.992   5.481  0.0106  0.2742 -0.1955
  879loPI   C3B14063  13.245   7.905   5.862  0.1229 -0.0693 -0.1063
  879loPI   C4B14064  13.025   7.826   6.306 -0.0747 -0.1225  0.0642
  880loPI    C114065   9.537   4.373   4.503  0.0225  0.0550 -0.0863
  880loPI    C214066   9.279   4.221   4.237  0.0596 -0.2522  0.0489
  880loPI    C314067   9.641   4.343   4.118  0.0024 -0.2004 -0.0737
  880loPI   PO414068   9.450   4.142   4.676  0.0047 -0.1221 -0.1588
  880loPI   GL114069   9.635   3.971   5.145 -0.1337 -0.4961  0.1378
  880loPI   GL214070   9.670   4.289   5.147  0.0047  0.0209 -0.0712
  880loPI   C1A14071  10.118   4.021   5.292  0.1083  0.0898 -0.3359
  880loPI   C2A14072  10.319   4.143   5.698  0.0746 -0.0927 -0.0513
  880loPI   C3A14073  10.328   4.151   6.135  0.1031 -0.0852 -0.0423
  880loPI   C4A14074  10.282   4.299   6.549  0.1446  0.1471  0.0379
  880loPI   C5A14075  10.079   4.131   6.825  0.0004  0.0152  0.1570
  880loPI   C6A14076   9.769   4.304   7.079  0.1287 -0.1787  0.0810
  880loPI   C1B14077  10.003   4.470   5.491  0.2667  0.3223  0.1179
  880loPI   C2B14078  10.244   4.705   5.742 -0.2684 -0.1248  0.0226
  880loPI   C3B14079  10.303   5.080   5.871 -0.2196  0.3460 -0.2686
  880loPI   C4B14080  10.147   5.137   6.197  0.0049  0.1045 -0.0567
  881loPI    C114081   1.334  16.994   4.858  0.0783 -0.1433  0.1621
  881loPI    C214082   1.318  16.874   4.477  0.1003  0.2500  0.0331
  881loPI    C314083   1.007  17.066   4.639  0.0858  0.0725  0.2202
  881loPI   PO414084   1.550  16.792   5.016 -0.0868  0.1224  0.0189
  881loPI   GL114085   1.613  16.318   5.120 -0.0392  0.1468  0.2164
  881loPI   GL214086   1.217  16.405   5.190  0.0398  0.1092  0.2060
  881loPI   C1A14087   1.696  16.320   5.610 -0.1453  0.0716 -0.4611
  881loPI   C2A14088   1.607  16.488   6.034 -0.1577  0.3852  0.2157
  881loPI   C3A14089   1.438  16.837   6.232  0.2437  0.0221  0.2561
  881loPI   C4A14090   1.528  17.211   6.449 -0.0503  0.1157 -0.0030
  881loPI   C5A14091   1.383  17.655   6.566 -0.0325  0.0307 -0.0418
  881loPI   C6A14092   1.162  17.790   6.916 -0.0049  0.3180  0.1273
  881loPI   C1B14093   1.219  16.444   5.656 -0.0777  0.0983 -0.0364
  881loPI   C2B14094   1.153  16.314   6.046  0.0668 -0.0279 -0.1582
  881loPI   C3B14095   0.867  16.212   6.433  0.0291  0.0728  0.0226
  881loPI   C4B14096   0.828  15.859   6.736 -0.0778  0.0725 -0.3562
  882loPI    C114097   3.179  17.886   4.738 -0.0598 -0.0862 -0.1914
  882loPI    C214098   3.529  17.793   4.568  0.0100 -0.0989 -0.0428
  882loPI    C314099   3.244  17.973   4.353  0.1280 -0.0385 -0.1502
  882loPI   PO414100   3.159  17.928   4.983 -0.1244  0.0618 -0.0478
  882loPI   GL114101   3.201  18.009   5.513 -0.4065 -0.3046  0.1285
  882loPI   GL214102   3.491  17.863   5.533  0.1497  0.1698 -0.0481
  882loPI   C1A14103   3.148  18.016   5.982 -0.0252 -0.0434  0.0289
  882loPI   C2A14104   3.169  17.860   6.399  0.2384  0.0366  0.1551
  882loPI   C3A14105   3.259  18.012   6.755 -0.0509  0.0186  0.0416
  882loPI   C4A14106   3.092  18.363   7.061 -0.1521 -0.0232  0.0421
  882loPI   C5A14107   2.708  18.514   7.218  0.1670  0.1309 -0.4703
  882loPI   C6A14108   2.466  18.169   7.305 -0.1560  0.0655  0.0496
  882loPI   C1B14109   3.686  18.106   5.857  0.4215  0.0086  0.1698
  882loPI   C2B14110   3.577  18.184   6.337 -0.1821  0.1969  0.2228
  882loPI   C3B14111   3.487  18.477   6.729  0.0449  0.3912 -0.1074
  882loPI   C4B14112   3.376  18.850   6.947 -0.4090 -0.0893 -0.1148
  883loPI    C114113  18.851  10.589   3.818 -0.0619  0.0882 -0.2377
  883loPI    C214114  18.587  10.642   3.522 -0.2686  0.1132 -0.0516
  883loPI    C314115  18.593  10.298   3.726 -0.0571  0.0562 -0.1511
  883loPI   PO414116  18.782  10.766   4.008  0.0310 -0.2466  0.0891
  883loPI   GL114117  18.777  10.863   4.409 -0.1097 -0.2140 -0.1588
  883loPI   GL214118  18.551  10.641   4.557  0.1355 -0.1483 -0.1750
  883loPI   C1A14119  18.819  11.032   4.878  0.2246  0.0880 -0.2730
  883loPI   C2A14120  18.628  11.063   5.275 -0.1482  0.3922 -0.0008
  883loPI   C3A14121  18.597  11.132   5.697 -0.4533  0.4080 -0.0597
  883loPI   C4A14122  18.474  11.028   6.100  0.0740  0.0279  0.0308
  883loPI   C5A14123  18.480  10.514   6.258 -0.0821  0.2586 -0.0109
  883loPI   C6A14124  18.674  10.166   6.116 -0.0191 -0.0477 -0.2628
  883loPI   C1B14125  18.577  10.602   4.959 -0.4453  0.3154  0.0090
  883loPI   C2B14126  18.530  10.532   5.388  0.2819  0.3135 -0.1835
  883loPI   C3B14127  18.722  10.559   5.827  0.3814 -0.1008  0.0567
  883loPI   C4B14128  18.994  10.710   6.186 -0.0882  0.1900 -0.2830
  884loPI    C114129   2.297  16.454   4.486 -0.2792  0.1062 -0.1446
  884loPI    C214130   2.397  16.570   4.117 -0.1132  0.2180 -0.0657
  884loPI    C314131   2.354  16.181   4.199  0.0896  0.1775 -0.1443
  884loPI   PO414132   2.113  16.624   4.573 -0.1662 -0.1917 -0.0090
  884loPI   GL114133   2.048  16.642   5.058 -0.1730 -0.0596  0.0225
  884loPI   GL214134   2.022  16.894   5.209 -0.0289  0.4639 -0.0315
  884loPI   C1A14135   2.154  16.398   5.427  0.1094  0.0568 -0.1652
  884loPI   C2A14136   2.132  16.447   5.880 -0.1540  0.4134 -0.0027
  884loPI   C3A14137   2.280  16.318   6.247 -0.0547 -0.1191 -0.0565
  884loPI   C4A14138   2.338  16.293   6.718 -0.1328  0.3726 -0.3203
  884loPI   C5A14139   2.469  16.364   7.116 -0.2027 -0.0201 -0.0468
  884loPI   C6A14140   2.841  16.441   7.311  0.1782 -0.0339 -0.3488
  884loPI   C1B14141   1.926  16.849   5.653  0.2645  0.1288 -0.0574
  884loPI   C2B14142   1.944  16.868   6.134  0.1157 -0.0173 -0.2999
  884loPI   C3B14143   1.967  17.060   6.572 -0.3942  0.0128  0.1650
  884loPI   C4B14144   1.829  17.138   7.041 -0.1101 -0.1557  0.1644
  885loPI    C114145  18.224   5.338   4.008 -0.0633 -0.1007  0.3379
  885loPI    C214146  18.593   5.351   3.855 -0.1478 -0.3979  0.0976
  885loPI    C314147  18.310   5.598   3.716 -0.0226 -0.1098  0.3418
  885loPI   PO414148  18.153   5.197   4.227 -0.1243  0.0149  0.0302
  885loPI   GL114149  18.229   5.208   4.695  0.0043 -0.0178  0.1875
  885loPI   GL214150  17.952   5.431   4.770 -0.2496 -0.2565  0.0212
  885loPI   C1A14151  18.117   5.002   5.132 -0.0884  0.2510  0.1880
  885loPI   C2A14152  18.108   4.980   5.596  0.2238 -0.3212  0.0746
  885loPI   C3A14153  18.217   4.945   5.964 -0.2307  0.0640  0.2748
  885loPI   C4A14154  18.478   4.730   6.208  0.0540 -0.2198 -0.3348
  885loPI   C5A14155  18.876   4.407   6.126 -0.3752  0.1643 -0.0749
  885loPI   C6A14156  18.827   3.989   5.988  0.2240  0.1568 -0.1103
  885loPI   C1B14157  17.729   5.739   5.050  0.2093  0.2208 -0.1920
  885loPI   C2B14158  17.967   6.058   5.405  0.1041 -0.2937  0.2466
  885loPI   C3B14159  18.039   6.418   5.657  0.0980  0.0378  0.0112
  885loPI   C4B14160  18.052   6.401   6.081  0.0661 -0.2495  0.0010
  886loPI    C114161  11.399   7.186   4.605  0.1471 -0.2916  0.0899
  886loPI    C214162  11.727   7.414   4.580 -0.0332  0.0043  0.3482
  886loPI    C314163  11.471   7.398   4.273  0.0564  0.0304  0.2716
  886loPI   PO414164  11.295   7.175   4.822  0.0915  0.3017  0.3487
  886loPI   GL114165  11.178   6.896   5.086  0.0226 -0.0541  0.0044
  886loPI   GL214166  11.256   6.567   5.153  0.1464  0.1867  0.1429
  886loPI   C1A14167  10.990   6.928   5.506 -0.2323  0.1428 -0.2241
  886loPI   C2A14168  10.675   6.857   5.796 -0.2152 -0.1529  0.0642
  886loPI   C3A14169  10.348   6.652   6.046  0.0528 -0.0511  0.1834
  886loPI   C4A14170  10.077   6.780   6.436  0.1984  0.1550 -0.1850
  886loPI   C5A14171   9.991   6.800   6.842  0.2115 -0.0190  0.1755
  886loPI   C6A14172  10.042   6.970   7.134  0.0370 -0.3420 -0.1521
  886loPI   C1B14173  11.332   6.574   5.514  0.1381  0.1095 -0.6165
  886loPI   C2B14174  11.226   6.694   5.948  0.0610 -0.0218 -0.0722
  886loPI   C3B14175  10.922   6.785   6.217  0.0480 -0.0530  0.2469
  886loPI   C4B14176  10.556   6.649   6.462 -0.0953 -0.1448  0.0203
  887loPI    C114177  11.477   1.219   4.529 -0.0593  0.2743 -0.0193
  887loPI    C214178  11.194   1.094   4.276 -0.1609  0.2211  0.1189
  887loPI    C314179  11.551   1.208   4.136 -0.1829  0.1007 -0.0390
  887loPI   PO414180  11.418   1.038   4.760 -0.2002  0.3289  0.0433
  887loPI   GL114181  11.625   1.002   5.209  0.0710  0.2396 -0.0201
  887loPI   GL214182  11.718   0.712   5.038 -0.0103 -0.1389 -0.0436
  887loPI   C1A14183  11.892   0.884   5.591 -0.3618 -0.3184 -0.1279
  887loPI   C2A14184  11.914   0.447   5.767  0.1151 -0.2125 -0.2486
  887loPI   C3A14185  11.823   0.270   6.230  0.0403  0.1314 -0.2166
  887loPI   C4A14186  11.582   0.138   6.571 -0.0446  0.2677  0.1983
  887loPI   C5A14187  11.386  -0.050   6.873 -0.3853 -0.0638  0.2935
  887loPI   C6A14188  11.199  -0.304   7.107 -0.1004 -0.2421 -0.0232
  887loPI   C1B14189  11.716   0.336   5.346  0.0882 -0.1161 -0.1690
  887loPI   C2B14190  11.486   0.213   5.675  0.2150 -0.3135  0.3929
  887loPI   C3B14191  11.371   0.300   6.078  0.1966 -0.0722  0.1305
  887loPI   C4B14192  11.132   0.325   6.539  0.0465  0.3516  0.2744
  888loPI    C114193   3.204   1.056   4.421  0.1545 -0.1446 -0.0418
  888loPI    C214194   2.940   1.332   4.303  0.3283  0.0697  0.0631
  888loPI    C314195   3.133   1.111   4.032 -0.3087 -0.4306 -0.0043
  888loPI   PO414196   3.071   0.809   4.663 -0.0469  0.0568  0.0545
  888loPI   GL114197   3.050   0.775   5.147 -0.0789 -0.0272 -0.0329
  888loPI   GL214198   2.726   0.807   5.265  0.1191  0.0081 -0.0344
  888loPI   C1A14199   3.201   0.654   5.548 -0.0860 -0.0098  0.0614
  888loPI   C2A14200   3.159   0.619   5.971 -0.6665 -0.1547 -0.0774
  888loPI   C3A14201   2.929   0.505   6.335 -0.0931 -0.0410 -0.0378
  888loPI   C4A14202   3.147   0.374   6.685 -0.2470 -0.0840 -0.1014
  888loPI   C5A14203   3.314   0.215   7.169 -0.0363  0.3124  0.0238
  888loPI   C6A14204   3.382  -0.045   7.552 -0.2193  0.0980 -0.1809
  888loPI   C1B14205   2.862   0.972   5.621 -0.0053 -0.3090  0.0001
  888loPI   C2B14206   2.826   0.939   6.030 -0.1690 -0.0408  0.3891
  888loPI   C3B14207   2.684   0.945   6.433 -0.3438 -0.0796  0.0318
  888loPI   C4B14208   2.963   0.810   6.748  0.1584  0.0537 -0.2070
  889loPI    C114209   0.672   2.876   4.264 -0.0465 -0.3210  0.2938
  889loPI    C214210   1.038   2.728   4.329  0.2089  0.1388 -0.0301
  889loPI    C314211   0.843   2.640   3.991  0.1761  0.1893 -0.0245
  889loPI   PO414212   0.653   2.875   4.595 -0.0459  0.0727 -0.0252
  889loPI   GL114213   0.701   2.819   5.045  0.2265 -0.0234  0.0385
  889loPI   GL214214   0.627   3.057   5.305  0.2118 -0.1263 -0.3045
  889loPI   C1A14215   0.469   2.547   5.433 -0.1213 -0.1149 -0.0413
  889loPI   C2A14216   0.354   2.682   5.791  0.0688  0.1484  0.3247
  889loPI   C3A14217   0.373   2.774   6.193 -0.0603  0.0275  0.1008
  889loPI   C4A14218   0.340   2.708   6.516 -0.1492 -0.3476  0.2794
  889loPI   C5A14219   0.247   2.585   6.939  0.0947  0.1725  0.0817
  889loPI   C6A14220   0.529   2.467   7.286 -0.0833 -0.0416 -0.0001
  889loPI   C1B14221   0.543   3.289   5.695 -0.2054  0.0089 -0.3889
  889loPI   C2B14222   0.638   3.315   6.146  0.0378 -0.0389  0.1258
  889loPI   C3B14223   0.731   3.131   6.530 -0.1549  0.2329  0.0811
  889loPI   C4B14224   0.716   2.825   6.868 -0.1504  0.2303  0.1094
  890loPI    C114225  11.015  10.051   4.232 -0.0423  0.0438  0.0286
  890loPI    C214226  11.013   9.839   3.893  0.1727 -0.1044  0.1183
  890loPI    C314227  11.050  10.237   3.879  0.0502 -0.0974 -0.0375
  890loPI   PO414228  10.903   9.921   4.394  0.2205  0.2292 -0.0286
  890loPI   GL114229  10.861   9.807   4.913  0.1026  0.0687 -0.1348
  890loPI   GL214230  11.036   9.627   4.807 -0.2501 -0.2019  0.2109
  890loPI   C1A14231  10.801   9.850   5.296  0.0084 -0.0546  0.1476
  890loPI   C2A14232  10.630  10.102   5.687 -0.0903 -0.1356  0.0836
  890loPI   C3A14233  10.752  10.221   6.125  0.1044  0.3066 -0.2374
  890loPI   C4A14234  10.728  10.604   6.334  0.5272  0.0152 -0.0770
  890loPI   C5A14235  10.831  10.668   6.715  0.2182 -0.0543 -0.1218
  890loPI   C6A14236  11.046  10.794   7.120 -0.1197 -0.1981 -0.2573
  890loPI   C1B14237  11.096   9.496   5.235 -0.0306 -0.0579 -0.1833
  890loPI   C2B14238  11.385   9.617   5.594 -0.4452  0.1532  0.0901
  890loPI   C3B14239  11.630   9.401   5.848 -0.1281  0.0404  0.4364
  890loPI   C4B14240  11.701   8.991   5.864 -0.1004  0.0848  0.1929
  891loPI    C114241  19.487  13.914   3.666  0.0663 -0.1104 -0.0813
  891loPI    C214242  19.824  14.122   3.611  0.0618 -0.0824 -0.0046
  891loPI    C314243  19.489  14.231   3.421 -0.0589  0.2699  0.3958
  891loPI   PO414244  19.386  13.879   3.954 -0.0137 -0.1892  0.0863
  891loPI   GL114245  19.412  14.104   4.351 -0.0103  0.1511 -0.0328
  891loPI   GL214246  19.696  14.192   4.477 -0.0701  0.3371 -0.1021
  891loPI   C1A14247  19.225  14.051   4.828  0.0132  0.1834  0.2534
  891loPI   C2A14248  19.287  14.037   5.289  0.1595 -0.1694 -0.2252
  891loPI   C3A14249  19.281  14.174   5.699 -0.1048  0.0325 -0.3196
  891loPI   C4A14250  19.337  14.278   6.182  0.0386 -0.3250  0.1728
  891loPI   C5A14251  19.563  14.566   6.442  0.2282 -0.0620  0.2952
  891loPI   C6A14252  19.501  14.942   6.554 -0.1345 -0.1549  0.2664
  891loPI   C1B14253  19.692  14.281   4.920  0.0839  0.0125 -0.2706
  891loPI   C2B14254  19.522  14.489   5.316  0.1962  0.0896 -0.0988
  891loPI   C3B14255  19.585  14.677   5.758 -0.1258  0.0794  0.3932
  891loPI   C4B14256  19.634  14.885   6.081  0.4283 -0.5000  0.3155
  892loPI    C114257   1.316  17.573   4.956 -0.1922  0.2152 -0.1173
  892loPI    C214258   1.069  17.544   4.643 -0.0296 -0.1607 -0.2156
  892loPI    C314259   1.447  17.416   4.613  0.0855  0.1097  0.0337
  892loPI   PO414260   1.156  17.361   5.136 -0.2370 -0.0574  0.2335
  892loPI   GL114261   1.172  16.915   5.321 -0.0238  0.1460 -0.1701
  892loPI   GL214262   1.522  17.035   5.458 -0.0326 -0.2247 -0.1238
  892loPI   C1A14263   1.119  16.967   5.809 -0.3733 -0.0131 -0.0251
  892loPI   C2A14264   1.077  17.221   6.195  0.1639 -0.1542 -0.0948
  892loPI   C3A14265   0.936  17.413   6.628 -0.2178  0.2071  0.1886
  892loPI   C4A14266   0.639  17.744   6.623  0.0803  0.0655 -0.2892
  892loPI   C5A14267   0.734  18.051   6.888  0.0940  0.0280  0.2996
  892loPI   C6A14268   0.875  18.274   7.278 -0.3139 -0.1614  0.0829
  892loPI   C1B14269   1.564  17.303   5.934 -0.0068  0.0117 -0.1253
  892loPI   C2B14270   1.779  17.606   6.203  0.0769 -0.3629 -0.0822
  892loPI   C3B14271   1.702  18.012   6.449 -0.4523  0.4099  0.4120
  892loPI   C4B14272   1.689  18.161   6.861 -0.0038  0.1185  0.3070
  893loPI    C114273   3.979   0.957   4.698  0.0130  0.2993  0.3857
  893loPI    C214274   3.671   1.155   4.537  0.0507  0.1822  0.1645
  893loPI    C314275   4.044   1.239   4.421  0.0581 -0.1073 -0.0301
  893loPI   PO414276   3.974   0.993   4.949 -0.1448  0.0524 -0.3075
  893loPI   GL114277   4.034   0.830   5.385  0.0106  0.1260  0.3378
  893loPI   GL214278   4.361   0.913   5.307  0.2631  0.0234 -0.0937
  893loPI   C1A14279   3.816   1.251   5.609 -0.4363  0.0127  0.0465
  893loPI   C2A14280   3.637   1.344   6.058 -0.0290  0.0746 -0.0624
  893loPI   C3A14281   3.512   1.429   6.428 -0.2051 -0.0726 -0.0549
  893loPI   C4A14282   3.576   1.537   6.774  0.4213 -0.2112 -0.0808
  893loPI   C5A14283   3.532   1.692   7.244 -0.0075 -0.1869 -0.1677
  893loPI   C6A14284   3.539   1.671   7.669  0.3723  0.2477  0.1159
  893loPI   C1B14285   4.290   1.148   5.688 -0.1862  0.0564 -0.0250
  893loPI   C2B14286   4.008   0.985   6.052  0.4460 -0.1286 -0.0600
  893loPI   C3B14287   3.844   1.015   6.452 -0.1860 -0.2051  0.3183
  893loPI   C4B14288   3.564   0.740   6.617  0.0951  0.2330  0.0874
  894loPI    C114289   4.646   6.945   4.638 -0.1058  0.1584 -0.0698
  894loPI    C214290   4.664   7.084   4.263  0.2158  0.1902 -0.0454
  894loPI    C314291   4.580   6.698   4.329 -0.0705  0.2337 -0.1380
  894loPI   PO414292   4.460   7.072   4.790 -0.0037 -0.3030  0.3433
  894loPI   GL114293   4.387   7.308   5.065 -0.0091 -0.0122  0.1324
  894loPI   GL214294   4.158   7.504   4.957 -0.1928 -0.1913  0.0259
  894loPI   C1A14295   4.185   7.316   5.486 -0.3766  0.0253  0.2194
  894loPI   C2A14296   4.068   7.324   5.946 -0.0360 -0.2648  0.3895
  894loPI   C3A14297   3.911   7.279   6.361  0.0640  0.0131  0.0201
  894loPI   C4A14298   3.725   7.538   6.756 -0.0288  0.3746 -0.0876
  894loPI   C5A14299   3.389   7.645   6.955  0.2513  0.1037  0.0311
  894loPI   C6A14300   3.015   7.613   7.198  0.1370  0.0163  0.2124
  894loPI   C1B14301   4.295   7.809   5.251  0.0687 -0.1426 -0.3388
  894loPI   C2B14302   4.253   7.947   5.772 -0.0455  0.1185  0.3427
  894loPI   C3B14303   4.474   8.041   6.084  0.0065 -0.1511 -0.0761
  894loPI   C4B14304   4.599   8.093   6.537 -0.1364  0.2738 -0.0053
  895loPI    C114305  19.612  10.559   3.943 -0.3024  0.1167  0.1806
  895loPI    C214306  19.581  10.771   3.605 -0.1219 -0.1135  0.0160
  895loPI    C314307  19.322  10.476   3.680 -0.2017 -0.0198  0.1106
  895loPI   PO414308  19.705  10.785   4.206  0.2996  0.0030  0.2389
  895loPI   GL114309  19.560  10.675   4.554  0.0534  0.2750  0.0171
  895loPI   GL214310  19.564  10.297   4.610 -0.1860  0.0392 -0.0951
  895loPI   C1A14311  19.644  10.662   4.980 -0.2069 -0.1333 -0.5163
  895loPI   C2A14312  19.493  10.756   5.383  0.1991 -0.1721 -0.1507
  895loPI   C3A14313  19.712  10.773   5.717  0.0666 -0.4344 -0.0640
  895loPI   C4A14314  19.701  10.633   6.253  0.1184 -0.1392 -0.1835
  895loPI   C5A14315  19.372  10.459   6.470 -0.0310  0.1533  0.0586
  895loPI   C6A14316  18.935  10.347   6.499 -0.2481  0.0460 -0.1310
  895loPI   C1B14317  19.153  10.592   4.885  0.2870  0.2273  0.3148
  895loPI   C2B14318  19.003  10.707   5.263  0.0921 -0.2289  0.0160
  895loPI   C3B14319  19.171  10.712   5.734 -0.1392  0.1661 -0.3015
  895loPI   C4B14320  19.381  10.365   5.902 -0.2355  0.2559  0.0615
  896loPI    C114321   6.644  18.632   4.598 -0.2064 -0.0212 -0.1356
  896loPI    C214322   6.784  18.268   4.513  0.2703  0.0895  0.1360
  896loPI    C314323   6.796  18.556   4.236  0.3961  0.0431  0.0924
  896loPI   PO414324   6.808  18.655   4.847  0.0526 -0.0049  0.1687
  896loPI   GL114325   6.701  18.846   5.156 -0.1970  0.0010  0.0452
  896loPI   GL214326   6.420  19.066   5.266 -0.0240 -0.0876  0.1053
  896loPI   C1A14327   7.054  18.887   5.437 -0.1086 -0.0372 -0.1888
  896loPI   C2A14328   7.361  18.792   5.641 -0.0391  0.1457  0.0463
  896loPI   C3A14329   7.589  18.693   5.952 -0.1798 -0.0452 -0.2172
  896loPI   C4A14330   7.614  18.581   6.440  0.1422  0.0361  0.0849
  896loPI   C5A14331   7.742  18.160   6.500 -0.4043  0.0310 -0.1645
  896loPI   C6A14332   7.905  17.705   6.554  0.0609  0.1816 -0.3985
  896loPI   C1B14333   6.268  19.006   5.631 -0.2184  0.3940 -0.0419
  896loPI   C2B14334   6.286  18.799   6.101  0.1750 -0.2500  0.2202
  896loPI   C3B14335   6.317  18.435   6.202 -0.0847 -0.0522 -0.2499
  896loPI   C4B14336   6.373  17.889   6.203 -0.1312 -0.2430  0.0674
  897loPI    C114337  13.248   8.718   3.901 -0.1139 -0.1641  0.0050
  897loPI    C214338  13.552   8.490   3.777  0.1105  0.1955 -0.1229
  897loPI    C314339  13.175   8.382   3.696  0.2107 -0.1316 -0.1706
  897loPI   PO414340  13.289   8.713   4.161 -0.1281  0.2241  0.4968
  897loPI   GL114341  13.350   8.701   4.615  0.0398 -0.3994 -0.1539
  897loPI   GL214342  13.451   9.039   4.488 -0.0926  0.1597  0.0935
  897loPI   C1A14343  13.148   8.449   4.941  0.1478  0.0125 -0.1200
  897loPI   C2A14344  12.986   8.428   5.297  0.3094 -0.2120 -0.0772
  897loPI   C3A14345  13.094   8.405   5.705  0.0622  0.1144  0.0265
  897loPI   C4A14346  13.088   8.484   6.110  0.2321  0.1231 -0.1234
  897loPI   C5A14347  13.259   8.274   6.444  0.1210  0.0958  0.0607
  897loPI   C6A14348  13.706   8.195   6.369  0.4893  0.0957  0.0780
  897loPI   C1B14349  13.390   9.060   5.022  0.2431  0.2917 -0.1804
  897loPI   C2B14350  13.346   8.784   5.376 -0.0386  0.1965  0.1909
  897loPI   C3B14351  13.572   8.403   5.559 -0.1433  0.0349  0.2094
  897loPI   C4B14352  13.545   8.324   5.946 -0.0737  0.4783 -0.2754
  898loPI    C114353   5.043   2.527   4.408 -0.1468 -0.1781 -0.0565
  898loPI    C214354   4.758   2.247   4.436 -0.1370 -0.1804  0.0228
  898loPI    C314355   5.106   2.162   4.256 -0.1366 -0.2171  0.0410
  898loPI   PO414356   5.089   2.674   4.658  0.1276 -0.0560  0.2528
  898loPI   GL114357   5.203   2.754   5.077 -0.3034  0.0940 -0.1634
  898loPI   GL214358   5.550   2.783   4.972  0.0677  0.0695 -0.2370
  898loPI   C1A14359   5.145   2.605   5.445  0.4068  0.2531  0.1037
  898loPI   C2A14360   5.013   2.516   5.885 -0.1136 -0.1319  0.3125
  898loPI   C3A14361   5.086   2.667   6.382 -0.2175  0.2097  0.2223
  898loPI   C4A14362   5.198   2.479   6.843 -0.0172  0.0358  0.1222
  898loPI   C5A14363   5.397   2.140   7.096 -0.3377  0.0885  0.0167
  898loPI   C6A14364   5.745   1.947   7.377 -0.3174 -0.2503 -0.1760
  898loPI   C1B14365   5.649   2.657   5.434  0.0524 -0.1665  0.3062
  898loPI   C2B14366   5.563   2.701   5.816  0.1372  0.1721 -0.1278
  898loPI   C3B14367   5.513   2.472   6.203 -0.1691  0.2626 -0.3150
  898loPI   C4B14368   5.571   2.236   6.599 -0.2077 -0.2869 -0.3593
  899loPI    C114369  15.777  18.449   4.137  0.0605 -0.1140  0.2164
  899loPI    C214370  15.992  18.417   3.801 -0.0129 -0.0304  0.1610
  899loPI    C314371  15.794  18.100   3.942 -0.0495 -0.0439  0.0796
  899loPI   PO414372  15.908  18.559   4.318  0.5145 -0.0573 -0.0763
  899loPI   GL114373  16.185  18.852   4.494  0.2759 -0.0399  0.0327
  899loPI   GL214374  16.464  18.724   4.555  0.2216  0.0555 -0.2842
  899loPI   C1A14375  16.118  18.867   4.924  0.0262 -0.0067 -0.3059
  899loPI   C2A14376  16.198  18.810   5.358 -0.2204 -0.0322 -0.0375
  899loPI   C3A14377  16.335  18.682   5.751 -0.3098 -0.3289 -0.1118
  899loPI   C4A14378  16.462  18.966   6.148  0.1705 -0.0353  0.0996
  899loPI   C5A14379  16.740  19.294   6.350 -0.0257  0.0512  0.1584
  899loPI   C6A14380  17.142  19.203   6.302  0.1598 -0.0619 -0.0598
  899loPI   C1B14381  16.553  18.594   5.020  0.0547  0.0048 -0.0380
  899loPI   C2B14382  16.253  18.299   5.355  0.0755  0.1688 -0.0646
  899loPI   C3B14383  15.875  18.040   5.421  0.2146 -0.2119  0.0550
  899loPI   C4B14384  15.670  17.770   5.495  0.1969  0.0050  0.0121
  900loPI    C114385   7.529  18.721   4.709 -0.0061  0.1194  0.0388
  900loPI    C214386   7.399  18.891   4.371  0.2915 -0.0904 -0.1877
  900loPI    C314387   7.221  18.561   4.511  0.1464  0.0160 -0.1184
  900loPI   PO414388   7.456  18.867   4.911 -0.2285 -0.1648 -0.2529
  900loPI   GL114389   7.415  19.163   5.179 -0.0635  0.2032 -0.3039
  900loPI   GL214390   7.737  19.283   5.176  0.0430 -0.2107 -0.2174
  900loPI   C1A14391   7.188  19.379   5.569  0.1816 -0.2384 -0.1939
  900loPI   C2A14392   6.953  19.633   5.852  0.4453 -0.0375 -0.1299
  900loPI   C3A14393   6.902  19.587   6.268 -0.0098 -0.0271  0.2814
  900loPI   C4A14394   7.150  19.794   6.542 -0.0532  0.3337 -0.0488
  900loPI   C5A14395   7.412  20.014   6.891  0.1600  0.0001  0.1252
  900loPI   C6A14396   7.795  19.980   7.091 -0.0709  0.2162  0.1641
  900loPI   C1B14397   8.182  19.351   5.496  0.2887  0.2707 -0.0021
  900loPI   C2B14398   8.583  19.121   5.576 -0.1807 -0.2506  0.0108
  900loPI   C3B14399   8.721  19.085   5.938  0.0710  0.2279 -0.2911
  900loPI   C4B14400   8.534  18.934   6.278 -0.0148  0.0936  0.0048
  901loPI    C114401   4.690  16.750   5.185 -0.2144  0.0947 -0.1261
  901loPI    C214402   4.842  17.120   5.180  0.0532 -0.0026  0.2817
  901loPI    C314403   4.447  17.066   5.160  0.0201  0.2958  0.0710
  901loPI   PO414404   4.895  16.545   5.362 -0.2626  0.0537  0.0523
  901loPI   GL114405   4.933  16.054   5.458  0.2228  0.0822 -0.3821
  901loPI   GL214406   5.282  16.196   5.643  0.1429 -0.1567  0.1727
  901loPI   C1A14407   5.091  15.677   5.672  0.2515  0.1833 -0.0340
  901loPI   C2A14408   5.180  15.544   6.068  0.1040 -0.1854  0.2346
  901loPI   C3A14409   5.359  15.551   6.408 -0.0145  0.0623 -0.0856
  901loPI   C4A14410   5.555  15.243   6.683 -0.0066 -0.0113 -0.0087
  901loPI   C5A14411   6.012  15.300   6.906  0.2070  0.0375 -0.2282
  901loPI   C6A14412   6.080  15.132   7.407 -0.0151  0.0408  0.2380
  901loPI   C1B14413   4.961  16.040   5.959  0.0418 -0.0010  0.1304
  901loPI   C2B14414   4.730  15.753   6.052  0.0500  0.2102 -0.2831
  901loPI   C3B14415   4.678  15.553   6.235 -0.0936 -0.1435 -0.1875
  901loPI   C4B14416   4.904  15.774   6.513  0.0246 -0.0713  0.0677
  902loPI    C114417   7.099  10.219   4.621  0.1148  0.2158  0.1134
  902loPI    C214418   7.056  10.368   4.253  0.2810  0.1712  0.0751
  902loPI    C314419   7.227  10.010   4.305 -0.0938  0.0006  0.1677
  902loPI   PO414420   6.827  10.320   4.797  0.0395 -0.2431 -0.1917
  902loPI   GL114421   6.611  10.184   5.203 -0.3684 -0.1744 -0.1305
  902loPI   GL214422   6.624  10.370   5.366 -0.2926  0.4952 -0.1949
  902loPI   C1A14423   6.573   9.831   5.467 -0.0407  0.1312 -0.2519
  902loPI   C2A14424   6.720   9.698   5.983  0.0215  0.0886  0.0761
  902loPI   C3A14425   6.913   9.468   6.325  0.0018  0.0178 -0.0679
  902loPI   C4A14426   7.060   9.508   6.774 -0.2351  0.2618 -0.0905
  902loPI   C5A14427   7.227   9.249   7.078 -0.1321  0.3197 -0.3593
  902loPI   C6A14428   7.478   8.940   7.050  0.3190 -0.0049 -0.1605
  902loPI   C1B14429   6.719  10.419   5.796  0.0347  0.0493 -0.1395
  902loPI   C2B14430   6.868  10.508   6.238 -0.0419 -0.0096  0.1379
  902loPI   C3B14431   7.201  10.414   6.516 -0.2855  0.0970 -0.0259
  902loPI   C4B14432   7.364  10.065   6.774  0.0302  0.0143  0.1545
  903loPI    C114433   5.233  18.267   4.889 -0.1388 -0.0782  0.0223
  903loPI    C214434   4.924  18.180   4.650 -0.1856  0.0009  0.0538
  903loPI    C314435   5.260  18.334   4.495 -0.1197 -0.1907  0.0042
  903loPI   PO414436   5.221  18.013   5.064 -0.1772 -0.0897 -0.0214
  903loPI   GL114437   5.272  18.030   5.466  0.0500 -0.1146 -0.0810
  903loPI   GL214438   5.060  18.222   5.490 -0.0429 -0.2376  0.0074
  903loPI   C1A14439   5.738  18.066   5.628  0.3641 -0.0759 -0.1207
  903loPI   C2A14440   6.221  18.189   5.733 -0.2036 -0.1206  0.1376
  903loPI   C3A14441   6.506  18.577   5.583  0.1615  0.3351  0.0466
  903loPI   C4A14442   6.746  18.756   5.886 -0.2716  0.1312 -0.0378
  903loPI   C5A14443   6.715  18.890   6.332  0.2351  0.2119  0.1190
  903loPI   C6A14444   6.625  19.221   6.593 -0.0848 -0.2988  0.1083
  903loPI   C1B14445   4.670  18.344   5.614  0.0070 -0.1003 -0.1016
  903loPI   C2B14446   4.484  18.544   5.901 -0.1579  0.0202 -0.0253
  903loPI   C3B14447   4.593  18.760   6.279 -0.1431  0.2155  0.2372
  903loPI   C4B14448   4.480  19.136   6.474  0.2572  0.0242 -0.1290
  904loPI    C114449  11.152  18.405   4.238 -0.1200  0.1586 -0.3101
  904loPI    C214450  11.542  18.493   4.245 -0.1232  0.1629 -0.1172
  904loPI    C314451  11.282  18.752   4.087 -0.0636  0.2217 -0.1193
  904loPI   PO414452  11.146  18.376   4.511 -0.0300 -0.0268 -0.0580
  904loPI   GL114453  10.941  18.137   4.800  0.1061  0.1908 -0.1630
  904loPI   GL214454  10.794  18.460   4.936 -0.0259  0.0021  0.0924
  904loPI   C1A14455  11.184  18.226   5.202  0.0238 -0.0377 -0.0559
  904loPI   C2A14456  11.229  18.238   5.637  0.2881 -0.0568  0.1392
  904loPI   C3A14457  11.198  18.485   5.958 -0.2438  0.0665  0.0858
  904loPI   C4A14458  11.260  18.545   6.325 -0.1056 -0.1193  0.0597
  904loPI   C5A14459  11.339  18.867   6.731  0.0117 -0.0468 -0.1058
  904loPI   C6A14460  11.727  18.747   6.897 -0.1612 -0.0415  0.3778
  904loPI   C1B14461  10.850  18.488   5.392 -0.0980  0.0236  0.1536
  904loPI   C2B14462  10.831  18.697   5.731 -0.0395 -0.0947  0.2254
  904loPI   C3B14463  10.902  18.984   6.082  0.1216 -0.1974  0.0344
  904loPI   C4B14464  10.822  19.101   6.476  0.2249 -0.0990  0.1981
  905loPI    C114465  17.134  14.962   3.961 -0.0665 -0.0978  0.1135
  905loPI    C214466  17.085  14.609   3.780 -0.0016 -0.1340  0.1660
  905loPI    C314467  17.311  14.892   3.610  0.0915 -0.1822  0.2087
  905loPI   PO414468  17.240  14.883   4.222 -0.0970  0.0691  0.1708
  905loPI   GL114469  17.330  15.039   4.535  0.0778  0.5289  0.1764
  905loPI   GL214470  17.139  15.299   4.517 -0.1652  0.1481  0.0431
  905loPI   C1A14471  17.416  14.937   4.957  0.0724 -0.1680  0.0886
  905loPI   C2A14472  17.636  15.026   5.288  0.5046 -0.2846 -0.0339
  905loPI   C3A14473  17.695  15.336   5.601 -0.1273  0.0399 -0.0788
  905loPI   C4A14474  17.710  15.234   6.022 -0.1740  0.1499  0.3004
  905loPI   C5A14475  17.628  15.572   6.496 -0.1600  0.0234  0.0446
  905loPI   C6A14476  17.759  16.143   6.596 -0.0967 -0.0882 -0.1325
  905loPI   C1B14477  17.026  15.260   5.016 -0.1901  0.2321  0.0758
  905loPI   C2B14478  17.042  15.207   5.402 -0.1032 -0.0937 -0.2949
  905loPI   C3B14479  17.202  15.094   5.749  0.3303 -0.1179  0.1854
  905loPI   C4B14480  17.139  14.860   6.119  0.2258 -0.0015  0.1958
  906loPI    C114481  14.767   1.000   4.011  0.2710  0.0227  0.0405
  906loPI    C214482  14.887   0.666   4.196  0.1788  0.0085  0.0754
  906loPI    C314483  14.943   0.708   3.802  0.0121 -0.1334  0.0349
  906loPI   PO414484  14.777   1.128   4.269  0.2130 -0.2620 -0.2468
  906loPI   GL114485  14.660   1.122   4.697  0.0315  0.2288 -0.2150
  906loPI   GL214486  14.428   0.908   4.810  0.2176  0.0251 -0.1967
  906loPI   C1A14487  14.887   0.877   4.997  0.0180  0.1005  0.1319
  906loPI   C2A14488  14.935   0.876   5.373 -0.2035 -0.3157 -0.0037
  906loPI   C3A14489  14.908   0.830   5.784  0.2704 -0.4458 -0.0603
  906loPI   C4A14490  14.673   0.989   6.115  0.4243 -0.0077  0.2645
  906loPI   C5A14491  14.612   1.291   6.366 -0.0538  0.0860  0.0899
  906loPI   C6A14492  14.723   1.483   6.777 -0.1298 -0.1844 -0.1411
  906loPI   C1B14493  14.454   1.000   5.238  0.0119 -0.1407 -0.2081
  906loPI   C2B14494  14.392   0.913   5.644 -0.1284  0.0389  0.0348
  906loPI   C3B14495  14.354   0.660   5.955 -0.0609  0.1156  0.0595
  906loPI   C4B14496  14.282   0.738   6.413  0.0595  0.1379 -0.1424
  907loPI    C114497   9.043  16.122   4.636 -0.1782 -0.2376 -0.0040
  907loPI    C214498   8.718  16.292   4.796 -0.0806 -0.2819  0.2453
  907loPI    C314499   8.774  16.301   4.400 -0.0784  0.2667  0.2507
  907loPI   PO414500   9.053  15.951   4.748  0.3649 -0.0779  0.0862
  907loPI   GL114501   9.275  15.690   5.073  0.3480 -0.0064 -0.2816
  907loPI   GL214502   9.147  15.394   5.268 -0.1180  0.1176 -0.0139
  907loPI   C1A14503   9.267  15.867   5.510 -0.4766 -0.2467 -0.0448
  907loPI   C2A14504   9.437  15.908   5.993  0.3893  0.0657  0.1303
  907loPI   C3A14505   9.871  15.859   6.307  0.1840 -0.0532  0.0101
  907loPI   C4A14506  10.251  15.776   6.435  0.2718  0.1732 -0.2436
  907loPI   C5A14507  10.600  15.849   6.586 -0.0724 -0.1019  0.0460
  907loPI   C6A14508  10.925  15.704   7.007  0.2285 -0.2861 -0.0894
  907loPI   C1B14509   9.170  15.441   5.734  0.2585 -0.0815  0.1395
  907loPI   C2B14510   9.230  15.471   6.167 -0.0462  0.3333 -0.0370
  907loPI   C3B14511   9.228  15.631   6.550 -0.0833 -0.0063  0.1022
  907loPI   C4B14512   9.413  15.405   6.950 -0.1128  0.1712 -0.1452
  908loPI    C114513   8.861   1.429   4.452  0.1095  0.1046 -0.1419
  908loPI    C214514   8.915   1.143   4.178  0.2024  0.2914 -0.3217
  908loPI    C314515   9.215   1.245   4.422  0.0826  0.0403 -0.0645
  908loPI   PO414516   8.526   1.404   4.413  0.0340 -0.2051 -0.3785
  908loPI   GL114517   8.252   1.395   4.733 -0.2419  0.3415  0.1489
  908loPI   GL214518   8.160   1.181   4.922 -0.0531  0.1295 -0.2892
  908loPI   C1A14519   8.291   1.624   5.184 -0.0298 -0.3365  0.1315
  908loPI   C2A14520   8.476   1.413   5.682 -0.0813 -0.1013  0.3663
  908loPI   C3A14521   8.542   1.603   6.049 -0.0557 -0.2775 -0.0872
  908loPI   C4A14522   8.270   1.947   6.340  0.0703  0.0400  0.3612
  908loPI   C5A14523   8.376   2.102   6.692 -0.1307  0.1308  0.2357
  908loPI   C6A14524   8.791   2.180   6.986 -0.1959 -0.0685 -0.0431
  908loPI   C1B14525   8.140   0.807   4.971 -0.1886 -0.1370 -0.2161
  908loPI   C2B14526   7.829   0.431   5.010  0.1228  0.0192  0.1293
  908loPI   C3B14527   7.529   0.308   5.354 -0.4492  0.3297  0.0251
  908loPI   C4B14528   7.232   0.392   5.808 -0.1003 -0.1672  0.0124
  909loPI    C114529   5.487  10.400   4.733 -0.2374 -0.1433  0.1435
  909loPI    C214530   5.200  10.599   4.537 -0.0004  0.2016  0.1389
  909loPI    C314531   5.580  10.625   4.415  0.0318 -0.2880  0.1171
  909loPI   PO414532   5.299  10.265   4.923  0.0551  0.0741  0.0853
  909loPI   GL114533   5.170  10.190   5.342  0.2284  0.0550 -0.4517
  909loPI   GL214534   5.176   9.887   5.228  0.0497  0.1480  0.0262
  909loPI   C1A14535   5.367   9.929   5.680  0.0655 -0.2822  0.1927
  909loPI   C2A14536   5.484   9.604   5.992 -0.3172  0.1652  0.0876
  909loPI   C3A14537   5.727   9.398   6.182  0.2384 -0.2065 -0.0668
  909loPI   C4A14538   5.840   9.259   6.500  0.3113  0.0848  0.3251
  909loPI   C5A14539   5.879   9.436   6.878  0.0955  0.0647  0.1222
  909loPI   C6A14540   5.527   9.540   7.292  0.0485 -0.2945  0.3352
  909loPI   C1B14541   4.811   9.764   5.421  0.0853 -0.1510  0.2665
  909loPI   C2B14542   4.525   9.795   5.773  0.3690 -0.3656  0.5331
  909loPI   C3B14543   4.336   9.979   6.081 -0.1938 -0.1817 -0.2588
  909loPI   C4B14544   4.184  10.125   6.498  0.0903  0.0265 -0.3864
  910loPI    C114545   6.654  16.839   4.701  0.0687  0.1716  0.0736
  910loPI    C214546   6.485  16.476   4.710  0.1028  0.1512 -0.0947
  910loPI    C314547   6.833  16.531   4.520  0.1486  0.2512  0.0167
  910loPI   PO414548   6.729  16.868   4.922 -0.1384 -0.1159  0.0127
  910loPI   GL114549   6.530  16.901   5.380 -0.1365 -0.1792  0.0428
  910loPI   GL214550   6.695  17.072   5.600  0.2874 -0.1172 -0.0117
  910loPI   C1A14551   6.367  16.618   5.754 -0.0520  0.0013 -0.1457
  910loPI   C2A14552   6.107  16.820   6.092  0.0440  0.2975  0.2558
  910loPI   C3A14553   5.788  16.952   6.325  0.1403 -0.0856 -0.0471
  910loPI   C4A14554   5.482  16.810   6.627 -0.1408 -0.0715  0.0162
  910loPI   C5A14555   5.130  16.583   6.694  0.1206 -0.2030  0.0937
  910loPI   C6A14556   4.987  16.288   6.929 -0.3039 -0.0186 -0.0398
  910loPI   C1B14557   6.654  16.843   6.050  0.0519  0.0581 -0.0266
  910loPI   C2B14558   6.481  16.885   6.364  0.3991 -0.2452 -0.0296
  910loPI   C3B14559   6.217  17.088   6.747 -0.3927 -0.1597  0.0619
  910loPI   C4B14560   5.981  17.391   6.773 -0.3701 -0.0164  0.1114
  911loPI    C114561  15.840   8.783   3.978  0.0643  0.2635 -0.0162
  911loPI    C214562  16.166   8.713   4.198  0.0216 -0.4133 -0.1468
  911loPI    C314563  16.202   8.867   3.830  0.1397  0.0874  0.0658
  911loPI   PO414564  15.683   8.794   4.171  0.1394  0.1675 -0.1747
  911loPI   GL114565  15.673   9.112   4.522 -0.1874  0.2012  0.1295
  911loPI   GL214566  15.875   8.880   4.573  0.0884 -0.1503 -0.0658
  911loPI   C1A14567  15.554   9.296   4.850  0.0465  0.0237  0.3095
  911loPI   C2A14568  15.394   9.543   5.304  0.3233  0.0769 -0.2151
  911loPI   C3A14569  15.236   9.447   5.686  0.2116 -0.2084  0.2236
  911loPI   C4A14570  15.041   9.456   5.974 -0.4786  0.1160 -0.0269
  911loPI   C5A14571  15.005   9.433   6.338  0.0955 -0.0029 -0.2574
  911loPI   C6A14572  15.070   9.226   6.687 -0.1073  0.0059  0.2633
  911loPI   C1B14573  15.923   9.029   4.947 -0.1073  0.3288  0.0683
  911loPI   C2B14574  15.776   9.219   5.314 -0.1701  0.1670 -0.2647
  911loPI   C3B14575  15.761   9.407   5.669  0.0749 -0.2503 -0.1861
  911loPI   C4B14576  15.924   9.343   6.000 -0.1080 -0.0787  0.2045
  912loPI    C114577  18.123  15.454   3.731  0.1007  0.0806 -0.0405
  912loPI    C214578  17.964  15.807   3.631 -0.0116  0.0064 -0.1261
  912loPI    C314579  18.027  15.529   3.350  0.0387 -0.0568 -0.0526
  912loPI   PO414580  17.964  15.373   3.971  0.2363  0.3108 -0.4559
  912loPI   GL114581  17.815  15.441   4.422 -0.0462 -0.2805  0.1096
  912loPI   GL214582  17.822  15.124   4.444 -0.0693 -0.0243  0.2013
  912loPI   C1A14583  17.585  15.395   4.757 -0.0320  0.1904 -0.2256
  912loPI   C2A14584  17.432  15.536   5.164  0.3273 -0.1568 -0.0370
  912loPI   C3A14585  17.336  15.712   5.508 -0.1655  0.2362  0.0631
  912loPI   C4A14586  17.354  15.553   5.922  0.0828  0.0395 -0.3214
  912loPI   C5A14587  17.187  15.397   6.311  0.0025  0.2905  0.2976
  912loPI   C6A14588  16.799  15.393   6.451  0.0692 -0.0460  0.2041
  912loPI   C1B14589  17.947  14.965   4.844  0.1574  0.2225 -0.0066
  912loPI   C2B14590  18.064  14.667   5.106 -0.0364 -0.1098  0.0849
  912loPI   C3B14591  17.936  14.593   5.487  0.1079 -0.0090  0.0526
  912loPI   C4B14592  17.942  14.793   5.901  0.1250 -0.0358 -0.1992
  913loPI    C114593  11.706   6.386   4.416 -0.0781 -0.1242  0.1008
  913loPI    C214594  11.788   6.428   4.027  0.0421  0.2727  0.1652
  913loPI    C314595  11.418   6.331   4.144  0.0372  0.0190 -0.0518
  913loPI   PO414596  11.797   6.583   4.516  0.1690  0.2106  0.6280
  913loPI   GL114597  11.786   6.833   4.910 -0.2427 -0.1882  0.2606
  913loPI   GL214598  11.744   7.116   5.061  0.1203 -0.1665  0.0505
  913loPI   C1A14599  11.889   6.772   5.332  0.0596  0.0930  0.3646
  913loPI   C2A14600  11.724   6.781   5.782 -0.1425  0.0012  0.2244
  913loPI   C3A14601  11.866   6.672   6.250 -0.0621  0.4666 -0.3307
  913loPI   C4A14602  11.792   6.474   6.620  0.2893 -0.0086 -0.2005
  913loPI   C5A14603  11.578   6.798   6.864  0.1311  0.0558 -0.1140
  913loPI   C6A14604  11.319   7.200   6.929 -0.1720  0.0403  0.1898
  913loPI   C1B14605  11.461   7.048   5.454  0.2239 -0.1714  0.1736
  913loPI   C2B14606  11.395   7.176   5.918 -0.0323 -0.2155  0.3821
  913loPI   C3B14607  11.618   7.077   6.331  0.2684  0.2044 -0.2448
  913loPI   C4B14608  11.773   7.238   6.720  0.0907 -0.2280  0.1762
  914loPI    C114609  19.722   7.470   4.289 -0.0028  0.0525  0.0377
  914loPI    C214610  19.817   7.437   3.902  0.1399  0.4944  0.0299
  914loPI    C314611  19.444   7.532   4.008  0.0589  0.2081  0.0102
  914loPI   PO414612  20.012   7.385   4.402  0.3320 -0.0053 -0.0477
  914loPI   GL114613  20.178   7.077   4.744  0.1492  0.0853 -0.1217
  914loPI   GL214614  19.909   7.214   4.846  0.0647 -0.2090  0.1002
  914loPI   C1A14615  20.196   6.835   5.128  0.0641  0.0326  0.0978
  914loPI   C2A14616  20.201   6.826   5.661 -0.0934  0.5359 -0.0358
  914loPI   C3A14617  19.869   7.070   5.737 -0.1450  0.3551 -0.0008
  914loPI   C4A14618  19.871   7.452   6.004 -0.2560 -0.1069 -0.0507
  914loPI   C5A14619  19.592   7.661   6.302  0.1470  0.1943  0.0591
  914loPI   C6A14620  19.327   7.888   6.414  0.3104 -0.1987 -0.2145
  914loPI   C1B14621  19.583   6.968   5.238 -0.0395  0.0245  0.1853
  914loPI   C2B14622  19.396   6.756   5.641 -0.2751 -0.0994  0.0007
  914loPI   C3B14623  19.472   6.725   6.124 -0.0979 -0.3049 -0.0742
  914loPI   C4B14624  19.542   6.593   6.592 -0.0683  0.2172  0.1227
  915loPI    C114625   0.606  16.791   4.485  0.0280  0.0780  0.0411
  915loPI    C214626   0.577  16.556   4.163 -0.2032 -0.1185  0.2017
  915loPI    C314627   0.883  16.811   4.198  0.0010 -0.3284 -0.0184
  915loPI   PO414628   0.548  16.591   4.632  0.0280 -0.0221 -0.0267
  915loPI   GL114629   0.587  16.504   4.989 -0.1358 -0.0193 -0.0359
  915loPI   GL214630   0.773  16.557   5.319  0.3021 -0.1856 -0.2047
  915loPI   C1A14631   0.334  16.213   5.304 -0.2338 -0.4480 -0.1060
  915loPI   C2A14632   0.113  16.088   5.661  0.3221 -0.2023 -0.1099
  915loPI   C3A14633  -0.132  16.223   6.010  0.0022  0.0769  0.2809
  915loPI   C4A14634  -0.404  15.959   6.419 -0.0478  0.0596  0.1083
  915loPI   C5A14635  -0.306  16.039   6.912 -0.0777 -0.2319  0.0195
  915loPI   C6A14636  -0.199  16.062   7.262  0.1297 -0.2443  0.1976
  915loPI   C1B14637   0.732  16.655   5.827 -0.2947  0.1017  0.1070
  915loPI   C2B14638   0.966  16.720   6.274  0.3112 -0.2306  0.1536
  915loPI   C3B14639   1.297  16.519   6.618  0.0640 -0.0282 -0.1348
  915loPI   C4B14640   1.577  16.731   6.830 -0.1671 -0.1560  0.0652
  916loPI    C114641  13.648  11.626   3.998  0.0906  0.2363  0.4584
  916loPI    C214642  13.824  11.308   4.165 -0.1251 -0.1123  0.0417
  916loPI    C314643  13.864  11.375   3.773 -0.2672  0.2526  0.0861
  916loPI   PO414644  13.502  11.679   4.194  0.1017  0.0228 -0.4368
  916loPI   GL114645  13.508  11.455   4.529  0.1493  0.2488 -0.1767
  916loPI   GL214646  13.151  11.415   4.626 -0.0078  0.0159 -0.0799
  916loPI   C1A14647  13.618  11.454   4.960  0.2669 -0.0983 -0.1160
  916loPI   C2A14648  13.821  11.477   5.371 -0.1164 -0.0746 -0.1518
  916loPI   C3A14649  14.214  11.416   5.662 -0.0921  0.0517  0.2966
  916loPI   C4A14650  14.159  11.492   6.044  0.2787 -0.1924 -0.0254
  916loPI   C5A14651  14.345  11.627   6.398 -0.3766  0.3034 -0.0823
  916loPI   C6A14652  14.479  12.073   6.533  0.0147 -0.0195  0.0162
  916loPI   C1B14653  13.158  11.651   5.025  0.1852 -0.0729  0.3940
  916loPI   C2B14654  12.907  11.671   5.382 -0.1301 -0.0404 -0.0444
  916loPI   C3B14655  12.667  12.117   5.434  0.2368  0.1153 -0.1068
  916loPI   C4B14656  12.348  12.426   5.470  0.0618  0.4155 -0.0862
  917loPI    C114657   6.795  17.950   4.944  0.1270 -0.3549 -0.0447
  917loPI    C214658   6.451  17.758   5.012 -0.0447 -0.0396 -0.0032
  917loPI    C314659   6.533  17.899   4.647  0.0614 -0.1525 -0.0236
  917loPI   PO414660   6.775  18.196   5.090  0.2815 -0.2691  0.1419
  917loPI   GL114661   6.715  18.162   5.453 -0.0699  0.3590  0.0846
  917loPI   GL214662   6.610  17.925   5.541 -0.1579 -0.0345 -0.1773
  917loPI   C1A14663   7.082  18.378   5.704 -0.0613  0.0205 -0.0479
  917loPI   C2A14664   7.153  18.609   6.116  0.3288 -0.0385  0.0040
  917loPI   C3A14665   7.028  18.614   6.602 -0.3150  0.0241 -0.0093
  917loPI   C4A14666   6.756  18.843   6.839 -0.0184 -0.0342  0.1914
  917loPI   C5A14667   6.835  19.208   7.050  0.1253 -0.1244  0.0073
  917loPI   C6A14668   6.868  19.575   6.911  0.2653 -0.1944 -0.3721
  917loPI   C1B14669   6.626  17.648   5.828 -0.0697  0.2727  0.0024
  917loPI   C2B14670   6.877  17.668   6.206 -0.0375  0.1755 -0.0172
  917loPI   C3B14671   6.880  17.764   6.622 -0.0968  0.0563 -0.1578
  917loPI   C4B14672   7.041  17.754   7.051 -0.1436  0.0498 -0.0213
  918loPI    C114673   4.653  19.025   4.632  0.0005 -0.0025 -0.0811
  918loPI    C214674   4.694  18.875   4.264 -0.0759  0.1124 -0.1368
  918loPI    C314675   4.931  19.174   4.386  0.2324 -0.2035  0.0548
  918loPI   PO414676   4.367  18.927   4.642  0.0571 -0.0730 -0.1494
  918loPI   GL114677   4.255  18.893   5.025  0.0496 -0.2022  0.0465
  918loPI   GL214678   4.327  18.564   5.162 -0.1034  0.0693  0.1932
  918loPI   C1A14679   4.057  18.971   5.535 -0.4149 -0.2616  0.1972
  918loPI   C2A14680   4.268  19.018   5.993 -0.1527 -0.0691  0.0022
  918loPI   C3A14681   4.105  18.892   6.278  0.1022 -0.1115 -0.1588
  918loPI   C4A14682   4.038  18.659   6.690 -0.1507  0.1094  0.2505
  918loPI   C5A14683   4.086  18.280   6.905  0.1688  0.4112  0.0983
  918loPI   C6A14684   4.509  18.023   6.945 -0.2617 -0.0526 -0.1159
  918loPI   C1B14685   4.634  18.824   5.484 -0.1416  0.2384 -0.1275
  918loPI   C2B14686   4.959  18.855   5.764  0.0857 -0.1136  0.1411
  918loPI   C3B14687   5.029  18.494   5.963 -0.4152  0.2264  0.0731
  918loPI   C4B14688   4.971  18.402   6.428  0.2174  0.2005  0.4069
  919loPI    C114689   5.736  16.430   4.878  0.0945  0.2592 -0.1570
  919loPI    C214690   5.852  16.415   4.496  0.2039 -0.2312 -0.1112
  919loPI    C314691   6.042  16.196   4.771  0.0398  0.0142  0.2041
  919loPI   PO414692   5.749  16.589   4.975 -0.2526 -0.2564 -0.2753
  919loPI   GL114693   5.490  16.730   5.301 -0.0738 -0.2111  0.2128
  919loPI   GL214694   5.293  16.960   5.183 -0.0680  0.2759 -0.0726
  919loPI   C1A14695   5.407  16.640   5.703  0.0644  0.0095  0.3787
  919loPI   C2A14696   5.315  16.605   6.136 -0.0600 -0.0940  0.1060
  919loPI   C3A14697   5.260  16.198   6.336  0.1900 -0.1180 -0.1099
  919loPI   C4A14698   5.296  15.942   6.711  0.0457 -0.0694 -0.3367
  919loPI   C5A14699   5.291  15.984   7.218 -0.0531 -0.1375  0.2590
  919loPI   C6A14700   5.108  15.758   7.685  0.2396 -0.4639  0.0178
  919loPI   C1B14701   5.242  17.105   5.604  0.0395 -0.1698 -0.1871
  919loPI   C2B14702   5.253  17.172   6.056  0.0835 -0.0395  0.3712
  919loPI   C3B14703   5.433  17.276   6.523 -0.2241 -0.1476 -0.1250
  919loPI   C4B14704   5.240  17.590   6.754 -0.1340  0.1186  0.0029
  920loPI    C114705   0.567   9.032   4.232 -0.0322  0.2106  0.0332
  920loPI    C214706   0.734   9.014   3.869  0.1314  0.3478  0.0997
  920loPI    C314707   0.346   9.106   3.907  0.0059 -0.0878 -0.0630
  920loPI   PO414708   0.540   8.797   4.461  0.2036 -0.0926 -0.2042
  920loPI   GL114709   0.488   8.630   4.806 -0.2220 -0.0818 -0.1532
  920loPI   GL214710   0.794   8.498   4.893  0.0039  0.1430 -0.1242
  920loPI   C1A14711   0.366   9.042   5.243  0.0751  0.1386 -0.0139
  920loPI   C2A14712   0.277   9.425   5.303  0.1714 -0.0162  0.2578
  920loPI   C3A14713   0.543   9.602   5.528  0.0695 -0.2849  0.1799
  920loPI   C4A14714   0.776   9.894   5.862 -0.3155  0.0048 -0.0907
  920loPI   C5A14715   1.037   9.813   6.168 -0.0041 -0.0369  0.0765
  920loPI   C6A14716   1.371   9.863   6.343 -0.1986  0.0704 -0.4317
  920loPI   C1B14717   0.461   8.529   5.275  0.0765  0.0613 -0.1167
  920loPI   C2B14718   0.510   8.372   5.731  0.0884  0.2999 -0.1141
  920loPI   C3B14719   0.397   8.361   6.128 -0.0925  0.3214 -0.0607
  920loPI   C4B14720   0.478   8.504   6.534  0.1944  0.0026  0.1241
  921loPI    C114721   6.576   2.402   4.470 -0.1093 -0.1859 -0.0563
  921loPI    C214722   6.424   2.129   4.220  0.0313 -0.0440 -0.3011
  921loPI    C314723   6.482   2.505   4.095  0.0474  0.0443 -0.0348
  921loPI   PO414724   6.454   2.446   4.636 -0.1229  0.1403  0.0887
  921loPI   GL114725   6.531   2.779   4.911 -0.0798 -0.0925 -0.1641
  921loPI   GL214726   6.259   2.944   4.921  0.1309  0.0051  0.1651
  921loPI   C1A14727   6.719   2.836   5.353  0.1830  0.0969  0.0508
  921loPI   C2A14728   6.765   3.014   5.656  0.0684 -0.0266  0.0611
  921loPI   C3A14729   6.763   3.165   6.098  0.3861 -0.0198 -0.1285
  921loPI   C4A14730   6.841   3.049   6.499 -0.2352  0.1107 -0.3199
  921loPI   C5A14731   7.055   2.948   6.887 -0.2787  0.0207  0.0909
  921loPI   C6A14732   7.063   2.733   7.149 -0.2737  0.2366 -0.1767
  921loPI   C1B14733   6.121   2.684   5.280 -0.1762 -0.1921 -0.1600
  921loPI   C2B14734   6.400   2.484   5.577  0.1027 -0.2317  0.0905
  921loPI   C3B14735   6.530   2.724   5.941  0.1507 -0.0646  0.3616
  921loPI   C4B14736   6.392   2.906   6.326  0.2062  0.3854 -0.0104
  922loPI    C114737   7.055  11.550   5.350  0.3213  0.1597 -0.0726
  922loPI    C214738   6.927  11.620   4.977  0.1059  0.1014 -0.0109
  922loPI    C314739   6.764  11.816   5.285 -0.0140 -0.1569  0.0937
  922loPI   PO414740   7.112  11.357   5.342  0.2536  0.1704  0.2352
  922loPI   GL114741   7.075  11.147   5.664 -0.1857 -0.1497  0.1389
  922loPI   GL214742   6.853  10.934   5.674  0.0912 -0.2657  0.1896
  922loPI   C1A14743   7.088  11.355   6.019  0.0057  0.1110  0.1466
  922loPI   C2A14744   7.174  11.519   6.331 -0.1422 -0.4499 -0.0581
  922loPI   C3A14745   7.060  11.329   6.751 -0.2605 -0.2810 -0.3506
  922loPI   C4A14746   7.147  11.203   7.231  0.0191 -0.2169  0.1901
  922loPI   C5A14747   7.043  10.800   7.464 -0.0100 -0.1825 -0.0969
  922loPI   C6A14748   7.146  10.298   7.510  0.1444  0.2018 -0.0109
  922loPI   C1B14749   6.639  10.936   6.029  0.0319 -0.1123 -0.1941
  922loPI   C2B14750   6.647  11.059   6.400  0.2079  0.0362 -0.0274
  922loPI   C3B14751   6.839  10.751   6.695  0.3115  0.2189 -0.0592
  922loPI   C4B14752   7.094  10.636   7.009  0.2379  0.0197  0.0553
  923loPI    C114753   7.951   3.762   4.517 -0.0438  0.3204  0.1810
  923loPI    C214754   7.786   3.801   4.155  0.1528  0.2600  0.0831
  923loPI    C314755   8.179   3.860   4.203  0.1346  0.2284  0.2796
  923loPI   PO414756   7.779   3.912   4.644  0.1394  0.1822 -0.1322
  923loPI   GL114757   7.707   3.981   5.000 -0.1327 -0.1468 -0.4135
  923loPI   GL214758   7.939   3.800   5.079  0.0875 -0.0001  0.4435
  923loPI   C1A14759   7.513   3.915   5.408  0.2809 -0.0191 -0.2723
  923loPI   C2A14760   7.109   3.943   5.735  0.1622 -0.2241 -0.0235
  923loPI   C3A14761   7.171   3.877   6.233  0.1405 -0.4481 -0.2121
  923loPI   C4A14762   7.294   3.864   6.570  0.1595 -0.0562 -0.0181
  923loPI   C5A14763   7.331   3.869   7.026  0.0901  0.1014 -0.1074
  923loPI   C6A14764   7.157   3.693   7.469 -0.4878 -0.2380 -0.3795
  923loPI   C1B14765   7.961   4.106   5.437  0.0835  0.0521  0.2150
  923loPI   C2B14766   7.729   4.144   5.813  0.0783 -0.0872  0.2100
  923loPI   C3B14767   7.573   4.214   6.264  0.1503  0.0707 -0.0983
  923loPI   C4B14768   7.351   4.346   6.653  0.0607 -0.0744  0.1545
  924loPI    C114769  10.128   0.034   4.304 -0.2825 -0.2344  0.0911
  924loPI    C214770   9.978   0.138   3.948 -0.0574  0.0472  0.0751
  924loPI    C314771  10.248  -0.156   3.972  0.0596  0.1469 -0.0109
  924loPI   PO414772  10.168   0.265   4.448  0.1010 -0.0818  0.2070
  924loPI   GL114773   9.905   0.513   4.732 -0.1964 -0.0030 -0.0801
  924loPI   GL214774  10.043   0.696   4.746 -0.2054 -0.0078  0.1324
  924loPI   C1A14775   9.952   0.479   5.217 -0.3625 -0.0413  0.0078
  924loPI   C2A14776  10.273   0.507   5.467 -0.2204 -0.0796  0.1500
  924loPI   C3A14777  10.473   0.323   5.854  0.0071  0.0999  0.1084
  924loPI   C4A14778  10.575   0.489   6.211 -0.3151 -0.1531  0.0215
  924loPI   C5A14779  10.652   0.477   6.664 -0.1598  0.4125 -0.0863
  924loPI   C6A14780  10.477   0.359   7.044 -0.0843  0.2306  0.1569
  924loPI   C1B14781  10.141   0.942   5.115  0.1641 -0.0055 -0.1080
  924loPI   C2B14782  10.102   1.008   5.502 -0.0139 -0.1299  0.2511
  924loPI   C3B14783  10.126   1.194   5.950  0.0981  0.4855 -0.0506
  924loPI   C4B14784  10.114   1.141   6.346 -0.0057 -0.0127  0.2594
  925loPI    C114785  19.076   9.275   3.907  0.0572 -0.0021  0.0614
  925loPI    C214786  18.731   9.253   4.109  0.0140 -0.0072 -0.0127
  925loPI    C314787  18.756   9.479   3.780  0.0907  0.0188  0.0107
  925loPI   PO414788  19.235   9.365   4.072  0.0747  0.1590 -0.2039
  925loPI   GL114789  19.159   9.539   4.482 -0.1043 -0.1196  0.2639
  925loPI   GL214790  19.116   9.888   4.446  0.1126 -0.1040 -0.4223
  925loPI   C1A14791  18.913   9.343   4.790  0.0763 -0.0811 -0.1139
  925loPI   C2A14792  18.931   9.158   5.201  0.1174  0.0247  0.1172
  925loPI   C3A14793  18.907   9.092   5.571  0.1944 -0.0867  0.1205
  925loPI   C4A14794  18.747   9.036   6.018 -0.0298  0.0005 -0.0239
  925loPI   C5A14795  18.843   8.648   6.397  0.0332  0.0084  0.3468
  925loPI   C6A14796  18.880   8.505   6.839 -0.1370 -0.1532  0.0525
  925loPI   C1B14797  19.160   9.793   4.928  0.0966  0.0901  0.2131
  925loPI   C2B14798  19.213   9.728   5.302  0.3576  0.0279 -0.0356
  925loPI   C3B14799  19.469   9.779   5.681  0.1469 -0.1457  0.0819
  925loPI   C4B14800  19.731   9.646   6.091 -0.1740 -0.0196  0.2919
  926loPI    C114801  15.111   5.750   4.080 -0.0734  0.2201  0.1818
  926loPI    C214802  15.008   5.471   3.813  0.0691  0.2161  0.1299
  926loPI    C314803  14.834   5.831   3.803 -0.0442  0.1620  0.1354
  926loPI   PO414804  15.270   5.580   4.300  0.2920 -0.3502  0.1666
  926loPI   GL114805  15.119   5.533   4.812 -0.0347  0.0839  0.1607
  926loPI   GL214806  15.440   5.693   4.923  0.0257  0.0990  0.2791
  926loPI   C1A14807  14.847   5.797   5.061 -0.0036  0.1014 -0.1417
  926loPI   C2A14808  14.747   6.067   5.340  0.3208 -0.0388  0.1339
  926loPI   C3A14809  14.549   6.181   5.640  0.2764  0.3466  0.1493
  926loPI   C4A14810  14.599   6.343   6.093  0.2109  0.1939 -0.0039
  926loPI   C5A14811  15.038   6.120   6.283  0.0060 -0.3671  0.3594
  926loPI   C6A14812  15.436   6.158   6.096  0.0427 -0.0799 -0.3544
  926loPI   C1B14813  15.490   5.643   5.365 -0.1803  0.0150 -0.1092
  926loPI   C2B14814  15.686   5.851   5.810 -0.2201 -0.1682  0.0081
  926loPI   C3B14815  15.828   5.897   6.320 -0.0184 -0.1276  0.1491
  926loPI   C4B14816  16.067   5.917   6.722  0.2686 -0.0049 -0.4250
  927loPI    C114817  17.806   5.587   4.100 -0.0329  0.1017  0.0549
  927loPI    C214818  17.469   5.641   3.892  0.1148  0.3126 -0.1335
  927loPI    C314819  17.825   5.683   3.713  0.2443 -0.1092  0.0126
  927loPI   PO414820  17.701   5.412   4.352  0.1769  0.2851 -0.1198
  927loPI   GL114821  17.472   5.275   4.771  0.1608 -0.0512 -0.2006
  927loPI   GL214822  17.183   5.361   5.027 -0.0169  0.1232 -0.0488
  927loPI   C1A14823  17.646   5.102   5.073 -0.2219 -0.1702 -0.1383
  927loPI   C2A14824  17.534   5.117   5.526 -0.1838  0.1646  0.1412
  927loPI   C3A14825  17.167   5.188   5.809  0.3144 -0.1931 -0.0783
  927loPI   C4A14826  16.869   5.181   6.150  0.0331 -0.0930  0.4082
  927loPI   C5A14827  16.848   5.327   6.474  0.0829  0.3387 -0.0114
  927loPI   C6A14828  16.574   5.379   6.687  0.0182 -0.0880 -0.3474
  927loPI   C1B14829  17.331   5.563   5.413 -0.1725  0.1921  0.2802
  927loPI   C2B14830  17.617   5.710   5.737  0.0425  0.2561  0.2428
  927loPI   C3B14831  17.620   5.732   6.232  0.1378  0.0894 -0.3182
  927loPI   C4B14832  17.924   5.864   6.505  0.1380 -0.3406  0.0673
  928loPI    C114833   0.755   0.495   4.237 -0.0467 -0.0969  0.2507
  928loPI    C214834   0.774   0.217   3.950 -0.0242 -0.0465  0.2031
  928loPI    C314835   1.081   0.467   4.007 -0.0412 -0.0363  0.2510
  928loPI   PO414836   0.614   0.279   4.491  0.1636 -0.2717  0.0187
  928loPI   GL114837   0.706   0.316   4.849 -0.1854  0.0440  0.2272
  928loPI   GL214838   0.878   0.450   5.122  0.4521  0.1362 -0.0324
  928loPI   C1A14839   0.375   0.311   5.175 -0.2271 -0.2562 -0.0237
  928loPI   C2A14840   0.358   0.256   5.618  0.4132 -0.0646  0.0684
  928loPI   C3A14841   0.610   0.477   5.991  0.2982 -0.0266 -0.1773
  928loPI   C4A14842   0.792   0.449   6.353  0.0574  0.1710  0.2548
  928loPI   C5A14843   0.742   0.453   6.860  0.3519 -0.0379  0.3003
  928loPI   C6A14844   0.933   0.741   7.154 -0.0904 -0.2701  0.2450
  928loPI   C1B14845   0.990   0.775   5.204 -0.3416  0.1904  0.0648
  928loPI   C2B14846   1.378   0.720   5.422 -0.0442 -0.3538  0.4911
  928loPI   C3B14847   1.539   0.463   5.828  0.0597  0.0718  0.2819
  928loPI   C4B14848   1.386   0.449   6.191 -0.0037  0.0349  0.1792
  929loPI    C114849  12.532  14.864   4.183 -0.1283 -0.1496 -0.1132
  929loPI    C214850  12.378  15.071   3.877 -0.0958 -0.1711 -0.1442
  929loPI    C314851  12.163  14.782   4.052 -0.2788  0.1247  0.1289
  929loPI   PO414852  12.539  14.998   4.372  0.1601 -0.0241 -0.1134
  929loPI   GL114853  12.469  15.120   4.840  0.0289  0.0299  0.1808
  929loPI   GL214854  12.576  15.424   4.975  0.0458 -0.0690  0.1801
  929loPI   C1A14855  12.905  15.024   5.152  0.2868  0.2355  0.0136
  929loPI   C2A14856  13.114  15.087   5.569 -0.1498 -0.0019  0.0049
  929loPI   C3A14857  13.289  15.164   6.040  0.0387  0.1036 -0.1828
  929loPI   C4A14858  13.120  15.275   6.325 -0.2043  0.0490 -0.3363
  929loPI   C5A14859  13.002  15.106   6.749 -0.2357  0.2125  0.3127
  929loPI   C6A14860  13.057  15.018   7.214 -0.1613  0.0761  0.1775
  929loPI   C1B14861  12.800  15.460   5.366 -0.0167  0.1812  0.1116
  929loPI   C2B14862  12.969  15.490   5.852  0.0467  0.0472  0.4704
  929loPI   C3B14863  13.303  15.632   5.993 -0.0462 -0.3047 -0.0389
  929loPI   C4B14864  13.631  15.565   6.261  0.0548  0.1761 -0.1612
  930loPI    C114865  18.465  11.596   3.774  0.2227  0.1050  0.2205
  930loPI    C214866  18.268  11.799   3.491  0.1870  0.0751  0.2237
  930loPI    C314867  18.483  11.476   3.393 -0.1195 -0.1503  0.2801
  930loPI   PO414868  18.477  11.737   4.107  0.2731  0.0703  0.0124
  930loPI   GL114869  18.317  11.618   4.503  0.1428 -0.0886 -0.1249
  930loPI   GL214870  18.504  11.374   4.621 -0.1227  0.0895  0.2906
  930loPI   C1A14871  18.015  11.584   4.846  0.2126  0.0314  0.1759
  930loPI   C2A14872  17.706  11.610   5.238 -0.0281 -0.4590  0.0341
  930loPI   C3A14873  17.760  11.842   5.539  0.0208  0.0638 -0.3317
  930loPI   C4A14874  17.696  12.075   5.838 -0.3122  0.0302 -0.3598
  930loPI   C5A14875  17.692  11.983   6.266  0.0518 -0.0977  0.1124
  930loPI   C6A14876  17.292  12.077   6.606 -0.0925 -0.3177  0.1971
  930loPI   C1B14877  18.524  11.455   4.994  0.2442 -0.2094 -0.3011
  930loPI   C2B14878  18.191  11.467   5.401 -0.0622 -0.1633  0.1399
  930loPI   C3B14879  18.172  11.356   5.812  0.1086  0.2854 -0.2787
  930loPI   C4B14880  17.926  11.048   6.044  0.0376 -0.3055  0.0226
  931loPI    C114881  19.082  15.218   3.744 -0.1664  0.0305 -0.3031
  931loPI    C214882  18.792  15.366   3.513 -0.2300 -0.0969 -0.3059
  931loPI    C314883  19.169  15.359   3.380 -0.2184  0.1029 -0.2876
  931loPI   PO414884  19.111  15.314   4.051 -0.4968 -0.2510 -0.1504
  931loPI   GL114885  19.120  15.377   4.472  0.1163  0.1594  0.1955
  931loPI   GL214886  18.846  15.374   4.477  0.1275  0.0907  0.0706
  931loPI   C1A14887  19.269  15.238   4.888  0.0301  0.5754  0.1886
  931loPI   C2A14888  19.242  14.975   5.332 -0.0237  0.1014  0.2428
  931loPI   C3A14889  19.112  14.828   5.780 -0.0821  0.1653  0.0635
  931loPI   C4A14890  19.055  14.660   6.149  0.0557 -0.1198 -0.3476
  931loPI   C5A14891  19.102  14.590   6.581  0.1695  0.0808  0.2080
  931loPI   C6A14892  19.268  14.754   6.920  0.0927  0.0138 -0.1206
  931loPI   C1B14893  18.787  15.500   4.960  0.1025  0.0174  0.3478
  931loPI   C2B14894  18.854  15.230   5.209  0.2234 -0.1911 -0.2462
  931loPI   C3B14895  18.924  15.250   5.608  0.1275 -0.0267 -0.1542
  931loPI   C4B14896  18.827  15.155   6.115  0.1010  0.0093 -0.3037
  932loPI    C114897  17.855  14.390   4.022  0.0771 -0.0760 -0.0550
  932loPI    C214898  17.460  14.450   4.039  0.0960  0.0180  0.0686
  932loPI    C314899  17.647  14.446   3.685 -0.0232 -0.0811  0.0057
  932loPI   PO414900  17.911  14.600   4.296 -0.3963  0.2142  0.1262
  932loPI   GL114901  17.685  14.610   4.607 -0.0437  0.0584  0.1349
  932loPI   GL214902  17.394  14.513   4.540 -0.0028  0.0965  0.1893
  932loPI   C1A14903  17.559  14.451   5.042 -0.1083 -0.1866 -0.2536
  932loPI   C2A14904  17.393  14.598   5.461  0.1414 -0.0023  0.1310
  932loPI   C3A14905  17.477  14.565   5.826 -0.2288 -0.2060  0.0744
  932loPI   C4A14906  17.332  14.441   6.339  0.0243  0.0834  0.0391
  932loPI   C5A14907  17.163  14.733   6.656  0.1481  0.0167 -0.0501
  932loPI   C6A14908  17.018  15.196   6.831  0.1279  0.0063  0.1221
  932loPI   C1B14909  17.037  14.612   4.814 -0.1501 -0.0548 -0.4925
  932loPI   C2B14910  16.883  14.779   5.124  0.3622  0.1308  0.0939
  932loPI   C3B14911  16.957  14.681   5.629  0.0691 -0.1439 -0.0088
  932loPI   C4B14912  16.947  14.405   6.047 -0.0057 -0.0540 -0.4273
  933loPI    C114913  10.079  16.174   4.687 -0.0224 -0.0400 -0.2126
  933loPI    C214914  10.416  16.226   4.477  0.2838 -0.0060  0.2718
  933loPI    C314915  10.203  15.889   4.436  0.1087  0.1717 -0.3917
  933loPI   PO414916  10.149  16.245   4.962  0.1254 -0.0994  0.0618
  933loPI   GL114917  10.100  16.658   5.096  0.2309 -0.1046  0.2214
  933loPI   GL214918   9.960  16.941   5.069  0.0362  0.0077  0.1820
  933loPI   C1A14919   9.949  16.564   5.579 -0.1136  0.0342 -0.0719
  933loPI   C2A14920  10.009  16.748   5.993 -0.3854  0.0216 -0.0395
  933loPI   C3A14921  10.148  16.796   6.500 -0.2623  0.0096  0.2241
  933loPI   C4A14922  10.039  16.935   6.920  0.1693 -0.0499  0.1119
  933loPI   C5A14923   9.653  16.941   7.082 -0.1028 -0.0242 -0.0017
  933loPI   C6A14924   9.264  16.581   6.966 -0.0432 -0.0008  0.2573
  933loPI   C1B14925   9.641  16.919   5.414  0.0636 -0.0420 -0.3444
  933loPI   C2B14926   9.421  17.159   5.808 -0.1334  0.0688 -0.2192
  933loPI   C3B14927   9.169  17.177   6.163 -0.0530 -0.1161 -0.1977
  933loPI   C4B14928   8.803  17.119   6.454  0.0651  0.1289 -0.1368
  934loPI    C114929   6.340  11.657   4.955  0.1050 -0.3253  0.0937
  934loPI    C214930   6.076  11.574   4.667 -0.1015  0.0473  0.1682
  934loPI    C314931   6.447  11.425   4.648 -0.2750 -0.3785 -0.0031
  934loPI   PO414932   6.249  11.920   5.022 -0.1570  0.0738 -0.4221
  934loPI   GL114933   6.124  11.955   5.395  0.0643  0.3878 -0.0330
  934loPI   GL214934   6.277  12.250   5.454  0.0037 -0.0448 -0.0408
  934loPI   C1A14935   5.959  11.753   5.762  0.1908 -0.1701  0.1303
  934loPI   C2A14936   6.192  11.532   6.049  0.0180  0.1842 -0.0201
  934loPI   C3A14937   6.173  11.661   6.526 -0.3270  0.1764  0.3314
  934loPI   C4A14938   6.263  11.918   6.976  0.1210  0.0013 -0.0454
  934loPI   C5A14939   6.341  12.315   7.086  0.1793  0.0033 -0.1462
  934loPI   C6A14940   6.179  12.374   7.587 -0.1550  0.2555 -0.0991
  934loPI   C1B14941   6.436  12.465   5.854  0.0837 -0.0366  0.0265
  934loPI   C2B14942   6.473  12.362   6.231  0.0775 -0.2026 -0.0210
  934loPI   C3B14943   6.554  12.159   6.570 -0.1521  0.1094  0.2190
  934loPI   C4B14944   6.908  11.974   6.542  0.2990 -0.1081  0.1253
  935loPI    C114945   6.174  16.856   4.805  0.1124 -0.2462 -0.1744
  935loPI    C214946   6.225  17.117   4.507  0.1993 -0.0298  0.0266
  935loPI    C314947   5.895  16.892   4.521  0.1209  0.0721 -0.1461
  935loPI   PO414948   6.226  16.905   4.995  0.0371 -0.0726  0.1214
  935loPI   GL114949   6.008  16.772   5.345 -0.3698 -0.1928 -0.0879
  935loPI   GL214950   6.268  16.465   5.169  0.3143 -0.0551  0.0392
  935loPI   C1A14951   5.816  16.990   5.635  0.2262  0.2096  0.1213
  935loPI   C2A14952   5.741  17.297   5.990 -0.0712 -0.1071  0.0415
  935loPI   C3A14953   5.837  17.572   6.332 -0.0202 -0.1514  0.0199
  935loPI   C4A14954   5.680  17.863   6.661  0.0650  0.0629 -0.0153
  935loPI   C5A14955   5.485  17.857   7.087  0.0665  0.0343  0.0640
  935loPI   C6A14956   5.263  17.531   7.371  0.1548 -0.1337 -0.0620
  935loPI   C1B14957   6.230  16.247   5.455 -0.0596  0.4526 -0.0956
  935loPI   C2B14958   6.277  16.118   5.880  0.0898 -0.0809 -0.1639
  935loPI   C3B14959   6.304  16.249   6.317 -0.1866 -0.0888 -0.2130
  935loPI   C4B14960   6.090  16.635   6.553 -0.0085 -0.2484  0.0477
  936loPI    C114961   3.322   7.904   3.995 -0.0967  0.2106  0.0235
  936loPI    C214962   3.270   8.268   3.838  0.1077  0.1013 -0.3098
  936loPI    C314963   3.143   7.945   3.640 -0.0780 -0.0119 -0.0133
  936loPI   PO414964   3.250   7.913   4.185 -0.2883  0.0908  0.1684
  936loPI   GL114965   3.350   8.083   4.662 -0.3774 -0.1580  0.0385
  936loPI   GL214966   3.218   7.662   4.655  0.1694 -0.1868 -0.0896
  936loPI   C1A14967   3.490   8.198   5.072  0.1559  0.0957 -0.1180
  936loPI   C2A14968   3.334   8.451   5.405 -0.0442  0.2663  0.1741
  936loPI   C3A14969   3.272   8.575   5.788 -0.1351  0.3181  0.0374
  936loPI   C4A14970   3.209   8.862   6.154 -0.0883  0.2811 -0.0045
  936loPI   C5A14971   3.403   9.076   6.423 -0.5365  0.2989 -0.0954
  936loPI   C6A14972   3.267   9.226   6.802 -0.0639  0.0694  0.3092
  936loPI   C1B14973   3.141   7.778   5.007  0.2657 -0.0102  0.0693
  936loPI   C2B14974   3.421   7.931   5.456 -0.0878  0.1850 -0.0656
  936loPI   C3B14975   3.397   8.043   5.969  0.2800 -0.0301 -0.2975
  936loPI   C4B14976   3.452   8.090   6.438 -0.1764  0.0784  0.1161
  937loPI    C114977  10.407  10.158   4.408  0.0567 -0.2158  0.0063
  937loPI    C214978  10.688  10.431   4.326 -0.3009  0.1137 -0.1548
  937loPI    C314979  10.594  10.152   4.055  0.1258 -0.2353  0.0430
  937loPI   PO414980  10.509  10.091   4.712  0.1581 -0.1447  0.2634
  937loPI   GL114981  10.333   9.763   5.098 -0.0608  0.1023  0.2514
  937loPI   GL214982  10.220  10.058   5.126 -0.1334 -0.1081 -0.2015
  937loPI   C1A14983  10.392   9.707   5.558  0.2649 -0.3072 -0.3266
  937loPI   C2A14984  10.406   9.752   5.981  0.1582  0.0875  0.2363
  937loPI   C3A14985  10.614   9.634   6.304 -0.0841 -0.6011  0.0202
  937loPI   C4A14986  10.438   9.549   6.768  0.0502 -0.3133  0.3329
  937loPI   C5A14987  10.509   9.117   7.042 -0.0873 -0.0718  0.0119
  937loPI   C6A14988  10.788   8.734   7.217 -0.1208  0.0591  0.1068
  937loPI   C1B14989  10.303  10.391   5.433  0.4834 -0.0926  0.1614
  937loPI   C2B14990  10.264  10.488   5.888 -0.0194  0.2074  0.0066
  937loPI   C3B14991  10.199  10.494   6.401 -0.1083 -0.0357 -0.0819
  937loPI   C4B14992   9.965  10.763   6.733 -0.1082  0.2571  0.1511
  938loPI    C114993   8.594   2.150   4.442 -0.0598  0.2347 -0.2090
  938loPI    C214994   8.984   2.090   4.375 -0.0401  0.0398  0.0624
  938loPI    C314995   8.713   1.837   4.223 -0.0444  0.0302  0.0860
  938loPI   PO414996   8.605   2.183   4.812 -0.1216  0.2198  0.1433
  938loPI   GL114997   8.820   2.075   5.135 -0.1170  0.1605 -0.2373
  938loPI   GL214998   9.076   1.907   5.172 -0.0268  0.3877 -0.0598
  938loPI   C1A14999   8.705   1.796   5.435 -0.0428 -0.1308 -0.2275
  938loPI   C2A15000   8.923   1.641   5.743  0.2801 -0.0759 -0.1092
  938loPI   C3A15001   9.366   1.602   5.964  0.1052 -0.2351 -0.1595
  938loPI   C4A15002   9.373   1.533   6.335 -0.0769  0.0397  0.0193
  938loPI   C5A15003   9.256   1.540   6.825 -0.1635  0.0030  0.2610
  938loPI   C6A15004   9.155   1.654   7.271 -0.1583  0.0086  0.2075
  938loPI   C1B15005   9.273   2.069   5.632  0.0024 -0.1826 -0.2081
  938loPI   C2B15006   9.272   2.297   6.037 -0.3214 -0.2845 -0.1064
  938loPI   C3B15007   9.231   2.614   6.233 -0.0075 -0.0145 -0.1216
  938loPI   C4B15008   9.138   3.073   6.357  0.0876 -0.2636  0.0997
  939loPI    C115009  13.655  10.351   3.722 -0.0472 -0.1418 -0.3004
  939loPI    C215010  14.001  10.199   3.590  0.0235 -0.1799 -0.0761
  939loPI    C315011  13.986  10.577   3.720 -0.0648 -0.1158 -0.2679
  939loPI   PO415012  13.475  10.289   4.025 -0.0302 -0.2084  0.0688
  939loPI   GL115013  13.406  10.433   4.397  0.1901 -0.4016 -0.1065
  939loPI   GL215014  13.705  10.245   4.660 -0.0324  0.4016 -0.2112
  939loPI   C1A15015  13.189  10.491   4.810  0.0808  0.2905  0.0588
  939loPI   C2A15016  13.225  10.580   5.273 -0.1101 -0.2759 -0.1920
  939loPI   C3A15017  13.365  10.869   5.687  0.1086 -0.2776  0.0334
  939loPI   C4A15018  13.504  11.141   5.965 -0.2829  0.3222  0.0215
  939loPI   C5A15019  13.721  11.343   6.329  0.0695 -0.0206  0.2458
  939loPI   C6A15020  13.937  11.532   6.719  0.1061 -0.0130  0.0191
  939loPI   C1B15021  13.603  10.359   4.967  0.1166  0.2246  0.3490
  939loPI   C2B15022  13.783  10.210   5.398  0.2991 -0.1372 -0.2152
  939loPI   C3B15023  14.080  10.046   5.728  0.1391  0.0053  0.1305
  939loPI   C4B15024  14.181   9.938   6.159  0.1452 -0.0278 -0.0241
  940loPI    C115025  14.324   3.925   4.034  0.0544 -0.2160 -0.2163
  940loPI    C215026  14.045   4.187   3.919  0.0595 -0.0841  0.0631
  940loPI    C315027  14.364   4.120   3.687  0.0602  0.1600 -0.0094
  940loPI   PO415028  14.247   3.757   4.215  0.0405  0.0472  0.1836
  940loPI   GL115029  14.015   3.801   4.599 -0.1123  0.3333  0.3179
  940loPI   GL215030  13.699   3.867   4.764  0.3762 -0.0701 -0.1074
  940loPI   C1A15031  14.188   3.692   4.934  0.2604  0.0477  0.1225
  940loPI   C2A15032  14.212   3.775   5.363 -0.1678 -0.2731  0.0748
  940loPI   C3A15033  14.448   3.814   5.774  0.0435 -0.2333 -0.0165
  940loPI   C4A15034  14.325   4.000   6.173 -0.3051 -0.2570 -0.1235
  940loPI   C5A15035  14.059   4.318   6.359  0.0201 -0.0962  0.1257
  940loPI   C6A15036  13.694   4.347   6.674 -0.0823  0.2555  0.0046
  940loPI   C1B15037  13.611   3.900   5.183 -0.0892  0.2014 -0.1797
  940loPI   C2B15038  13.724   3.762   5.555 -0.2097  0.0212 -0.2375
  940loPI   C3B15039  14.039   3.520   5.865  0.1516 -0.0485  0.0323
  940loPI   C4B15040  13.945   3.685   6.295 -0.1699  0.0129  0.0279
  941loPI    C115041   8.984  12.981   4.793  0.1013  0.2802  0.0470
  941loPI    C215042   9.096  12.821   4.444 -0.1363 -0.1122  0.1453
  941loPI    C315043   8.759  13.035   4.467 -0.0613  0.0106  0.1122
  941loPI   PO415044   8.895  12.737   4.967  0.0082  0.1608  0.2217
  941loPI   GL115045   8.829  12.595   5.420  0.1225 -0.2555 -0.1364
  941loPI   GL215046   9.174  12.581   5.637  0.1684 -0.0496  0.1347
  941loPI   C1A15047   8.733  12.858   5.791 -0.0789 -0.0116  0.2357
  941loPI   C2A15048   8.765  12.869   6.103 -0.0545 -0.1106 -0.1508
  941loPI   C3A15049   8.839  12.753   6.555 -0.0290 -0.1490 -0.1637
  941loPI   C4A15050   8.715  12.439   6.910  0.1931 -0.3476  0.0971
  941loPI   C5A15051   8.688  12.122   7.093  0.1870  0.0588 -0.2969
  941loPI   C6A15052   8.874  11.879   7.247  0.0750  0.4147 -0.2069
  941loPI   C1B15053   9.247  12.827   5.871 -0.1565 -0.3738 -0.3214
  941loPI   C2B15054   9.367  12.805   6.237 -0.2885  0.3052 -0.1619
  941loPI   C3B15055   9.351  13.059   6.617  0.1510 -0.0534  0.1510
  941loPI   C4B15056   9.397  13.416   6.814  0.2474 -0.0685 -0.0071
  942loPI    C115057  12.221  18.328   4.857 -0.2263 -0.0886  0.0042
  942loPI    C215058  12.003  18.489   4.562  0.0285  0.2047 -0.0286
  942loPI    C315059  12.202  18.726   4.816  0.3162 -0.0571 -0.0045
  942loPI   PO415060  12.053  17.995   4.804  0.1239 -0.3269 -0.0205
  942loPI   GL115061  12.048  17.541   4.963  0.0415 -0.3920 -0.1301
  942loPI   GL215062  12.328  17.615   5.009  0.2526  0.2801  0.1739
  942loPI   C1A15063  12.196  17.275   5.370  0.0641  0.0090  0.4020
  942loPI   C2A15064  12.303  17.242   5.802  0.2240  0.1931 -0.1579
  942loPI   C3A15065  12.424  17.299   6.238  0.3400 -0.2483 -0.1455
  942loPI   C4A15066  12.505  17.013   6.575 -0.1783 -0.0425 -0.0980
  942loPI   C5A15067  12.450  16.598   6.741  0.1233 -0.0028 -0.1917
  942loPI   C6A15068  12.039  16.334   6.735 -0.1469  0.0182  0.2300
  942loPI   C1B15069  12.600  17.775   5.355  0.1808  0.1250 -0.0755
  942loPI   C2B15070  12.368  17.753   5.777 -0.1936 -0.1240  0.4002
  942loPI   C3B15071  12.380  17.958   6.183 -0.0153  0.5152  0.1688
  942loPI   C4B15072  12.222  17.850   6.591  0.1013 -0.0160 -0.0984
  943loPI    C115073  11.681   9.590   4.188  0.2611  0.0865 -0.1409
  943loPI    C215074  11.532   9.557   3.819  0.0771  0.0305 -0.0628
  943loPI    C315075  11.566   9.233   4.050 -0.4622  0.1627  0.2178
  943loPI   PO415076  11.922   9.807   4.167 -0.2994 -0.1041  0.2541
  943loPI   GL115077  12.265   9.724   4.616  0.2881  0.1538  0.3750
  943loPI   GL215078  11.933   9.778   4.656  0.0926 -0.1823  0.1790
  943loPI   C1A15079  12.319   9.849   5.012  0.0029 -0.3557 -0.0498
  943loPI   C2A15080  12.310  10.135   5.338 -0.0921  0.2590  0.2100
  943loPI   C3A15081  12.293  10.284   5.655 -0.1016 -0.1529 -0.2883
  943loPI   C4A15082  12.205  10.153   5.969  0.0111  0.0520 -0.0267
  943loPI   C5A15083  11.890  10.036   6.232 -0.1119 -0.0777 -0.1305
  943loPI   C6A15084  11.658   9.725   6.206 -0.1943  0.0070 -0.1797
  943loPI   C1B15085  11.894  10.114   4.993  0.2999 -0.1917 -0.4727
  943loPI   C2B15086  11.856  10.248   5.451 -0.0491 -0.1655  0.1950
  943loPI   C3B15087  11.750   9.992   5.795  0.3489 -0.2130 -0.1782
  943loPI   C4B15088  12.082   9.639   5.988  0.3074 -0.1264  0.1260
  944loPI    C115089  12.734   3.098   4.212 -0.0050 -0.1483  0.0836
  944loPI    C215090  13.009   3.076   3.922  0.2415  0.2171  0.2814
  944loPI    C315091  12.751   3.381   3.930  0.1765  0.1600  0.3967
  944loPI   PO415092  12.821   3.020   4.428 -0.0499  0.0487  0.1333
  944loPI   GL115093  13.007   3.099   4.785  0.0189  0.0947 -0.1255
  944loPI   GL215094  12.905   2.837   5.158  0.0672 -0.0923  0.1891
  944loPI   C1A15095  12.747   3.308   5.073  0.0688  0.2023  0.1430
  944loPI   C2A15096  12.741   3.565   5.352  0.0891  0.0451  0.0917
  944loPI   C3A15097  12.397   3.681   5.632 -0.0384  0.0317  0.2792
  944loPI   C4A15098  12.404   3.631   6.043 -0.1115  0.1329  0.2473
  944loPI   C5A15099  12.342   3.887   6.333  0.1445  0.1545  0.1603
  944loPI   C6A15100  12.027   3.877   6.618  0.0710  0.4084 -0.0446
  944loPI   C1B15101  13.067   3.121   5.411 -0.0864  0.3735  0.2297
  944loPI   C2B15102  12.961   3.312   5.702 -0.3473 -0.0983 -0.2992
  944loPI   C3B15103  13.011   3.624   5.932  0.2150  0.1686  0.0940
  944loPI   C4B15104  12.853   3.763   6.264 -0.0134  0.4056  0.0665
  945loPI    C115105   3.786  16.459   4.853  0.2727 -0.1151 -0.1475
  945loPI    C215106   3.702  16.189   5.136  0.2275  0.0871  0.0343
  945loPI    C315107   3.767  16.070   4.760  0.0341 -0.1601  0.0765
  945loPI   PO415108   3.593  16.590   4.874  0.1822  0.0465  0.2444
  945loPI   GL115109   3.300  16.549   5.224  0.2756  0.1644 -0.1814
  945loPI   GL215110   3.335  16.900   5.267  0.1527 -0.2148 -0.1639
  945loPI   C1A15111   3.556  16.358   5.569  0.0981 -0.1568 -0.2273
  945loPI   C2A15112   3.974  16.444   5.734  0.1943 -0.1831  0.2769
  945loPI   C3A15113   4.086  16.455   6.192 -0.1511 -0.0155 -0.0496
  945loPI   C4A15114   4.347  16.665   6.580 -0.2824 -0.0818 -0.1886
  945loPI   C5A15115   4.724  16.815   6.830 -0.1116 -0.0088 -0.0453
  945loPI   C6A15116   5.157  17.146   6.889 -0.0370  0.2645  0.3100
  945loPI   C1B15117   3.156  16.913   5.603 -0.0370  0.0250  0.0264
  945loPI   C2B15118   2.970  17.011   6.042 -0.2300  0.2148  0.7624
  945loPI   C3B15119   2.910  16.912   6.423  0.0959  0.2782 -0.0643
  945loPI   C4B15120   3.345  16.802   6.524  0.1599 -0.0100 -0.1564
  946loPI    C115121  18.453   6.981   3.988  0.1392  0.2098  0.0427
  946loPI    C215122  18.389   6.836   3.620 -0.0612 -0.0675  0.1829
  946loPI    C315123  18.761   6.915   3.742  0.0078  0.0085 -0.0714
  946loPI   PO415124  18.199   6.860   4.140 -0.2254 -0.0012  0.0570
  946loPI   GL115125  17.840   7.160   4.320 -0.1689 -0.1732  0.0723
  946loPI   GL215126  18.123   6.999   4.592  0.0991  0.0624  0.0441
  946loPI   C1A15127  17.548   7.315   4.569 -0.1588 -0.0085  0.1145
  946loPI   C2A15128  17.329   7.298   4.966 -0.1258  0.0027  0.0842
  946loPI   C3A15129  17.061   7.145   5.310 -0.0893 -0.1962 -0.0923
  946loPI   C4A15130  17.048   6.953   5.745  0.0487  0.2332  0.3428
  946loPI   C5A15131  17.197   6.812   6.226  0.1674  0.3071 -0.2134
  946loPI   C6A15132  17.503   6.709   6.452  0.0811  0.4114 -0.0530
  946loPI   C1B15133  18.056   6.962   5.068  0.4551  0.3329 -0.3210
  946loPI   C2B15134  17.985   6.883   5.526  0.2592 -0.1254  0.1331
  946loPI   C3B15135  18.013   6.893   6.010 -0.3326  0.2314  0.2094
  946loPI   C4B15136  18.051   6.803   6.368  0.0804 -0.2149 -0.2656
  947loPI    C115137  11.403   1.931   3.898  0.0311  0.0209 -0.0081
  947loPI    C215138  11.749   1.751   3.985 -0.0682 -0.0128  0.3313
  947loPI    C315139  11.481   1.567   3.751  0.0604 -0.0689  0.2267
  947loPI   PO415140  11.323   2.103   4.248  0.1867 -0.5661 -0.2531
  947loPI   GL115141  11.226   2.167   4.700  0.0465 -0.2009  0.0856
  947loPI   GL215142  11.211   1.960   4.957  0.0714  0.1050  0.2874
  947loPI   C1A15143  11.136   2.394   5.098  0.1990 -0.1610 -0.0034
  947loPI   C2A15144  11.084   2.441   5.508 -0.0933 -0.1646 -0.2090
  947loPI   C3A15145  11.014   2.395   5.963 -0.2154  0.2601  0.0315
  947loPI   C4A15146  10.976   2.361   6.391 -0.0047  0.2829 -0.3603
  947loPI   C5A15147  11.224   2.443   6.728  0.2012 -0.1083 -0.3696
  947loPI   C6A15148  11.641   2.445   6.600 -0.0636 -0.1893  0.1561
  947loPI   C1B15149  11.195   1.884   5.320 -0.0995  0.1966 -0.2488
  947loPI   C2B15150  11.025   1.950   5.722  0.1297  0.0569  0.0255
  947loPI   C3B15151  10.984   1.769   6.157  0.1015 -0.1291  0.0240
  947loPI   C4B15152  10.736   1.444   6.315 -0.3717  0.0529 -0.2118
  948loPI    C115153  11.684  14.392   4.477 -0.1708 -0.2827 -0.0740
  948loPI    C215154  12.010  14.262   4.284 -0.0326  0.0019 -0.0380
  948loPI    C315155  11.745  14.495   4.095  0.0428  0.1843  0.0791
  948loPI   PO415156  11.880  14.377   4.768  0.3041 -0.0340 -0.1018
  948loPI   GL115157  11.992  14.658   5.072  0.0129 -0.0899  0.1706
  948loPI   GL215158  11.821  14.885   5.198 -0.0169 -0.0207  0.2026
  948loPI   C1A15159  12.169  14.333   5.311  0.0041  0.2293 -0.0357
  948loPI   C2A15160  12.303  14.421   5.715  0.1430 -0.0511 -0.1318
  948loPI   C3A15161  12.590  14.514   5.992 -0.0301 -0.0537 -0.1361
  948loPI   C4A15162  12.638  14.291   6.479  0.2312 -0.0775  0.0332
  948loPI   C5A15163  12.488  14.105   6.836  0.0416  0.3680 -0.0996
  948loPI   C6A15164  12.473  13.770   7.182  0.2459 -0.3612  0.2977
  948loPI   C1B15165  12.042  14.907   5.582 -0.0131 -0.1643  0.3185
  948loPI   C2B15166  12.174  14.900   6.020  0.1074  0.1707 -0.4194
  948loPI   C3B15167  12.283  14.643   6.413 -0.0039 -0.3919  0.0478
  948loPI   C4B15168  12.303  14.571   6.926 -0.0252  0.2767  0.0086
  949loPI    C115169  15.106  14.528   3.755  0.0013  0.2418  0.1090
  949loPI    C215170  14.783  14.714   3.609  0.0190  0.2858  0.1259
  949loPI    C315171  15.125  14.711   3.400 -0.0781 -0.0252 -0.0359
  949loPI   PO415172  15.037  14.666   4.061 -0.3057 -0.1575 -0.1087
  949loPI   GL115173  14.864  14.464   4.327  0.1954 -0.3077 -0.1946
  949loPI   GL215174  15.090  14.616   4.540 -0.0725  0.0035 -0.4119
  949loPI   C1A15175  14.679  14.366   4.778  0.0700  0.0103 -0.2287
  949loPI   C2A15176  14.701  14.361   5.315  0.1635 -0.1502 -0.2743
  949loPI   C3A15177  14.948  14.543   5.614  0.1679  0.1101 -0.1330
  949loPI   C4A15178  15.219  14.490   5.967 -0.2287 -0.2533  0.2766
  949loPI   C5A15179  15.339  14.194   6.354  0.2689  0.1410  0.1184
  949loPI   C6A15180  14.986  13.966   6.593  0.2992  0.1427 -0.2252
  949loPI   C1B15181  15.393  14.420   4.735  0.1623 -0.0642 -0.2672
  949loPI   C2B15182  15.744  14.252   4.916  0.2550  0.0866  0.1765
  949loPI   C3B15183  15.890  14.045   5.276 -0.0118 -0.0184  0.3529
  949loPI   C4B15184  16.236  13.799   5.368  0.2339 -0.0592  0.2350
  950loPI    C115185  11.938  19.717   4.468 -0.2919  0.3393  0.0173
  950loPI    C215186  12.067  19.794   4.097  0.0236  0.0876  0.0709
  950loPI    C315187  11.924  19.432   4.188 -0.1516  0.1805  0.1697
  950loPI   PO415188  12.125  19.856   4.583  0.1077 -0.0094 -0.0208
  950loPI   GL115189  12.065  20.098   4.862  0.3302  0.0540 -0.2476
  950loPI   GL215190  12.154  20.509   4.846  0.1667 -0.2038  0.1620
  950loPI   C1A15191  12.228  20.085   5.277  0.1629 -0.0231  0.1324
  950loPI   C2A15192  12.560  19.984   5.418  0.1274  0.1715 -0.0918
  950loPI   C3A15193  12.827  19.955   5.651  0.1371  0.0922  0.0627
  950loPI   C4A15194  13.027  20.031   6.012  0.0216 -0.2039  0.1178
  950loPI   C5A15195  13.088  19.971   6.347  0.1437  0.3538 -0.1426
  950loPI   C6A15196  13.157  19.910   6.765  0.1991  0.4929 -0.2826
  950loPI   C1B15197  12.206  20.544   5.224  0.0441  0.0316  0.0760
  950loPI   C2B15198  12.378  20.400   5.652 -0.3134  0.1273 -0.2139
  950loPI   C3B15199  12.519  20.164   6.038  0.0420 -0.0740  0.1862
  950loPI   C4B15200  12.709  20.387   6.322  0.0140  0.0996 -0.0281
  951loPI    C115201   3.339  19.711   4.507  0.0264  0.0359  0.1122
  951loPI    C215202   3.468  20.083   4.435  0.1686 -0.0024  0.1641
  951loPI    C315203   3.622  19.775   4.231  0.0211 -0.0290  0.0915
  951loPI   PO415204   3.284  19.792   4.785 -0.0545 -0.4042 -0.1179
  951loPI   GL115205   3.199  19.694   5.184  0.0600  0.3273 -0.3514
  951loPI   GL215206   3.628  19.818   5.383  0.1215  0.0392 -0.0475
  951loPI   C1A15207   2.974  19.748   5.531 -0.1482 -0.0291 -0.0673
  951loPI   C2A15208   2.906  19.546   5.886 -0.1352 -0.5489  0.0689
  951loPI   C3A15209   2.862  19.561   6.394 -0.0312  0.1645 -0.0276
  951loPI   C4A15210   2.650  19.532   6.782 -0.0627  0.0311 -0.0490
  951loPI   C5A15211   2.201  19.537   6.965 -0.1541 -0.0556  0.3571
  951loPI   C6A15212   2.150  19.813   7.355  0.0859 -0.2615  0.2000
  951loPI   C1B15213   3.799  19.486   5.514 -0.0179 -0.2126 -0.1908
  951loPI   C2B15214   4.011  19.436   5.841 -0.1558  0.3140 -0.1858
  951loPI   C3B15215   4.201  19.482   6.234 -0.1792 -0.0316  0.3004
  951loPI   C4B15216   4.244  19.543   6.602 -0.2604 -0.1737  0.2330
  952loPI    C115217   7.851  19.788   4.174  0.0431 -0.1145 -0.3271
  952loPI    C215218   7.604  20.097   4.232  0.0921 -0.1274 -0.0353
  952loPI    C315219   7.537  19.749   4.419  0.1481 -0.2328 -0.2097
  952loPI   PO415220   8.032  19.874   4.227 -0.1651 -0.3961 -0.1121
  952loPI   GL115221   8.284  19.980   4.484 -0.0730  0.0021  0.0234
  952loPI   GL215222   7.935  20.015   4.664 -0.3873 -0.1135 -0.3095
  952loPI   C1A15223   8.332  19.772   4.869  0.1572  0.0749  0.4889
  952loPI   C2A15224   8.181  19.972   5.285  0.1597 -0.1646  0.1082
  952loPI   C3A15225   8.235  20.023   5.715  0.1272 -0.3025  0.1787
  952loPI   C4A15226   8.368  19.997   6.038 -0.0558  0.0875 -0.1503
  952loPI   C5A15227   8.447  20.052   6.447 -0.3145 -0.0421  0.0691
  952loPI   C6A15228   8.718  19.911   6.723  0.1276  0.0940  0.1605
  952loPI   C1B15229   7.780  19.779   5.000 -0.0502 -0.3009 -0.0636
  952loPI   C2B15230   7.801  19.658   5.470  0.2500 -0.1264 -0.2056
  952loPI   C3B15231   7.955  19.639   5.932 -0.0496 -0.1612 -0.2244
  952loPI   C4B15232   7.965  20.010   6.242  0.1626  0.1430  0.1782
  953loPI    C115233  14.954  14.035   4.011 -0.1289 -0.1347  0.0414
  953loPI    C215234  14.557  13.988   4.022 -0.1665  0.1801  0.1449
  953loPI    C315235  14.722  14.222   3.744 -0.0377 -0.0698  0.0073
  953loPI   PO415236  15.046  14.020   4.239  0.1977 -0.1140 -0.0278
  953loPI   GL115237  15.123  14.033   4.503 -0.2065 -0.1755 -0.4300
  953loPI   GL215238  15.448  13.940   4.566 -0.0546  0.0535  0.2974
  953loPI   C1A15239  15.065  14.075   4.918  0.0672 -0.0076 -0.0669
  953loPI   C2A15240  15.033  14.019   5.347  0.1696  0.0624 -0.4619
  953loPI   C3A15241  15.295  13.855   5.540 -0.1014  0.0441 -0.0968
  953loPI   C4A15242  15.415  13.973   5.930 -0.3312 -0.2603  0.0375
  953loPI   C5A15243  15.743  14.059   6.135 -0.3616  0.0998  0.1374
  953loPI   C6A15244  15.913  14.202   6.559 -0.2160  0.0015 -0.0587
  953loPI   C1B15245  15.471  13.826   4.990 -0.4366 -0.0386  0.2546
  953loPI   C2B15246  15.536  13.512   5.302  0.0767 -0.0557 -0.2050
  953loPI   C3B15247  15.792  13.694   5.741 -0.0698  0.3565  0.0609
  953loPI   C4B15248  15.721  13.567   6.102 -0.0659 -0.0326 -0.2398
  954loPI    C115249   3.846   8.950   4.111  0.0043 -0.0075  0.1675
  954loPI    C215250   4.161   8.721   4.022 -0.1346 -0.0411 -0.2600
  954loPI    C315251   4.038   9.000   3.764 -0.2922  0.1561  0.0234
  954loPI   PO415252   3.790   8.791   4.346  0.3786 -0.3808  0.3027
  954loPI   GL115253   3.520   8.631   4.689 -0.1699 -0.1075  0.3303
  954loPI   GL215254   3.469   8.831   4.998  0.1112  0.2228  0.0218
  954loPI   C1A15255   3.058   8.452   4.840  0.2219  0.0671 -0.0361
  954loPI   C2A15256   2.880   8.250   5.160 -0.1519  0.3214  0.1497
  954loPI   C3A15257   2.831   7.852   5.419  0.0209  0.1624  0.0176
  954loPI   C4A15258   2.637   7.785   5.973  0.0434  0.1376  0.3300
  954loPI   C5A15259   2.770   7.902   6.316 -0.1221 -0.0070  0.1005
  954loPI   C6A15260   3.054   7.938   6.790 -0.1365  0.2038  0.1693
  954loPI   C1B15261   3.413   8.973   5.426  0.1763 -0.0989 -0.0225
  954loPI   C2B15262   3.284   9.293   5.789  0.0519 -0.2692  0.2024
  954loPI   C3B15263   3.016   9.292   6.206 -0.1244 -0.0165 -0.0288
  954loPI   C4B15264   2.720   9.440   6.591  0.3032  0.1222  0.1843
  955loPI    C115265   6.587   8.025   4.847  0.2954  0.0633  0.2964
  955loPI    C215266   6.368   7.739   5.021  0.1637  0.0559  0.1212
  955loPI    C315267   6.349   7.792   4.625  0.2043  0.2930  0.1501
  955loPI   PO415268   6.784   8.117   5.074  0.1428 -0.2206  0.2476
  955loPI   GL115269   7.092   8.201   5.239 -0.1989  0.1301  0.0152
  955loPI   GL215270   7.301   8.347   5.156  0.1431  0.1234  0.0108
  955loPI   C1A15271   7.276   8.250   5.619  0.0674 -0.1133 -0.0749
  955loPI   C2A15272   7.468   8.432   5.898  0.2221  0.0804 -0.0004
  955loPI   C3A15273   7.716   8.752   6.205 -0.3406 -0.0600  0.0985
  955loPI   C4A15274   7.960   9.128   6.233  0.0172 -0.0552 -0.2014
  955loPI   C5A15275   8.335   9.163   6.505 -0.0844 -0.0980  0.0028
  955loPI   C6A15276   8.729   9.273   6.733  0.1941  0.1838  0.0683
  955loPI   C1B15277   7.110   8.674   5.412 -0.1165 -0.0300  0.0802
  955loPI   C2B15278   7.167   8.840   5.809 -0.0974 -0.2110 -0.1701
  955loPI   C3B15279   7.218   9.007   6.167  0.1290  0.1544 -0.0411
  955loPI   C4B15280   7.099   9.065   6.591  0.1125 -0.0054 -0.3255
  956loPI    C115281  16.603  15.539   3.606 -0.0821 -0.0372 -0.0827
  956loPI    C215282  16.246  15.674   3.485 -0.1146 -0.1902 -0.1599
  956loPI    C315283  16.351  15.294   3.415 -0.0238 -0.2064  0.0542
  956loPI   PO415284  16.683  15.668   3.768  0.2819  0.1282  0.2481
  956loPI   GL115285  16.939  15.610   4.129  0.0547 -0.0115  0.0257
  956loPI   GL215286  17.265  15.750   4.330 -0.0154  0.0314 -0.0796
  956loPI   C1A15287  16.872  15.692   4.664 -0.0405 -0.0240 -0.0314
  956loPI   C2A15288  16.942  15.731   5.141 -0.1041 -0.2508  0.1295
  956loPI   C3A15289  16.895  15.872   5.567 -0.1790 -0.1371  0.0654
  956loPI   C4A15290  17.080  16.024   5.977 -0.2623 -0.1433  0.2470
  956loPI   C5A15291  17.057  15.862   6.328  0.2009 -0.1207  0.1048
  956loPI   C6A15292  17.214  15.779   6.702  0.0278 -0.2461  0.0285
  956loPI   C1B15293  17.292  15.941   4.749 -0.0875 -0.0221  0.0052
  956loPI   C2B15294  17.294  16.108   5.111 -0.0599 -0.1381 -0.0649
  956loPI   C3B15295  17.202  16.273   5.524 -0.2973 -0.1281 -0.1668
  956loPI   C4B15296  17.410  16.500   5.890 -0.1132 -0.1168 -0.0595
  957loPI    C115297   0.369  11.630   4.259 -0.1763 -0.1496 -0.0517
  957loPI    C215298   0.540  11.710   3.907 -0.2349 -0.1324 -0.0764
  957loPI    C315299   0.228  11.460   3.926 -0.3933  0.0626 -0.0716
  957loPI   PO415300   0.487  11.773   4.458  0.0592 -0.0035 -0.0194
  957loPI   GL115301   0.628  11.672   4.869 -0.0515 -0.0295 -0.0775
  957loPI   GL215302   0.330  11.903   4.887 -0.2432 -0.0987 -0.1121
  957loPI   C1A15303   0.659  11.475   5.289  0.0387  0.1372 -0.0221
  957loPI   C2A15304   1.071  11.380   5.483  0.0308 -0.0279  0.5044
  957loPI   C3A15305   1.130  11.265   5.905  0.1011 -0.0187 -0.1832
  957loPI   C4A15306   1.112  10.751   6.030  0.1078 -0.0106 -0.4066
  957loPI   C5A15307   1.271  10.746   6.379 -0.1501  0.1225 -0.2431
  957loPI   C6A15308   1.580  10.843   6.706 -0.0121  0.1641  0.2936
  957loPI   C1B15309   0.467  12.260   5.122  0.1660 -0.1629  0.1578
  957loPI   C2B15310   0.268  12.669   5.322  0.0217  0.2110  0.1585
  957loPI   C3B15311  -0.092  12.932   5.469 -0.0686  0.0776 -0.1402
  957loPI   C4B15312  -0.434  13.236   5.655 -0.2233 -0.1095  0.0374
  958loPI    C115313  16.689  14.009   4.212  0.1046 -0.2062 -0.1871
  958loPI    C215314  16.589  14.156   3.853 -0.0574 -0.2355 -0.1547
  958loPI    C315315  16.313  14.125   4.141  0.1317  0.0461  0.0628
  958loPI   PO415316  16.797  13.731   4.122 -0.1695 -0.1687  0.1612
  958loPI   GL115317  16.918  13.565   4.509  0.1128  0.0496 -0.1712
  958loPI   GL215318  17.189  13.500   4.305 -0.2504  0.2559 -0.0875
  958loPI   C1A15319  17.005  13.647   4.983  0.4451  0.0414 -0.0036
  958loPI   C2A15320  17.041  13.707   5.386  0.1154  0.0310 -0.1741
  958loPI   C3A15321  17.102  13.502   5.876 -0.0494 -0.0470 -0.0281
  958loPI   C4A15322  16.936  13.146   6.045  0.2140  0.2807  0.1388
  958loPI   C5A15323  17.036  12.766   6.239  0.3509  0.4296 -0.0442
  958loPI   C6A15324  17.017  12.418   6.414  0.1000 -0.2060  0.1399
  958loPI   C1B15325  17.485  13.602   4.709 -0.2585  0.2503  0.0731
  958loPI   C2B15326  17.450  13.797   5.101  0.2897  0.0651 -0.0648
  958loPI   C3B15327  17.668  14.054   5.487 -0.1742 -0.2856  0.0078
  958loPI   C4B15328  17.867  14.244   5.897 -0.1151  0.0173 -0.1374
  959loPI    C115329   9.170   1.702   4.737  0.1469 -0.2316 -0.3164
  959loPI    C215330   9.508   1.734   4.525  0.4080  0.0169  0.1205
  959loPI    C315331   9.351   2.057   4.702  0.0507 -0.1365  0.0933
  959loPI   PO415332   9.172   1.426   4.907  0.0460  0.1445 -0.0032
  959loPI   GL115333   9.189   1.437   5.350 -0.0091  0.0798  0.1648
  959loPI   GL215334   9.421   1.550   5.513 -0.0318  0.1975 -0.0124
  959loPI   C1A15335   9.203   1.186   5.714  0.0437  0.1519 -0.0304
  959loPI   C2A15336   9.010   1.266   6.144  0.4179  0.3130 -0.0182
  959loPI   C3A15337   8.671   1.337   6.452  0.2822 -0.0989  0.1225
  959loPI   C4A15338   8.387   1.603   6.730  0.2623 -0.1693  0.3255
  959loPI   C5A15339   7.934   1.722   6.867 -0.0469  0.0121  0.0091
  959loPI   C6A15340   7.649   1.697   7.235  0.2010 -0.0416 -0.0420
  959loPI   C1B15341   9.688   1.296   5.718  0.0114  0.0515 -0.1897
  959loPI   C2B15342   9.553   1.084   6.129 -0.1495 -0.0059  0.2687
  959loPI   C3B15343   9.321   1.020   6.430  0.1807  0.1257 -0.3246
  959loPI   C4B15344   8.899   0.905   6.588  0.1556  0.0806  0.1023
  960loPI    C115345  15.438   1.669   4.057  0.2418 -0.2110  0.3570
  960loPI    C215346  15.527   1.424   3.754 -0.1256 -0.1618  0.2035
  960loPI    C315347  15.594   1.816   3.719 -0.0286 -0.1744  0.2450
  960loPI   PO415348  15.517   1.587   4.289 -0.2033 -0.0465  0.1760
  960loPI   GL115349  15.573   1.334   4.693  0.1984 -0.2728 -0.2352
  960loPI   GL215350  15.826   1.256   4.832  0.0894  0.0814 -0.2849
  960loPI   C1A15351  15.501   1.598   5.109 -0.1111 -0.1395  0.0062
  960loPI   C2A15352  15.619   1.495   5.510  0.0089 -0.2216  0.2392
  960loPI   C3A15353  15.559   1.359   5.994 -0.6323  0.1388  0.1536
  960loPI   C4A15354  15.514   1.177   6.377 -0.2194  0.1642  0.1750
  960loPI   C5A15355  15.669   1.175   6.784 -0.1521 -0.1452  0.0695
  960loPI   C6A15356  15.909   0.994   7.115 -0.2374 -0.1956  0.1048
  960loPI   C1B15357  15.403   1.020   5.006  0.1306 -0.0850  0.1299
  960loPI   C2B15358  15.391   0.972   5.500  0.3732  0.0166  0.0091
  960loPI   C3B15359  15.355   0.944   5.846  0.1105 -0.2908  0.0122
  960loPI   C4B15360  15.130   0.901   6.206 -0.1084  0.0870 -0.1245
  961loPI    C115361   5.000  17.131   4.683  0.0774 -0.1278 -0.2567
  961loPI    C215362   4.714  17.407   4.731  0.4151  0.1187  0.4891
  961loPI    C315363   4.616  17.020   4.707 -0.0161  0.2435  0.0874
  961loPI   PO415364   5.150  17.267   4.854  0.2771  0.1350  0.1961
  961loPI   GL115365   5.466  17.519   5.112 -0.0686 -0.0840  0.1978
  961loPI   GL215366   5.115  17.569   5.224  0.0261  0.0064  0.2216
  961loPI   C1A15367   5.574  17.496   5.496 -0.1544  0.1003 -0.1026
  961loPI   C2A15368   5.522  17.750   5.903 -0.3293  0.0182 -0.3746
  961loPI   C3A15369   5.336  17.864   6.320 -0.1141 -0.0933  0.1752
  961loPI   C4A15370   5.216  18.066   6.711  0.0432 -0.2113 -0.1774
  961loPI   C5A15371   5.192  18.349   7.129  0.1483 -0.2722 -0.2586
  961loPI   C6A15372   5.214  18.478   7.550  0.2957  0.0820  0.1382
  961loPI   C1B15373   5.089  17.589   5.741  0.1480 -0.1669  0.1627
  961loPI   C2B15374   4.833  17.532   5.994 -0.1203 -0.2610 -0.4095
  961loPI   C3B15375   4.873  17.382   6.367  0.3143 -0.0745 -0.0485
  961loPI   C4B15376   4.685  17.250   6.672  0.1092 -0.1331  0.1542
  962loPI    C115377  15.140  12.529   3.619 -0.0293  0.1049  0.0235
  962loPI    C215378  15.298  12.163   3.653  0.0512  0.1578  0.2348
  962loPI    C315379  14.922  12.207   3.525  0.0301 -0.0004  0.2414
  962loPI   PO415380  15.169  12.616   3.863  0.1991 -0.2411 -0.1956
  962loPI   GL115381  15.131  12.485   4.380 -0.3314 -0.1736  0.0295
  962loPI   GL215382  15.197  12.751   4.438 -0.0850 -0.2142  0.1719
  962loPI   C1A15383  15.316  12.145   4.550  0.0620 -0.1376 -0.1412
  962loPI   C2A15384  15.467  11.871   4.830 -0.0214 -0.1722  0.1836
  962loPI   C3A15385  15.432  11.748   5.223  0.1057 -0.0580 -0.1448
  962loPI   C4A15386  15.556  11.587   5.515  0.0336 -0.1625 -0.2773
  962loPI   C5A15387  15.585  11.619   5.883 -0.0698 -0.2108  0.1070
  962loPI   C6A15388  15.263  11.631   6.099  0.2533 -0.0732  0.0719
  962loPI   C1B15389  15.184  12.609   4.852  0.2265  0.1113 -0.0765
  962loPI   C2B15390  15.079  12.681   5.270  0.2077 -0.2162 -0.3662
  962loPI   C3B15391  15.322  12.544   5.671  0.2757  0.0285 -0.1996
  962loPI   C4B15392  15.683  12.500   5.947  0.2824  0.1221 -0.0665
  963loPI    C115393   9.502   2.498   4.437  0.0481 -0.0758  0.2152
  963loPI    C215394   9.830   2.668   4.285  0.0839 -0.1725  0.1842
  963loPI    C315395   9.501   2.632   4.060  0.0870 -0.1738  0.1800
  963loPI   PO415396   9.540   2.584   4.726 -0.3407  0.1616 -0.1867
  963loPI   GL115397   9.380   2.360   5.158  0.2777 -0.0210 -0.1657
  963loPI   GL215398   9.125   2.502   5.358  0.2504  0.1176  0.3223
  963loPI   C1A15399   9.646   2.370   5.537 -0.1767  0.2198 -0.1450
  963loPI   C2A15400   9.732   2.507   5.917  0.2516  0.0487  0.0596
  963loPI   C3A15401   9.729   2.394   6.326 -0.1114 -0.2047 -0.0538
  963loPI   C4A15402   9.882   2.487   6.733  0.0654 -0.3811  0.3460
  963loPI   C5A15403  10.032   2.307   7.218  0.2568  0.0438  0.0436
  963loPI   C6A15404  10.329   2.421   7.460 -0.2603 -0.3158 -0.1242
  963loPI   C1B15405   8.850   2.563   5.627  0.1826 -0.1337  0.0554
  963loPI   C2B15406   8.797   2.793   6.008  0.2406 -0.1243 -0.1990
  963loPI   C3B15407   8.745   2.800   6.458  0.0113 -0.0993  0.0297
  963loPI   C4B15408   8.604   2.753   6.913 -0.4024 -0.0058  0.2926
  964loPI    C115409  11.039   6.333   4.447 -0.0603  0.2248 -0.1402
  964loPI    C215410  10.659   6.229   4.377 -0.0031 -0.1478  0.0746
  964loPI    C315411  10.951   6.098   4.136  0.0072  0.0105 -0.0000
  964loPI   PO415412  10.878   6.483   4.832 -0.2896  0.0707  0.2376
  964loPI   GL115413  10.548   6.393   5.162 -0.4170  0.2860  0.1757
  964loPI   GL215414  10.344   6.618   5.152 -0.0810  0.0023 -0.0288
  964loPI   C1A15415  10.821   6.472   5.517  0.0709  0.0483  0.2668
  964loPI   C2A15416  11.095   6.203   5.748 -0.0429  0.2069 -0.0210
  964loPI   C3A15417  11.097   6.218   6.204  0.1658  0.0404  0.0912
  964loPI   C4A15418  11.077   6.128   6.639  0.0114 -0.2545 -0.2117
  964loPI   C5A15419  11.126   6.329   7.047  0.2649 -0.0959  0.0428
  964loPI   C6A15420  11.050   6.321   7.484 -0.1655 -0.0152  0.2716
  964loPI   C1B15421  10.225   6.571   5.560  0.0149  0.1856  0.0121
  964loPI   C2B15422  10.100   6.272   5.833  0.2476 -0.3207 -0.4037
  964loPI   C3B15423  10.085   6.223   6.327  0.0695 -0.1466  0.1250
  964loPI   C4B15424   9.705   6.081   6.539  0.0645  0.1349  0.2653
  965loPI    C115425   0.422  10.889   4.060  0.0380 -0.1195  0.0390
  965loPI    C215426   0.083  10.951   3.858  0.0533 -0.1552  0.0023
  965loPI    C315427   0.183  10.581   3.972 -0.1227 -0.0930  0.3709
  965loPI   PO415428   0.432  11.078   4.215 -0.4643  0.0220  0.3754
  965loPI   GL115429   0.437  11.122   4.614 -0.3158 -0.3852 -0.0964
  965loPI   GL215430   0.189  11.332   4.814  0.3105  0.1153  0.1349
  965loPI   C1A15431   0.597  11.134   4.923 -0.1553 -0.0670 -0.2673
  965loPI   C2A15432   0.945  11.060   5.073  0.1119 -0.1423 -0.3738
  965loPI   C3A15433   0.755  10.704   5.380  0.1797 -0.0782  0.0373
  965loPI   C4A15434   0.879  10.424   5.744  0.1671 -0.0055 -0.0497
  965loPI   C5A15435   0.807  10.247   6.223  0.0454 -0.0936 -0.1119
  965loPI   C6A15436   0.564   9.843   6.343 -0.2083 -0.1602 -0.0374
  965loPI   C1B15437  -0.129  11.132   5.138 -0.1244  0.0931 -0.1601
  965loPI   C2B15438  -0.266  11.333   5.573 -0.2246 -0.1202 -0.1029
  965loPI   C3B15439  -0.341  11.241   5.991  0.0448 -0.1614 -0.2285
  965loPI   C4B15440  -0.595  11.021   6.273 -0.1459 -0.2259  0.0051
  966loPI    C115441   5.762  18.378   4.635 -0.1157  0.0814  0.1731
  966loPI    C215442   6.056  18.645   4.591 -0.0704  0.0292  0.1590
  966loPI    C315443   5.712  18.691   4.391 -0.0244  0.0218  0.0779
  966loPI   PO415444   5.770  18.330   4.903  0.0803 -0.0681 -0.0979
  966loPI   GL115445   5.547  18.454   5.251 -0.2686  0.0280  0.3227
  966loPI   GL215446   5.935  18.573   5.503  0.3128 -0.1020  0.1288
  966loPI   C1A15447   5.503  18.483   5.669  0.0630  0.1931 -0.0034
  966loPI   C2A15448   5.411  18.214   5.962 -0.0673  0.3849 -0.3392
  966loPI   C3A15449   5.523  18.371   6.481 -0.1075 -0.0221  0.1478
  966loPI   C4A15450   5.576  18.395   6.881 -0.0659  0.1427  0.2339
  966loPI   C5A15451   5.946  18.075   7.062 -0.2277 -0.2017 -0.0869
  966loPI   C6A15452   6.318  18.077   7.425  0.3144 -0.1129  0.1184
  966loPI   C1B15453   5.819  18.774   5.837 -0.0430  0.1579 -0.2714
  966loPI   C2B15454   5.837  18.581   6.188  0.0303 -0.0059  0.1193
  966loPI   C3B15455   5.722  18.822   6.584  0.2045 -0.1500  0.2650
  966loPI   C4B15456   5.436  19.207   6.661  0.0972 -0.0302  0.0381
  967loPI    C115457   4.984   8.603   3.994  0.0047 -0.1563  0.3907
  967loPI    C215458   5.263   8.343   3.875 -0.0723 -0.1439  0.1790
  967loPI    C315459   5.256   8.713   3.722 -0.3163 -0.2029  0.0415
  967loPI   PO415460   4.961   8.708   4.287  0.0020 -0.5860 -0.1330
  967loPI   GL115461   4.784   8.735   4.798 -0.0453 -0.0910  0.0557
  967loPI   GL215462   4.925   8.458   4.954  0.1048 -0.1215 -0.0256
  967loPI   C1A15463   4.428   8.346   4.992  0.0118  0.1554 -0.1546
  967loPI   C2A15464   4.288   8.377   5.446 -0.3964 -0.1854 -0.0003
  967loPI   C3A15465   4.432   8.428   5.745  0.2001 -0.1609 -0.2286
  967loPI   C4A15466   4.641   8.487   6.190  0.0968  0.1192 -0.2794
  967loPI   C5A15467   4.672   8.550   6.682  0.1461 -0.0653  0.0729
  967loPI   C6A15468   5.069   8.452   6.959  0.3182  0.0556  0.0530
  967loPI   C1B15469   4.803   8.688   5.354  0.2316  0.1072 -0.0127
  967loPI   C2B15470   4.803   8.778   5.788  0.3547 -0.2980 -0.2394
  967loPI   C3B15471   4.776   8.974   6.276  0.3313  0.2739 -0.2615
  967loPI   C4B15472   4.526   9.087   6.588  0.3905  0.0337  0.0349
  968loPI    C115473  17.996  10.905   3.832  0.0253 -0.0719 -0.0447
  968loPI    C215474  18.316  11.074   4.001  0.0688 -0.1348 -0.0637
  968loPI    C315475  18.299  11.031   3.604  0.1582 -0.3780 -0.0427
  968loPI   PO415476  17.743  11.098   3.942 -0.1917 -0.0715  0.1425
  968loPI   GL115477  17.576  11.360   4.283  0.0850 -0.1464 -0.1240
  968loPI   GL215478  17.537  11.024   4.357  0.1334 -0.0681  0.2654
  968loPI   C1A15479  17.556  11.402   4.683 -0.2291  0.2171  0.1385
  968loPI   C2A15480  17.326  11.324   5.096  0.0513 -0.0769  0.2559
  968loPI   C3A15481  17.134  11.509   5.449 -0.2382  0.0614 -0.0556
  968loPI   C4A15482  16.814  11.658   5.784 -0.2557 -0.3152  0.0338
  968loPI   C5A15483  16.555  11.644   6.206  0.1840 -0.2050 -0.0102
  968loPI   C6A15484  16.494  11.500   6.622 -0.3278  0.0025 -0.4615
  968loPI   C1B15485  17.780  10.994   4.738  0.0735  0.2606  0.0133
  968loPI   C2B15486  17.770  11.146   5.039  0.1821  0.0936  0.1626
  968loPI   C3B15487  17.692  11.068   5.437 -0.1975 -0.1985 -0.0615
  968loPI   C4B15488  17.622  11.419   5.722 -0.1160  0.0897 -0.2446
  969loPI    C115489   3.020  12.939   4.573  0.2654  0.2586 -0.3690
  969loPI    C215490   2.658  12.813   4.457  0.0414  0.1953  0.3474
  969loPI    C315491   2.762  13.196   4.407 -0.1036  0.2045  0.0990
  969loPI   PO415492   3.068  12.860   4.805 -0.0131  0.0100  0.4583
  969loPI   GL115493   2.999  12.741   5.189 -0.1434  0.0451  0.0098
  969loPI   GL215494   3.044  12.938   5.331 -0.2102 -0.1425  0.1046
  969loPI   C1A15495   2.784  12.539   5.544  0.2235 -0.0404 -0.2482
  969loPI   C2A15496   3.010  12.491   5.908 -0.5802 -0.3461 -0.2758
  969loPI   C3A15497   3.240  12.233   6.275  0.0025  0.1776 -0.0238
  969loPI   C4A15498   3.254  12.140   6.734  0.2495 -0.0233  0.5544
  969loPI   C5A15499   3.724  12.091   6.784 -0.0218  0.0910 -0.1205
  969loPI   C6A15500   3.973  12.356   7.055 -0.1775  0.3308 -0.1456
  969loPI   C1B15501   2.930  13.073   5.726 -0.0984  0.0865  0.0653
  969loPI   C2B15502   2.973  12.997   6.110 -0.0689 -0.1719  0.4644
  969loPI   C3B15503   3.288  12.735   6.281  0.1683  0.1165 -0.1890
  969loPI   C4B15504   3.707  12.652   6.111 -0.3155  0.1861  0.0240
  970loPI    C115505   2.304   4.217   4.392  0.0621  0.1485 -0.1724
  970loPI    C215506   2.315   3.882   4.173 -0.0373 -0.0886  0.1760
  970loPI    C315507   2.267   4.237   3.994  0.3873 -0.2246 -0.2270
  970loPI   PO415508   2.194   4.120   4.607  0.2612  0.0192  0.2543
  970loPI   GL115509   1.969   4.183   4.971 -0.3631  0.0561  0.1368
  970loPI   GL215510   2.186   4.304   5.123 -0.3450 -0.2020  0.1217
  970loPI   C1A15511   1.759   3.939   5.144  0.2073  0.2323  0.1898
  970loPI   C2A15512   1.926   3.856   5.648 -0.1269  0.2281 -0.0424
  970loPI   C3A15513   1.992   3.686   6.100  0.2257  0.2772  0.0892
  970loPI   C4A15514   1.903   3.738   6.563  0.3750 -0.3891 -0.2337
  970loPI   C5A15515   2.024   4.053   6.824  0.1066 -0.0396  0.0378
  970loPI   C6A15516   2.170   4.377   7.137  0.1772 -0.0204  0.1212
  970loPI   C1B15517   1.957   4.341   5.440 -0.3136  0.2465  0.1139
  970loPI   C2B15518   1.595   4.358   5.738 -0.0929  0.1404  0.1166
  970loPI   C3B15519   1.273   4.311   6.048 -0.2088  0.0074  0.1277
  970loPI   C4B15520   1.231   4.104   6.485 -0.0985  0.3397  0.0970
  971loPI    C115521  18.922  14.360   3.966  0.1167 -0.0783  0.1877
  971loPI    C215522  19.027  14.522   3.616  0.0056 -0.0457  0.1689
  971loPI    C315523  18.938  14.133   3.637 -0.1778 -0.0072  0.1213
  971loPI   PO415524  19.074  14.487   4.289  0.1098  0.4251 -0.0677
  971loPI   GL115525  19.282  14.532   4.633  0.0673  0.0375  0.1273
  971loPI   GL215526  19.207  14.903   4.495  0.2418  0.1638  0.0692
  971loPI   C1A15527  19.156  14.507   5.062  0.0870 -0.2613  0.1598
  971loPI   C2A15528  18.903  14.563   5.405 -0.3109  0.1606 -0.1404
  971loPI   C3A15529  18.704  14.442   5.806 -0.0422  0.0320 -0.0354
  971loPI   C4A15530  18.546  14.476   6.241 -0.1086 -0.0839 -0.0227
  971loPI   C5A15531  18.267  14.852   6.234 -0.0834  0.0721  0.1697
  971loPI   C6A15532  18.012  15.184   6.373 -0.4200  0.0792  0.1527
  971loPI   C1B15533  18.935  14.858   4.857  0.1920  0.2312 -0.1830
  971loPI   C2B15534  18.574  14.669   5.007 -0.2108 -0.1793  0.0028
  971loPI   C3B15535  18.419  14.755   5.417  0.2562  0.1440 -0.1401
  971loPI   C4B15536  18.582  14.904   5.787  0.0418  0.1271  0.2455
  972loPI    C115537  17.245  11.229   3.919  0.4398  0.1244 -0.0970
  972loPI    C215538  17.020  11.149   3.598  0.0127  0.1299  0.1929
  972loPI    C315539  17.407  11.238   3.554 -0.0358  0.1148 -0.3162
  972loPI   PO415540  17.100  11.032   4.088  0.3918  0.1064  0.1057
  972loPI   GL115541  16.863  10.794   4.411  0.0451  0.1230  0.0085
  972loPI   GL215542  16.779  10.549   4.453 -0.2115 -0.0774  0.4164
  972loPI   C1A15543  16.664  10.905   4.917  0.1763 -0.0633 -0.0569
  972loPI   C2A15544  16.760  10.961   5.321 -0.0947  0.2615  0.0490
  972loPI   C3A15545  17.202  10.964   5.443 -0.2236 -0.1438 -0.2116
  972loPI   C4A15546  17.438  10.924   5.830 -0.1126  0.0938 -0.2452
  972loPI   C5A15547  17.447  10.812   6.220  0.1090 -0.2520  0.0836
  972loPI   C6A15548  17.435  10.546   6.497  0.4994 -0.0717 -0.2107
  972loPI   C1B15549  16.908  10.405   4.861  0.2262  0.1170 -0.0105
  972loPI   C2B15550  17.038  10.555   5.256  0.3281  0.0929 -0.2126
  972loPI   C3B15551  17.365  10.450   5.612  0.3975  0.4008  0.2112
  972loPI   C4B15552  17.512  10.252   5.995 -0.1860 -0.0351 -0.2232
  973loPI    C115553  14.334  14.937   4.272 -0.0971 -0.0980 -0.3259
  973loPI    C215554  14.393  14.589   4.459  0.0399 -0.0936 -0.3602
  973loPI    C315555  14.474  14.623   4.069  0.1492  0.0115 -0.3289
  973loPI   PO415556  14.141  15.075   4.437 -0.1201  0.0829  0.1927
  973loPI   GL115557  13.861  15.116   4.809 -0.0925 -0.0516  0.4807
  973loPI   GL215558  14.134  14.879   4.934  0.5879  0.0943 -0.0180
  973loPI   C1A15559  13.987  15.303   5.249  0.1361  0.3271 -0.0633
  973loPI   C2A15560  14.258  15.215   5.627 -0.0640 -0.0492  0.2383
  973loPI   C3A15561  14.438  15.139   6.009 -0.0509 -0.0172 -0.0620
  973loPI   C4A15562  14.362  15.187   6.448 -0.0479 -0.2488 -0.1680
  973loPI   C5A15563  14.077  14.997   6.755 -0.0608 -0.0012  0.3754
  973loPI   C6A15564  13.742  14.611   6.846  0.2503  0.0331  0.3068
  973loPI   C1B15565  14.270  14.790   5.363 -0.0266  0.4953 -0.0904
  973loPI   C2B15566  14.357  14.699   5.743 -0.1435  0.0753  0.1240
  973loPI   C3B15567  14.752  14.672   6.026  0.0014 -0.1297 -0.0738
  973loPI   C4B15568  14.915  14.423   6.337  0.4760 -0.0006 -0.1834
  974loPI    C115569  19.671  16.496   4.506 -0.0679 -0.0119 -0.4019
  974loPI    C215570  19.300  16.346   4.503 -0.1353  0.1429 -0.1127
  974loPI    C315571  19.591  16.163   4.299 -0.2871 -0.1938 -0.0348
  974loPI   PO415572  19.713  16.523   4.684 -0.1828 -0.1324 -0.2721
  974loPI   GL115573  19.967  16.535   5.018  0.0174  0.0207  0.0930
  974loPI   GL215574  19.697  16.532   5.236  0.0779 -0.0398 -0.1725
  974loPI   C1A15575  20.083  16.646   5.454  0.0882  0.1822  0.1148
  974loPI   C2A15576  20.180  16.528   5.902  0.1430  0.0283 -0.0201
  974loPI   C3A15577  20.238  16.540   6.327  0.0273 -0.0177 -0.0516
  974loPI   C4A15578  20.046  16.439   6.809 -0.2551 -0.0675  0.2080
  974loPI   C5A15579  19.931  16.531   7.259 -0.0856  0.1202 -0.1640
  974loPI   C6A15580  19.642  16.670   7.525 -0.0547 -0.1248 -0.0733
  974loPI   C1B15581  19.631  16.767   5.617  0.3597  0.0696 -0.1287
  974loPI   C2B15582  19.762  16.700   6.100 -0.3998  0.1033 -0.0490
  974loPI   C3B15583  19.723  16.485   6.475 -0.1151 -0.1675  0.0458
  974loPI   C4B15584  19.590  16.543   6.890 -0.2198 -0.0657 -0.3079
  975loPI    C115585   9.269   6.885   4.350 -0.2490  0.1082 -0.1162
  975loPI    C215586   9.067   6.541   4.320 -0.1475  0.0476 -0.1084
  975loPI    C315587   9.218   6.713   3.992 -0.0204 -0.0230 -0.0876
  975loPI   PO415588   9.156   6.939   4.625 -0.0767  0.2093 -0.0075
  975loPI   GL115589   8.867   6.744   4.947 -0.0575  0.0520 -0.0427
  975loPI   GL215590   9.198   6.799   5.104  0.3426  0.0754 -0.0981
  975loPI   C1A15591   8.819   6.573   5.324 -0.0379  0.0818 -0.3174
  975loPI   C2A15592   8.782   6.614   5.837 -0.0800  0.3401  0.0410
  975loPI   C3A15593   8.736   6.681   6.287  0.0536  0.1310 -0.2759
  975loPI   C4A15594   8.938   6.942   6.560  0.1717 -0.2985 -0.0666
  975loPI   C5A15595   9.115   6.765   7.024  0.0893 -0.2282 -0.1315
  975loPI   C6A15596   9.580   6.726   7.167  0.0216 -0.1359 -0.0859
  975loPI   C1B15597   9.235   6.712   5.589 -0.1489 -0.1440 -0.0599
  975loPI   C2B15598   9.252   6.430   5.905 -0.0909  0.2019 -0.0871
  975loPI   C3B15599   9.201   6.298   6.270 -0.2315  0.0287 -0.2474
  975loPI   C4B15600   8.910   6.096   6.387 -0.0747  0.2375  0.3133
  976loPI    C115601  18.259   9.481   3.808 -0.2589 -0.1108  0.1177
  976loPI    C215602  18.360   9.102   3.729  0.0227 -0.0029 -0.0601
  976loPI    C315603  18.328   9.366   3.431 -0.1848  0.1125  0.0616
  976loPI   PO415604  18.251   9.449   4.140  0.1857 -0.0682  0.1063
  976loPI   GL115605  18.496   9.440   4.556 -0.4192  0.3141 -0.0933
  976loPI   GL215606  18.724   9.608   4.427  0.1875  0.0255  0.0377
  976loPI   C1A15607  18.403   9.219   4.871 -0.0220  0.0752 -0.1271
  976loPI   C2A15608  18.445   9.207   5.306 -0.0091 -0.0626  0.2840
  976loPI   C3A15609  18.439   9.316   5.754  0.3397  0.2013 -0.0796
  976loPI   C4A15610  18.368   9.279   6.184  0.1585 -0.1118  0.2238
  976loPI   C5A15611  18.731   9.337   6.458  0.2084  0.1176  0.1150
  976loPI   C6A15612  18.894   9.470   6.924 -0.0289  0.3271  0.1282
  976loPI   C1B15613  18.678   9.795   4.841  0.3239  0.1655 -0.1230
  976loPI   C2B15614  18.643   9.656   5.235  0.2335  0.1615 -0.0847
  976loPI   C3B15615  18.858   9.567   5.656 -0.0721 -0.2588  0.2406
  976loPI   C4B15616  19.174   9.482   6.030 -0.4499  0.0808  0.1419
  977loPI    C115617   0.329   3.718   4.545 -0.1988  0.1952  0.0798
  977loPI    C215618   0.022   3.673   4.293  0.0215 -0.2174 -0.1268
  977loPI    C315619   0.396   3.688   4.151  0.1127  0.1060  0.1362
  977loPI   PO415620   0.331   3.861   4.805 -0.0952 -0.2447  0.1528
  977loPI   GL115621   0.369   3.600   5.290 -0.2722  0.4186  0.1776
  977loPI   GL215622  -0.005   3.609   5.215 -0.1150 -0.2248  0.0884
  977loPI   C1A15623   0.120   3.592   5.721  0.1473  0.2218 -0.2036
  977loPI   C2A15624   0.125   3.413   6.126 -0.1665 -0.3835 -0.4112
  977loPI   C3A15625  -0.011   3.231   6.412  0.2100  0.2197 -0.0051
  977loPI   C4A15626  -0.177   2.787   6.426  0.2676 -0.1188  0.0146
  977loPI   C5A15627  -0.219   2.582   6.716 -0.1895  0.1661 -0.0383
  977loPI   C6A15628  -0.397   2.530   7.128 -0.3877  0.1445 -0.1831
  977loPI   C1B15629  -0.250   3.817   5.416 -0.0724  0.3154 -0.3097
  977loPI   C2B15630  -0.229   4.243   5.615 -0.1529  0.2090  0.1355
  977loPI   C3B15631  -0.230   4.332   6.052  0.0969 -0.2361 -0.0676
  977loPI   C4B15632  -0.134   4.359   6.530  0.0655 -0.1517 -0.1768
  978loPI    C115633   3.988  15.146   4.718  0.0135 -0.0851  0.1361
  978loPI    C215634   4.246  14.977   4.463  0.0410  0.1454  0.0086
  978loPI    C315635   3.871  14.841   4.488  0.1295 -0.0907  0.0837
  978loPI   PO415636   4.073  15.186   4.895 -0.2165  0.0638 -0.1031
  978loPI   GL115637   3.911  15.382   5.258 -0.2771 -0.1754 -0.1698
  978loPI   GL215638   3.837  15.684   5.260 -0.1331 -0.3889  0.0222
  978loPI   C1A15639   4.027  15.189   5.718  0.0781 -0.2752 -0.0992
  978loPI   C2A15640   3.921  14.961   6.044 -0.0129 -0.0262  0.0153
  978loPI   C3A15641   3.849  14.895   6.517 -0.0250 -0.0596  0.3372
  978loPI   C4A15642   3.806  15.216   6.688 -0.2103 -0.0780  0.0447
  978loPI   C5A15643   3.660  15.391   6.995  0.0783 -0.0743 -0.1738
  978loPI   C6A15644   3.479  15.157   7.258  0.0132 -0.0987  0.2583
  978loPI   C1B15645   3.573  15.433   5.565  0.1055  0.2691 -0.0892
  978loPI   C2B15646   3.384  15.230   5.858 -0.0135 -0.0765 -0.1721
  978loPI   C3B15647   3.009  15.208   6.183  0.1049  0.1935  0.1612
  978loPI   C4B15648   2.875  14.931   6.641  0.0907 -0.3031  0.0033
  979loPI    C115649   2.553   0.624   4.556 -0.0953  0.0729 -0.0830
  979loPI    C215650   2.719   0.864   4.282 -0.0458 -0.0446 -0.1568
  979loPI    C315651   2.848   0.488   4.322  0.0567  0.0189  0.1367
  979loPI   PO415652   2.559   0.737   4.790  0.0642  0.4727  0.0515
  979loPI   GL115653   2.369   1.070   4.996 -0.0024  0.0141  0.0659
  979loPI   GL215654   2.312   1.445   4.977 -0.1031 -0.2353  0.0805
  979loPI   C1A15655   2.013   1.052   5.211 -0.0203 -0.1580  0.4034
  979loPI   C2A15656   1.801   0.923   5.570 -0.3249  0.1249  0.1911
  979loPI   C3A15657   1.898   0.757   5.982 -0.0558  0.0645 -0.1040
  979loPI   C4A15658   1.890   0.652   6.459 -0.3602 -0.1765 -0.0158
  979loPI   C5A15659   2.065   0.910   6.832  0.0280 -0.3535  0.1702
  979loPI   C6A15660   2.259   1.233   6.953  0.2767 -0.1203 -0.2337
  979loPI   C1B15661   2.546   1.407   5.378 -0.0253  0.0281 -0.0318
  979loPI   C2B15662   2.668   1.447   5.789  0.0148  0.1745  0.4461
  979loPI   C3B15663   2.535   1.481   6.249 -0.1151  0.0483 -0.2545
  979loPI   C4B15664   2.566   1.755   6.744  0.0526 -0.2891 -0.3003
  980loPI    C115665  16.292  18.066   4.008 -0.1388  0.0737  0.1574
  980loPI    C215666  16.538  18.200   3.723 -0.1475  0.2888  0.2492
  980loPI    C315667  16.501  17.807   3.786 -0.0849  0.2426  0.0087
  980loPI   PO415668  16.407  18.244   4.249  0.0699  0.0391  0.4004
  980loPI   GL115669  16.301  18.236   4.719 -0.0847 -0.3620 -0.1129
  980loPI   GL215670  16.597  18.192   4.708 -0.0456 -0.0562 -0.1217
  980loPI   C1A15671  15.955  18.358   4.978 -0.1282 -0.3094  0.0727
  980loPI   C2A15672  15.748  18.500   5.392 -0.0157 -0.0617  0.0676
  980loPI   C3A15673  15.921  18.436   5.791  0.1398 -0.2679  0.3159
  980loPI   C4A15674  15.897  18.032   5.951 -0.1621 -0.4084  0.1011
  980loPI   C5A15675  15.694  17.789   6.110 -0.0609  0.1577  0.1683
  980loPI   C6A15676  15.427  17.468   6.320 -0.2350 -0.0865 -0.1895
  980loPI   C1B15677  16.581  17.992   5.079  0.1679 -0.0030  0.3795
  980loPI   C2B15678  16.797  17.955   5.479 -0.3083 -0.3624  0.2048
  980loPI   C3B15679  16.921  17.945   5.897  0.1236 -0.0150 -0.0511
  980loPI   C4B15680  16.934  18.050   6.318  0.0410  0.1869 -0.0900
  981loPI    C115681  19.320   0.366   4.151  0.1550  0.0458 -0.0196
  981loPI    C215682  19.212   0.488   3.786  0.0822 -0.0114 -0.0174
  981loPI    C315683  19.490   0.204   3.828 -0.1355 -0.2311 -0.0391
  981loPI   PO415684  19.135   0.505   4.285 -0.0145 -0.0597  0.2410
  981loPI   GL115685  19.185   0.637   4.783 -0.2309 -0.0357 -0.1552
  981loPI   GL215686  19.078   0.350   4.783  0.1702  0.1089  0.2878
  981loPI   C1A15687  19.295   0.707   5.332  0.1139  0.1816  0.1768
  981loPI   C2A15688  19.290   0.750   5.732  0.2715 -0.1804  0.0118
  981loPI   C3A15689  19.102   0.358   6.035  0.0308  0.1851 -0.0547
  981loPI   C4A15690  19.053   0.166   6.392 -0.1337 -0.1323  0.0233
  981loPI   C5A15691  19.257   0.129   6.772 -0.3210  0.0018  0.1279
  981loPI   C6A15692  19.656   0.068   6.988 -0.1016  0.1189 -0.0467
  981loPI   C1B15693  19.128   0.161   5.135 -0.4062  0.0670  0.1802
  981loPI   C2B15694  19.171   0.092   5.554 -0.1646  0.0086  0.0435
  981loPI   C3B15695  19.146  -0.154   5.903 -0.2155 -0.0848  0.0677
  981loPI   C4B15696  18.899  -0.348   6.233  0.0574 -0.0303  0.0374
  982loPI    C115697  16.386   6.682   4.073 -0.1516  0.0297  0.1984
  982loPI    C215698  16.356   6.407   3.784 -0.1721  0.0168  0.2128
  982loPI    C315699  16.393   6.794   3.689 -0.1628  0.0110  0.1927
  982loPI   PO415700  16.563   6.479   4.226  0.0364 -0.0514 -0.1009
  982loPI   GL115701  16.755   6.552   4.582  0.2454  0.1038  0.0254
  982loPI   GL215702  17.108   6.310   4.614 -0.0818 -0.0010 -0.0942
  982loPI   C1A15703  16.664   6.400   5.083 -0.0051 -0.0324 -0.5142
  982loPI   C2A15704  16.832   6.195   5.447 -0.2471  0.0674  0.2521
  982loPI   C3A15705  16.948   5.997   5.797 -0.0483  0.1615  0.2772
  982loPI   C4A15706  17.187   5.712   5.988  0.1015  0.0739 -0.0589
  982loPI   C5A15707  17.129   5.727   6.332 -0.1594  0.0692 -0.2278
  982loPI   C6A15708  17.443   5.544   6.675 -0.2171  0.0593 -0.1918
  982loPI   C1B15709  17.085   6.459   4.955 -0.1631  0.3045  0.1335
  982loPI   C2B15710  17.126   6.617   5.370  0.1480 -0.2601 -0.0807
  982loPI   C3B15711  17.171   6.450   5.771 -0.0182 -0.1938  0.1980
  982loPI   C4B15712  16.904   6.319   6.202  0.0153  0.1304  0.5287
  983loPI    C115713  10.384   9.086   4.444  0.0834  0.2386 -0.0278
  983loPI    C215714  10.180   8.823   4.221  0.3374  0.1282 -0.1342
  983loPI    C315715  10.177   9.212   4.126 -0.0196  0.1641  0.0091
  983loPI   PO415716  10.338   9.122   4.674  0.0591 -0.0043  0.0732
  983loPI   GL115717  10.602   9.300   4.976 -0.1102  0.3431 -0.1267
  983loPI   GL215718  10.851   9.167   4.745  0.0537 -0.0130 -0.3536
  983loPI   C1A15719  10.667   9.349   5.292  0.0213  0.0866 -0.2035
  983loPI   C2A15720  10.778   9.421   5.709  0.0225  0.0897 -0.2323
  983loPI   C3A15721  11.090   9.455   5.996  0.2898  0.2550  0.1611
  983loPI   C4A15722  11.476   9.293   6.280 -0.2294 -0.2643 -0.1986
  983loPI   C5A15723  11.774   9.032   6.608  0.1995 -0.0713  0.2224
  983loPI   C6A15724  12.175   9.023   6.755  0.3512 -0.0548 -0.2136
  983loPI   C1B15725  11.030   8.979   5.093  0.0416  0.1044 -0.1506
  983loPI   C2B15726  11.137   9.156   5.545  0.0915  0.1984  0.1090
  983loPI   C3B15727  11.178   8.908   5.935  0.0796 -0.0283  0.0006
  983loPI   C4B15728  11.344   8.836   6.336  0.0700 -0.0120  0.1190
  984loPI    C115729   7.076  16.152   4.736 -0.2813  0.1882  0.2358
  984loPI    C215730   6.849  15.858   4.586  0.0151  0.0422  0.0647
  984loPI    C315731   7.005  16.134   4.343 -0.1767  0.2853  0.2122
  984loPI   PO415732   6.937  16.245   4.894  0.1320  0.3059 -0.2119
  984loPI   GL115733   6.722  16.414   5.178  0.1499  0.0512  0.1865
  984loPI   GL215734   6.960  16.651   5.346  0.3350 -0.2461  0.1041
  984loPI   C1A15735   6.727  16.278   5.607 -0.0476 -0.2246 -0.0316
  984loPI   C2A15736   6.831  16.343   6.091  0.2198 -0.1314 -0.0943
  984loPI   C3A15737   6.748  16.195   6.614  0.1678 -0.2380  0.2401
  984loPI   C4A15738   6.692  16.267   7.124  0.0855 -0.0655  0.0099
  984loPI   C5A15739   6.434  16.652   7.321 -0.0364  0.2050 -0.0308
  984loPI   C6A15740   6.277  16.653   7.661 -0.1466 -0.0630  0.0486
  984loPI   C1B15741   7.059  16.649   5.756  0.1161  0.3474 -0.0722
  984loPI   C2B15742   7.102  16.720   6.223  0.2050 -0.0836  0.1814
  984loPI   C3B15743   6.867  16.656   6.609 -0.2338 -0.0527 -0.0089
  984loPI   C4B15744   6.519  16.673   6.844 -0.2305  0.2018 -0.0606
  985loPI    C115745  13.951  18.828   4.504  0.2351  0.1887 -0.0852
  985loPI    C215746  13.969  18.526   4.242  0.1453 -0.0530  0.1830
  985loPI    C315747  14.218  18.535   4.555  0.0834  0.1010  0.2289
  985loPI   PO415748  13.598  18.851   4.521 -0.1436 -0.3021 -0.1306
  985loPI   GL115749  13.462  18.880   4.966  0.0113  0.1233 -0.0766
  985loPI   GL215750  13.672  19.161   4.967 -0.0919 -0.0356  0.2655
  985loPI   C1A15751  13.626  18.777   5.371  0.1216  0.0527  0.1718
  985loPI   C2A15752  13.915  18.998   5.602 -0.1149 -0.1292 -0.0490
  985loPI   C3A15753  14.010  19.118   6.007  0.0977 -0.0996  0.1297
  985loPI   C4A15754  14.016  19.278   6.378  0.1111  0.0438  0.1482
  985loPI   C5A15755  13.763  19.321   6.699  0.1556 -0.1631  0.0652
  985loPI   C6A15756  13.547  19.431   7.018  0.1422  0.1060  0.2062
  985loPI   C1B15757  13.683  19.324   5.347  0.0692 -0.1218  0.0737
  985loPI   C2B15758  13.540  19.430   5.837 -0.1567  0.1138  0.0966
  985loPI   C3B15759  13.684  19.598   6.326 -0.3353 -0.1378  0.0684
  985loPI   C4B15760  13.950  19.812   6.615 -0.2406 -0.1664 -0.1988
  986loPI    C115761  10.445   0.951   4.647 -0.0661 -0.2075 -0.1035
  986loPI    C215762  10.299   1.078   4.297  0.1075  0.0319 -0.0913
  986loPI    C315763  10.118   1.181   4.638  0.0692 -0.0123 -0.0983
  986loPI   PO415764  10.690   1.011   4.642  0.2140 -0.1312  0.0798
  986loPI   GL115765  10.933   0.960   4.983  0.2671 -0.2082 -0.4261
  986loPI   GL215766  11.223   0.627   5.083  0.0601 -0.3297 -0.0809
  986loPI   C1A15767  11.017   0.990   5.406 -0.2466  0.0452 -0.0130
  986loPI   C2A15768  11.368   1.180   5.584 -0.2061  0.0253  0.2454
  986loPI   C3A15769  11.678   1.154   6.000 -0.0029  0.1962 -0.2371
  986loPI   C4A15770  12.002   0.855   6.169 -0.2268 -0.1109 -0.0595
  986loPI   C5A15771  12.223   0.577   6.250  0.0381 -0.2164 -0.4654
  986loPI   C6A15772  12.267   0.461   6.648  0.2007  0.2606  0.2587
  986loPI   C1B15773  11.356   0.662   5.424 -0.3408 -0.2815 -0.1175
  986loPI   C2B15774  11.492   0.696   5.865 -0.2025  0.1188  0.0055
  986loPI   C3B15775  11.564   0.776   6.325 -0.0949 -0.0620 -0.1662
  986loPI   C4B15776  11.809   0.725   6.676 -0.0581  0.0264 -0.1089
  987loPI    C115777  11.113   5.586   4.855  0.3187  0.1778 -0.1612
  987loPI    C215778  10.941   5.800   4.564  0.2217  0.0445 -0.2031
  987loPI    C315779  11.149   5.471   4.473  0.1255 -0.0411 -0.1157
  987loPI   PO415780  10.958   5.567   5.032 -0.0425 -0.0686  0.1001
  987loPI   GL115781  10.864   5.805   5.495 -0.0015 -0.2013 -0.0751
  987loPI   GL215782  10.926   5.505   5.475  0.2027  0.3587 -0.2072
  987loPI   C1A15783  10.925   5.774   5.977 -0.1028  0.3260  0.2978
  987loPI   C2A15784  10.840   5.762   6.446 -0.1481  0.0166 -0.2212
  987loPI   C3A15785  10.781   5.648   6.858 -0.4353 -0.0890 -0.1485
  987loPI   C4A15786  10.606   5.254   6.982  0.0665  0.2642  0.0406
  987loPI   C5A15787  10.611   4.868   7.238  0.0114 -0.0801  0.1820
  987loPI   C6A15788  10.869   4.614   7.248 -0.2004 -0.1036 -0.0295
  987loPI   C1B15789  11.208   5.354   5.733 -0.1604  0.1660 -0.1033
  987loPI   C2B15790  11.064   4.884   6.004 -0.2000 -0.0026  0.2653
  987loPI   C3B15791  11.015   4.801   6.441 -0.2064  0.1424  0.0247
  987loPI   C4B15792  11.081   4.567   6.822  0.0030 -0.0521  0.0540
  988loPI    C115793  11.390   6.030   4.626 -0.1493  0.0096 -0.0214
  988loPI    C215794  11.620   5.722   4.735  0.0658  0.1454 -0.0845
  988loPI    C315795  11.705   5.927   4.403 -0.1430  0.2030 -0.1041
  988loPI   PO415796  11.346   6.205   4.848 -0.0954 -0.0661 -0.1183
  988loPI   GL115797  11.588   6.063   5.186 -0.4621  0.1597  0.2075
  988loPI   GL215798  11.356   6.018   5.393 -0.0986  0.4069  0.1673
  988loPI   C1A15799  11.700   6.269   5.642  0.1812 -0.1062  0.0293
  988loPI   C2A15800  11.574   6.323   6.066 -0.1668  0.3011  0.1832
  988loPI   C3A15801  11.348   6.556   6.454  0.1316 -0.1248 -0.0144
  988loPI   C4A15802  11.123   6.743   6.723  0.0782 -0.0622 -0.1021
  988loPI   C5A15803  10.755   6.689   7.018 -0.3937  0.2523 -0.0309
  988loPI   C6A15804  10.352   6.465   6.967  0.0517 -0.0924 -0.0334
  988loPI   C1B15805  11.478   5.784   5.758  0.0713  0.0355  0.0933
  988loPI   C2B15806  11.414   5.856   6.207  0.1431  0.1411  0.1611
  988loPI   C3B15807  11.552   6.048   6.516  0.0007 -0.1714  0.0574
  988loPI   C4B15808  11.626   6.135   6.932  0.0410  0.0407 -0.3250
  989loPI    C115809  17.434  12.126   3.797  0.1474 -0.1387 -0.1503
  989loPI    C215810  17.163  12.233   3.523  0.0440  0.0321  0.0162
  989loPI    C315811  17.507  12.434   3.553  0.0699 -0.0085 -0.0106
  989loPI   PO415812  17.404  12.149   4.029  0.0374 -0.1056 -0.0449
  989loPI   GL115813  17.510  12.135   4.310 -0.3472  0.1862 -0.2531
  989loPI   GL215814  17.793  11.896   4.373  0.0130 -0.2989 -0.1993
  989loPI   C1A15815  17.610  12.267   4.778 -0.2563  0.3720 -0.0140
  989loPI   C2A15816  17.647  12.353   5.153  0.0783  0.0355  0.1759
  989loPI   C3A15817  17.565  12.452   5.556 -0.0123 -0.2563  0.0084
  989loPI   C4A15818  17.676  12.616   5.951 -0.1392  0.2569  0.0014
  989loPI   C5A15819  17.561  12.554   6.429  0.1310 -0.3096 -0.2008
  989loPI   C6A15820  17.326  12.542   6.861  0.0892  0.3136 -0.0333
  989loPI   C1B15821  18.048  12.019   4.645  0.3008  0.1211  0.1133
  989loPI   C2B15822  17.995  11.994   5.123 -0.0494 -0.0504 -0.1335
  989loPI   C3B15823  18.100  12.264   5.566 -0.0941  0.0651 -0.2153
  989loPI   C4B15824  18.097  12.342   6.000  0.3896 -0.0264  0.1226
  990loPI    C115825  10.573   1.560   4.480  0.2137  0.1145  0.0876
  990loPI    C215826  10.734   1.332   4.194  0.2943  0.2361  0.0354
  990loPI    C315827  10.458   1.606   4.100  0.3317  0.2865  0.0716
  990loPI   PO415828  10.466   1.492   4.700  0.2734 -0.0208  0.0377
  990loPI   GL115829  10.522   1.303   5.079  0.1326  0.0745  0.2409
  990loPI   GL215830  10.683   1.567   5.170 -0.4953 -0.1420 -0.0867
  990loPI   C1A15831  10.466   1.334   5.555  0.0052 -0.2484 -0.2988
  990loPI   C2A15832  10.366   1.632   5.972  0.0324  0.2097  0.2918
  990loPI   C3A15833  10.260   1.600   6.389 -0.2571  0.1820 -0.1800
  990loPI   C4A15834  10.392   1.478   6.664  0.0392 -0.0669 -0.2611
  990loPI   C5A15835  10.655   1.378   6.946 -0.1728  0.0044  0.1468
  990loPI   C6A15836  11.029   1.585   7.218  0.0869 -0.0276 -0.0482
  990loPI   C1B15837  10.947   1.505   5.504  0.0562  0.1955 -0.2806
  990loPI   C2B15838  10.935   1.282   5.845 -0.1663 -0.1058  0.1870
  990loPI   C3B15839  11.169   1.183   6.274 -0.0547 -0.3361  0.0388
  990loPI   C4B15840  11.163   1.530   6.592 -0.0622 -0.0434  0.3575
  991loPI    C115841   3.958  13.275   4.417  0.1316  0.1859  0.0318
  991loPI    C215842   4.053  12.936   4.228  0.0451  0.0317  0.2614
  991loPI    C315843   4.130  13.288   4.056  0.0531 -0.1041 -0.0184
  991loPI   PO415844   3.900  13.281   4.674  0.1763 -0.1108  0.3231
  991loPI   GL115845   3.710  13.156   5.013  0.1489 -0.3561  0.0277
  991loPI   GL215846   3.376  13.130   5.008 -0.1068 -0.0877 -0.3442
  991loPI   C1A15847   3.816  13.012   5.424 -0.2780 -0.1364  0.2669
  991loPI   C2A15848   3.983  12.798   5.732 -0.2806  0.0033  0.1388
  991loPI   C3A15849   4.252  12.772   6.139  0.0056  0.3055 -0.2839
  991loPI   C4A15850   4.168  12.643   6.610 -0.0598 -0.0982  0.4851
  991loPI   C5A15851   4.440  12.590   6.985 -0.0397 -0.0860 -0.0604
  991loPI   C6A15852   4.451  12.698   7.320 -0.0634 -0.2127 -0.0189
  991loPI   C1B15853   3.400  13.320   5.408  0.2683  0.0711 -0.4057
  991loPI   C2B15854   3.727  13.417   5.700 -0.1643 -0.2893 -0.1613
  991loPI   C3B15855   3.977  13.239   6.085 -0.2573 -0.1123  0.1578
  991loPI   C4B15856   3.807  12.960   6.463 -0.1897  0.1113 -0.3316
  992loPI    C115857  19.460  18.818   3.992  0.2405 -0.1707 -0.2040
  992loPI    C215858  19.145  18.588   4.078  0.0721  0.1068 -0.0634
  992loPI    C315859  19.331  18.548   3.726  0.0761 -0.2727 -0.0230
  992loPI   PO415860  19.574  18.838   4.265  0.2413 -0.2543  0.0602
  992loPI   GL115861  19.579  18.705   4.719  0.0511 -0.1185 -0.2453
  992loPI   GL215862  19.471  18.906   5.006 -0.1951  0.0807  0.0335
  992loPI   C1A15863  19.645  18.413   5.054  0.1466 -0.0946  0.2063
  992loPI   C2A15864  19.658  18.205   5.406 -0.0031 -0.2572 -0.1679
  992loPI   C3A15865  19.535  18.144   5.836 -0.2288 -0.1683  0.2334
  992loPI   C4A15866  19.390  18.194   6.147  0.2534  0.2187 -0.0866
  992loPI   C5A15867  18.918  18.329   6.316 -0.2251 -0.1180 -0.0272
  992loPI   C6A15868  18.446  18.365   6.363  0.0740 -0.2194  0.1208
  992loPI   C1B15869  19.366  19.174   5.378 -0.0764 -0.0882 -0.0395
  992loPI   C2B15870  19.555  19.181   5.833  0.3492  0.5777 -0.1051
  992loPI   C3B15871  19.254  19.198   6.142 -0.0070 -0.1949  0.0275
  992loPI   C4B15872  19.297  19.379   6.478  0.2184  0.0282 -0.1463
  993loPI    C115873  19.872  14.423   4.055 -0.0154 -0.0112 -0.0280
  993loPI    C215874  19.598  14.613   4.276 -0.0238  0.0902 -0.1245
  993loPI    C315875  19.483  14.384   3.968 -0.0035  0.0755 -0.1211
  993loPI   PO415876  20.045  14.366   4.239 -0.2012 -0.1785 -0.1870
  993loPI   GL115877  20.137  14.094   4.623 -0.0596 -0.0382 -0.0465
  993loPI   GL215878  20.101  13.744   4.547  0.0409 -0.4351  0.1477
  993loPI   C1A15879  20.175  14.127   5.090 -0.3061 -0.0853  0.2072
  993loPI   C2A15880  20.240  14.093   5.563 -0.1119 -0.3129 -0.1193
  993loPI   C3A15881  20.387  14.182   5.937 -0.3955 -0.0356 -0.0366
  993loPI   C4A15882  20.518  14.391   6.226  0.1023  0.1720  0.0953
  993loPI   C5A15883  20.500  14.804   6.460 -0.2633 -0.1777 -0.0815
  993loPI   C6A15884  20.790  15.259   6.537 -0.0859  0.0255  0.1078
  993loPI   C1B15885  20.190  13.646   5.012 -0.3062  0.3215  0.1987
  993loPI   C2B15886  20.476  13.623   5.296  0.2352  0.0097 -0.0175
  993loPI   C3B15887  20.656  13.441   5.595 -0.0775 -0.0940 -0.1192
  993loPI   C4B15888  20.659  13.147   5.940 -0.0076  0.6259  0.1250
  994loPI    C115889   4.047   3.532   4.877 -0.0525 -0.0034 -0.1285
  994loPI    C215890   3.921   3.829   5.112 -0.0135 -0.0832 -0.0060
  994loPI    C315891   4.297   3.829   4.975  0.1142 -0.2857  0.3320
  994loPI   PO415892   3.921   3.291   4.970 -0.2259  0.2761  0.1595
  994loPI   GL115893   3.827   3.259   5.372 -0.1792  0.0325  0.0397
  994loPI   GL215894   3.762   3.652   5.506 -0.2446  0.0454 -0.0048
  994loPI   C1A15895   3.863   3.280   5.900  0.0419  0.4684 -0.0563
  994loPI   C2A15896   3.926   3.632   6.214 -0.3103  0.1431 -0.1867
  994loPI   C3A15897   3.712   3.854   6.506 -0.3266 -0.0271  0.0391
  994loPI   C4A15898   3.686   4.213   6.876  0.0380 -0.2971  0.1140
  994loPI   C5A15899   3.691   4.383   7.318  0.1291 -0.3145  0.0476
  994loPI   C6A15900   3.827   4.591   7.683  0.1853  0.1576 -0.0543
  994loPI   C1B15901   3.502   3.799   5.884 -0.0085 -0.1559 -0.4251
  994loPI   C2B15902   3.216   3.915   6.168  0.0316  0.2167 -0.0431
  994loPI   C3B15903   3.304   4.168   6.345  0.1430 -0.0728 -0.1473
  994loPI   C4B15904   3.355   4.489   6.626  0.1866 -0.2224  0.1062
  995loPI    C115905   3.893   2.506   4.779 -0.0508  0.0586  0.2315
  995loPI    C215906   4.031   2.657   4.436  0.1785  0.0768  0.3304
  995loPI    C315907   3.808   2.883   4.678 -0.2231 -0.0237  0.0632
  995loPI   PO415908   4.083   2.444   4.908 -0.0820  0.0155  0.1111
  995loPI   GL115909   4.180   2.536   5.307 -0.2397  0.1880 -0.0036
  995loPI   GL215910   4.143   2.858   5.178 -0.1840  0.0495  0.2817
  995loPI   C1A15911   4.094   2.317   5.644 -0.2933 -0.3379 -0.1999
  995loPI   C2A15912   4.182   2.142   6.023 -0.1685 -0.2601  0.0430
  995loPI   C3A15913   4.466   1.910   6.291 -0.1697 -0.0388  0.1059
  995loPI   C4A15914   4.443   1.815   6.750  0.0256  0.0009  0.0962
  995loPI   C5A15915   4.382   2.128   7.090  0.0919  0.1809 -0.0617
  995loPI   C6A15916   4.131   2.328   7.487 -0.0219  0.4977 -0.0263
  995loPI   C1B15917   4.274   2.975   5.536 -0.0009  0.2320 -0.0288
  995loPI   C2B15918   4.320   3.094   5.873 -0.1106  0.0821  0.0714
  995loPI   C3B15919   4.205   3.131   6.234  0.4156  0.3467 -0.3277
  995loPI   C4B15920   4.004   3.338   6.642 -0.0425  0.0902 -0.0907
  996loPI    C115921  13.679  13.494   4.155  0.1135  0.1991 -0.1339
  996loPI    C215922  13.940  13.446   3.857  0.1708 -0.1358 -0.0331
  996loPI    C315923  13.557  13.344   3.805  0.0906  0.2009 -0.1267
  996loPI   PO415924  13.766  13.455   4.379 -0.0462  0.1475 -0.2232
  996loPI   GL115925  14.093  13.309   4.639 -0.4064 -0.2065  0.2300
  996loPI   GL215926  14.163  13.575   4.744 -0.0456 -0.1745  0.2008
  996loPI   C1A15927  14.219  13.006   5.016  0.3302  0.0663 -0.0109
  996loPI   C2A15928  14.006  12.933   5.431 -0.0419  0.0291 -0.2237
  996loPI   C3A15929  13.976  12.873   5.924 -0.1162 -0.1565 -0.0265
  996loPI   C4A15930  13.769  12.984   6.148 -0.0759 -0.1120  0.1883
  996loPI   C5A15931  13.689  12.791   6.532 -0.2676  0.1592 -0.0533
  996loPI   C6A15932  13.674  12.387   6.778  0.0158 -0.3455  0.0989
  996loPI   C1B15933  14.575  13.418   4.899  0.1556 -0.6481 -0.0654
  996loPI   C2B15934  14.657  13.196   5.299  0.0899  0.0176 -0.0265
  996loPI   C3B15935  14.845  12.932   5.708 -0.1533  0.0548  0.1042
  996loPI   C4B15936  14.849  13.142   6.128  0.0599 -0.3152  0.1552
  997loPI    C115937   4.221   1.430   4.849 -0.0373  0.0486  0.0126
  997loPI    C215938   3.999   1.464   5.180  0.2455 -0.0618  0.2174
  997loPI    C315939   3.836   1.533   4.821 -0.0558  0.0899  0.3803
  997loPI   PO415940   4.468   1.577   4.932  0.1237 -0.3904 -0.0739
  997loPI   GL115941   4.540   1.483   5.372  0.0888  0.0820  0.1788
  997loPI   GL215942   4.747   1.213   5.495  0.0555 -0.1926 -0.1288
  997loPI   C1A15943   4.645   1.495   5.883  0.0220  0.1834  0.1569
  997loPI   C2A15944   4.864   1.665   6.242  0.1309 -0.3650 -0.0880
  997loPI   C3A15945   4.953   1.608   6.644 -0.0480  0.0571  0.1836
  997loPI   C4A15946   5.045   1.642   6.978 -0.0153  0.1308 -0.1029
  997loPI   C5A15947   5.372   1.608   7.188 -0.3037  0.0489  0.2624
  997loPI   C6A15948   5.582   1.499   7.618 -0.0568  0.2081 -0.0875
  997loPI   C1B15949   5.017   1.177   5.898  0.3663  0.0973 -0.0559
  997loPI   C2B15950   4.955   1.161   6.401  0.0125  0.0599 -0.0591
  997loPI   C3B15951   4.725   1.180   6.793  0.2825 -0.1026  0.0764
  997loPI   C4B15952   4.426   1.063   7.136 -0.3120 -0.1602  0.0473
  998loPI    C115953   8.646  13.636   4.628  0.1555 -0.0170  0.0665
  998loPI    C215954   8.914  13.888   4.471  0.2132 -0.0371  0.1326
  998loPI    C315955   8.750  13.604   4.243 -0.0424  0.2199 -0.0095
  998loPI   PO415956   8.747  13.685   4.957  0.0155  0.2043 -0.0661
  998loPI   GL115957   8.829  13.661   5.397 -0.1479 -0.2017 -0.0291
  998loPI   GL215958   8.560  13.499   5.449  0.2229 -0.1156 -0.0392
  998loPI   C1A15959   8.814  13.748   5.890 -0.4353  0.2545  0.4460
  998loPI   C2A15960   8.961  14.015   6.186 -0.1267 -0.4643  0.2547
  998loPI   C3A15961   9.242  14.274   6.439 -0.2424 -0.0737  0.2180
  998loPI   C4A15962   9.618  14.058   6.681  0.0693 -0.2036  0.0384
  998loPI   C5A15963   9.791  14.147   7.087 -0.2857  0.3527  0.1139
  998loPI   C6A15964   9.686  14.469   7.293  0.1645 -0.4010 -0.0819
  998loPI   C1B15965   8.521  13.315   5.779 -0.3095 -0.0019 -0.3053
  998loPI   C2B15966   8.523  13.475   6.137  0.0918 -0.0893  0.0262
  998loPI   C3B15967   8.672  13.731   6.505 -0.2323 -0.1822 -0.0504
  998loPI   C4B15968   8.563  14.080   6.733  0.0257 -0.1616 -0.3313
  999loPI    C115969   4.305   0.267   4.826  0.0041  0.0377 -0.0242
  999loPI    C215970   3.998   0.484   4.962  0.0105  0.0010  0.0490
  999loPI    C315971   4.008   0.372   4.579 -0.0177  0.0871  0.0228
  999loPI   PO415972   4.320   0.051   4.856 -0.0792 -0.5570 -0.0057
  999loPI   GL115973   4.051  -0.229   5.102 -0.0043 -0.0428 -0.4136
  999loPI   GL215974   4.064   0.120   5.262 -0.0498  0.0043 -0.0889
  999loPI   C1A15975   4.241  -0.563   5.316  0.0726  0.3560  0.2949
  999loPI   C2A15976   4.532  -0.679   5.657  0.0324  0.1579 -0.1700
  999loPI   C3A15977   4.749  -0.647   6.075 -0.0028 -0.0940 -0.1534
  999loPI   C4A15978   5.121  -0.437   6.303  0.0669 -0.0356 -0.1844
  999loPI   C5A15979   5.108  -0.237   6.735 -0.1157 -0.3993 -0.0373
  999loPI   C6A15980   4.995  -0.397   7.172  0.2080 -0.2222 -0.1522
  999loPI   C1B15981   3.966  -0.024   5.679  0.1876  0.0809 -0.4199
  999loPI   C2B15982   3.692  -0.034   5.963  0.1371  0.0508 -0.0768
  999loPI   C3B15983   3.412  -0.326   5.882  0.1304  0.1160 -0.2922
  999loPI   C4B15984   3.261  -0.662   5.579 -0.0829 -0.1182  0.0204
 1000loPI    C115985   9.476  14.201   4.965  0.0878 -0.1424  0.0057
 1000loPI    C215986   9.767  14.385   4.762  0.0800 -0.0113  0.1118
 1000loPI    C315987   9.702  14.478   5.145 -0.2920  0.1736  0.0078
 1000loPI   PO415988   9.205  14.221   4.962  0.1407  0.2705  0.0662
 1000loPI   GL115989   8.995  14.140   5.303 -0.1139  0.0418 -0.0363
 1000loPI   GL215990   8.665  14.115   5.375  0.1870  0.0156 -0.1581
 1000loPI   C1A15991   9.258  14.073   5.718  0.0679  0.0648 -0.3305
 1000loPI   C2A15992   9.592  14.094   6.000  0.4656  0.1164  0.2763
 1000loPI   C3A15993   9.884  13.851   6.180 -0.1508  0.0024  0.2762
 1000loPI   C4A15994   9.736  13.414   6.304  0.0920 -0.0348  0.1502
 1000loPI   C5A15995   9.848  13.156   6.582  0.0966 -0.2037  0.0228
 1000loPI   C6A15996   9.727  13.068   6.998 -0.2393  0.2084  0.0839
 1000loPI   C1B15997   8.710  14.194   5.712 -0.0473 -0.3686 -0.2645
 1000loPI   C2B15998   8.480  14.067   6.132  0.2151  0.0973 -0.2068
 1000loPI   C3B15999   8.158  13.730   6.338  0.0214  0.2940  0.1083
 1000loPI   C4B16000   8.036  13.656   6.669  0.3582  0.0318  0.0415
 1001loPI    C116001  16.829  10.401   3.982 -0.0315  0.2473  0.0251
 1001loPI    C216002  16.823  10.359   3.584 -0.2495  0.0542  0.0464
 1001loPI    C316003  16.840  10.724   3.747  0.1920  0.1238 -0.1393
 1001loPI   PO416004  16.896  10.184   4.071 -0.0437  0.3799  0.2480
 1001loPI   GL116005  17.038  10.155   4.448 -0.1255  0.2437  0.4105
 1001loPI   GL216006  16.775   9.931   4.573  0.2580  0.0189  0.4181
 1001loPI   C1A16007  17.230   9.970   4.847 -0.2946  0.0385  0.0205
 1001loPI   C2A16008  17.029   9.661   5.111  0.1759  0.1374 -0.1367
 1001loPI   C3A16009  17.059   9.495   5.508  0.0630  0.0656  0.2368
 1001loPI   C4A16010  16.882   9.522   5.867  0.0500  0.2946 -0.0792
 1001loPI   C5A16011  16.891   9.404   6.257 -0.0565  0.2208 -0.2367
 1001loPI   C6A16012  16.667   9.004   6.509  0.0476  0.1652 -0.1378
 1001loPI   C1B16013  16.640   9.999   4.977  0.2194 -0.0545 -0.0729
 1001loPI   C2B16014  16.981  10.079   5.361 -0.2809 -0.0568  0.1519
 1001loPI   C3B16015  17.106   9.949   5.727 -0.0513  0.1082 -0.3872
 1001loPI   C4B16016  17.059   9.987   6.160 -0.1033  0.0173  0.2258
 1002loPI    C116017  11.176  14.512   4.607  0.0677  0.1455 -0.0300
 1002loPI    C216018  11.119  14.323   4.259 -0.0725  0.1974 -0.0360
 1002loPI    C316019  11.315  14.672   4.268  0.1027  0.0999 -0.0372
 1002loPI   PO416020  11.278  14.302   4.765 -0.0077 -0.1419  0.0807
 1002loPI   GL116021  11.568  14.417   5.158  0.0036 -0.0770 -0.0030
 1002loPI   GL216022  11.500  14.148   5.182 -0.1011 -0.3836  0.0495
 1002loPI   C1A16023  11.771  14.490   5.575  0.1328 -0.3238 -0.0370
 1002loPI   C2A16024  11.736  14.605   5.952  0.1189 -0.0458 -0.0885
 1002loPI   C3A16025  11.757  14.695   6.349  0.3242 -0.2233 -0.3261
 1002loPI   C4A16026  11.867  14.761   6.770 -0.3595 -0.1239  0.0827
 1002loPI   C5A16027  11.938  14.907   7.156  0.0270 -0.0847 -0.1841
 1002loPI   C6A16028  12.036  14.717   7.462  0.0372 -0.2211 -0.2086
 1002loPI   C1B16029  11.352  14.246   5.558  0.3952  0.0001  0.1393
 1002loPI   C2B16030  11.527  14.121   5.969  0.0356 -0.0512 -0.0855
 1002loPI   C3B16031  11.303  13.834   6.275 -0.0573 -0.0838  0.1760
 1002loPI   C4B16032  10.860  13.888   6.499 -0.0137  0.1079 -0.1774
 1003loPI    C116033  10.530  12.427   5.014  0.3810 -0.0551  0.2071
 1003loPI    C216034  10.839  12.674   4.953  0.1438  0.2154  0.0754
 1003loPI    C316035  10.535  12.665   4.692  0.0820 -0.1155  0.1543
 1003loPI   PO416036  10.391  12.485   5.197 -0.3215 -0.1031  0.0235
 1003loPI   GL116037  10.136  12.708   5.511 -0.0691  0.0024  0.1670
 1003loPI   GL216038  10.093  13.163   5.537  0.6839  0.1852  0.0610
 1003loPI   C1A16039  10.306  12.811   5.972  0.1442 -0.0961  0.1294
 1003loPI   C2A16040  10.288  12.874   6.402  0.1487  0.0660  0.1236
 1003loPI   C3A16041  10.125  12.761   6.811 -0.0164  0.0618  0.0055
 1003loPI   C4A16042  10.183  12.902   7.272  0.0389  0.1067  0.0282
 1003loPI   C5A16043  10.577  12.902   7.570  0.1570  0.4021  0.1949
 1003loPI   C6A16044  10.733  12.530   7.663 -0.0177  0.1104  0.1345
 1003loPI   C1B16045   9.879  13.045   5.848 -0.0874  0.2041  0.0819
 1003loPI   C2B16046   9.868  12.728   6.178  0.0850 -0.1467  0.0566
 1003loPI   C3B16047   9.706  12.651   6.579  0.2243  0.0294 -0.1198
 1003loPI   C4B16048   9.754  12.550   7.058 -0.1608  0.0903 -0.1588
 1004loPI    C116049  14.145  12.081   4.128  0.0506  0.2832 -0.2896
 1004loPI    C216050  14.449  12.210   4.354 -0.0502 -0.0052  0.0187
 1004loPI    C316051  14.087  12.376   4.391 -0.0807 -0.0919  0.1128
 1004loPI   PO416052  14.024  11.875   4.195 -0.0438 -0.2005  0.0429
 1004loPI   GL116053  13.943  11.906   4.642  0.2899  0.0792  0.0292
 1004loPI   GL216054  13.790  12.229   4.743  0.1233  0.1983  0.1066
 1004loPI   C1A16055  14.424  11.952   4.810  0.1120 -0.3546 -0.1341
 1004loPI   C2A16056  14.645  11.978   5.191  0.0260  0.0440  0.0757
 1004loPI   C3A16057  14.664  12.266   5.494 -0.1314 -0.3158  0.0407
 1004loPI   C4A16058  14.882  12.465   5.850  0.0909  0.1535  0.1812
 1004loPI   C5A16059  15.190  12.711   6.131 -0.0117  0.2204  0.0877
 1004loPI   C6A16060  15.601  12.728   6.402  0.1128  0.2021 -0.0817
 1004loPI   C1B16061  13.738  11.960   5.081 -0.4464 -0.1869 -0.0374
 1004loPI   C2B16062  13.729  11.888   5.623 -0.1960 -0.2296  0.0217
 1004loPI   C3B16063  13.815  11.848   6.112 -0.1475 -0.2659  0.1810
 1004loPI   C4B16064  13.987  11.931   6.502 -0.2613  0.0168  0.1644
 1005loPI    C116065   8.334   6.604   4.332 -0.1879  0.0851 -0.0372
 1005loPI    C216066   8.602   6.409   4.556 -0.0297  0.2525 -0.0781
 1005loPI    C316067   8.341   6.204   4.332 -0.0163  0.0871  0.0553
 1005loPI   PO416068   8.262   6.798   4.537 -0.1046 -0.1331  0.0196
 1005loPI   GL116069   8.090   6.876   4.961 -0.3200 -0.0543  0.2112
 1005loPI   GL216070   8.377   6.665   5.028 -0.0844  0.0101 -0.0257
 1005loPI   C1A16071   7.943   7.134   5.348  0.0473  0.0720  0.1243
 1005loPI   C2A16072   7.936   6.916   5.716 -0.1326  0.0108  0.3459
 1005loPI   C3A16073   7.625   6.899   6.152 -0.0471  0.1599  0.1716
 1005loPI   C4A16074   7.493   6.557   6.353  0.0921  0.0291  0.3270
 1005loPI   C5A16075   7.503   6.151   6.346 -0.1985  0.1636 -0.1756
 1005loPI   C6A16076   7.468   5.920   6.102 -0.1551  0.0981 -0.3027
 1005loPI   C1B16077   8.303   6.702   5.471 -0.4426 -0.2063 -0.2108
 1005loPI   C2B16078   8.292   6.773   6.024  0.3135 -0.0076 -0.0047
 1005loPI   C3B16079   8.352   6.774   6.496 -0.0133  0.0554 -0.0055
 1005loPI   C4B16080   8.423   6.716   6.896  0.2683  0.1774 -0.2798
 1006loPI    C116081  15.832   5.180   4.395  0.2886  0.1372 -0.1671
 1006loPI    C216082  15.491   5.244   4.594  0.2518 -0.1896 -0.1186
 1006loPI    C316083  15.778   5.523   4.594 -0.0728  0.1534 -0.2852
 1006loPI   PO416084  15.965   4.921   4.466 -0.0185 -0.1233  0.0894
 1006loPI   GL116085  16.178   4.803   4.806 -0.0056  0.0257  0.0003
 1006loPI   GL216086  15.831   4.990   4.906 -0.0891  0.0889  0.0892
 1006loPI   C1A16087  16.327   4.590   5.207  0.1638 -0.0250 -0.2048
 1006loPI   C2A16088  16.114   4.429   5.653  0.0716  0.2592 -0.0655
 1006loPI   C3A16089  16.013   4.123   6.036 -0.1318 -0.2603 -0.2976
 1006loPI   C4A16090  16.066   3.820   6.275 -0.2915 -0.0278 -0.1487
 1006loPI   C5A16091  15.905   3.613   6.665  0.1360 -0.0684 -0.2498
 1006loPI   C6A16092  15.627   3.402   6.857 -0.1062  0.1453 -0.1261
 1006loPI   C1B16093  15.837   5.343   5.140  0.1157  0.3260  0.2030
 1006loPI   C2B16094  16.004   5.645   5.456 -0.1529 -0.0064  0.1485
 1006loPI   C3B16095  16.355   5.464   5.618 -0.2673 -0.0766  0.0829
 1006loPI   C4B16096  16.568   5.064   5.529  0.2271  0.2071  0.1659
 1007loPI    C116097   4.551   2.694   4.535  0.1085 -0.0893  0.1606
 1007loPI    C216098   4.744   3.007   4.378 -0.2680  0.1109  0.0831
 1007loPI    C316099   4.379   2.911   4.247 -0.1942 -0.3106  0.1695
 1007loPI   PO416100   4.612   2.620   4.764  0.2211  0.1536  0.0826
 1007loPI   GL116101   4.637   2.561   5.181 -0.2609 -0.1352 -0.0276
 1007loPI   GL216102   4.683   2.867   5.246  0.1944  0.0269  0.2581
 1007loPI   C1A16103   4.598   2.505   5.626 -0.0300  0.4041  0.2003
 1007loPI   C2A16104   4.541   2.486   6.056 -0.2132  0.0747  0.2555
 1007loPI   C3A16105   4.635   2.440   6.447 -0.2215 -0.0980  0.2999
 1007loPI   C4A16106   4.652   2.592   6.763  0.1792 -0.0622  0.2040
 1007loPI   C5A16107   4.410   2.631   7.153  0.0096 -0.2638 -0.1223
 1007loPI   C6A16108   4.476   3.027   7.439 -0.1828  0.1183 -0.0868
 1007loPI   C1B16109   4.785   2.953   5.702  0.0372  0.1197 -0.0920
 1007loPI   C2B16110   4.741   2.916   6.128  0.1182  0.1468  0.0620
 1007loPI   C3B16111   4.666   3.058   6.538 -0.2191  0.1728 -0.0216
 1007loPI   C4B16112   4.412   3.034   6.875 -0.1106 -0.1067  0.1752
 1008loPI    C116113   3.065   3.948   4.994  0.3779 -0.1518  0.3760
 1008loPI    C216114   2.941   4.115   5.336 -0.1319  0.1568  0.0543
 1008loPI    C316115   3.126   4.338   5.060  0.1266 -0.0526  0.0544
 1008loPI   PO416116   2.865   3.699   5.045  0.1223  0.1662 -0.2851
 1008loPI   GL116117   2.612   3.597   5.397 -0.0680  0.5422  0.1935
 1008loPI   GL216118   2.523   3.287   5.316  0.1452  0.0163  0.5857
 1008loPI   C1A16119   2.384   3.932   5.510 -0.3084 -0.0590  0.0660
 1008loPI   C2A16120   2.565   4.356   5.646 -0.1472  0.0478  0.0321
 1008loPI   C3A16121   2.495   4.523   6.014 -0.3676 -0.0744 -0.0196
 1008loPI   C4A16122   2.095   4.641   6.233  0.0388 -0.2727  0.1586
 1008loPI   C5A16123   1.804   4.854   6.253 -0.1577  0.0474  0.0653
 1008loPI   C6A16124   1.602   4.923   6.624  0.0632  0.1687  0.1301
 1008loPI   C1B16125   2.823   2.846   5.493  0.0575 -0.4870  0.1077
 1008loPI   C2B16126   3.120   2.825   5.843 -0.0824  0.1235  0.1008
 1008loPI   C3B16127   3.402   2.702   6.171  0.2081  0.2440  0.2400
 1008loPI   C4B16128   3.662   2.951   6.406  0.1077 -0.1264 -0.1090
 1009loPI    C116129  17.767   0.853   4.189 -0.2409 -0.1234  0.1166
 1009loPI    C216130  17.672   0.487   4.060  0.0484 -0.1181 -0.1238
 1009loPI    C316131  17.864   0.740   3.818 -0.1539  0.1977  0.0380
 1009loPI   PO416132  17.506   0.969   4.359  0.1157  0.0852  0.0339
 1009loPI   GL116133  17.316   0.775   4.701  0.0239  0.1775 -0.1368
 1009loPI   GL216134  17.101   1.001   4.707 -0.2110  0.3419  0.0281
 1009loPI   C1A16135  17.449   1.027   5.139  0.0011  0.3206 -0.0912
 1009loPI   C2A16136  17.563   1.297   5.451 -0.3679 -0.1409 -0.2880
 1009loPI   C3A16137  17.301   1.473   5.793  0.1512 -0.1773  0.2806
 1009loPI   C4A16138  17.159   1.570   6.175  0.0021 -0.3840  0.0203
 1009loPI   C5A16139  17.390   1.584   6.479  0.0663  0.2301  0.1412
 1009loPI   C6A16140  17.777   1.722   6.695 -0.0116 -0.0757 -0.0273
 1009loPI   C1B16141  16.965   1.162   5.097 -0.1336 -0.0539  0.1766
 1009loPI   C2B16142  16.993   1.081   5.486 -0.2372  0.4587 -0.3682
 1009loPI   C3B16143  16.816   1.328   5.896 -0.1923 -0.0345 -0.3158
 1009loPI   C4B16144  16.890   1.192   6.362  0.1811 -0.2410 -0.3053
 1010loPI    C116145   2.317   0.287   4.261  0.2211 -0.2640 -0.0617
 1010loPI    C216146   2.224   0.223   3.877 -0.0740  0.2121 -0.0771
 1010loPI    C316147   2.456   0.533   3.978 -0.0831  0.1500  0.1387
 1010loPI   PO416148   2.040   0.354   4.383  0.3228  0.0031 -0.3130
 1010loPI   GL116149   1.766   0.509   4.682  0.0187 -0.0004  0.1894
 1010loPI   GL216150   1.998   0.704   4.838  0.0065 -0.0397 -0.0085
 1010loPI   C1A16151   1.785   0.436   5.173  0.0048  0.0393 -0.2794
 1010loPI   C2A16152   1.943   0.390   5.581 -0.0446 -0.3225 -0.4359
 1010loPI   C3A16153   2.049   0.304   5.961 -0.1258  0.0188 -0.1026
 1010loPI   C4A16154   2.104   0.210   6.441 -0.1078  0.1459 -0.1050
 1010loPI   C5A16155   2.285   0.034   6.835 -0.1743  0.0745 -0.1692
 1010loPI   C6A16156   2.637  -0.155   7.235  0.0273 -0.0694  0.1772
 1010loPI   C1B16157   2.286   0.703   5.320  0.0547  0.2763  0.0840
 1010loPI   C2B16158   2.346   1.045   5.652 -0.1784  0.0233  0.0488
 1010loPI   C3B16159   2.283   1.071   6.153  0.1394 -0.2680 -0.3794
 1010loPI   C4B16160   2.158   1.309   6.510  0.0883 -0.2530 -0.1246
 1011loPI    C116161   1.709  19.948   4.467  0.0000  0.0586  0.0542
 1011loPI    C216162   1.634  19.616   4.258  0.0267  0.0136  0.1159
 1011loPI    C316163   1.856  19.907   4.097  0.2262 -0.1122  0.1603
 1011loPI   PO416164   1.515  19.997   4.587  0.0044 -0.2042 -0.1487
 1011loPI   GL116165   1.231  19.927   4.971 -0.2163  0.0423 -0.1331
 1011loPI   GL216166   1.161  19.635   5.139  0.1536  0.1252  0.2055
 1011loPI   C1A16167   1.364  20.147   5.436 -0.4895  0.0685 -0.2206
 1011loPI   C2A16168   1.052  20.454   5.710 -0.0281  0.2388 -0.3224
 1011loPI   C3A16169   0.965  20.852   6.012  0.0500 -0.2300  0.1390
 1011loPI   C4A16170   0.985  20.953   6.405 -0.3841 -0.3452 -0.0646
 1011loPI   C5A16171   1.096  21.122   6.831  0.0660  0.0070 -0.1735
 1011loPI   C6A16172   1.314  21.278   7.172  0.0517 -0.0973 -0.1625
 1011loPI   C1B16173   0.851  19.454   5.516  0.3437  0.0584  0.0046
 1011loPI   C2B16174   0.599  19.171   5.756  0.3848 -0.0875  0.1021
 1011loPI   C3B16175   0.574  18.677   5.586  0.2197  0.0488  0.0739
 1011loPI   C4B16176   0.551  18.338   5.320  0.1298 -0.2926  0.1373
 1012loPI    C116177   4.070  11.440   4.306  0.0530 -0.1619 -0.0208
 1012loPI    C216178   4.408  11.237   4.244  0.1364 -0.0010 -0.0977
 1012loPI    C316179   4.299  11.527   3.991  0.1054  0.1653  0.1035
 1012loPI   PO416180   4.066  11.519   4.565  0.0627 -0.0098  0.1228
 1012loPI   GL116181   4.116  11.773   4.890  0.2166  0.0285 -0.0005
 1012loPI   GL216182   3.796  12.009   5.041  0.1408 -0.0530 -0.1758
 1012loPI   C1A16183   4.343  11.690   5.335 -0.1251  0.1518 -0.0634
 1012loPI   C2A16184   4.380  11.689   5.798  0.2172  0.1947  0.0286
 1012loPI   C3A16185   4.717  11.742   6.229 -0.4276  0.1092  0.2161
 1012loPI   C4A16186   4.694  11.261   6.566  0.0926  0.1409 -0.1934
 1012loPI   C5A16187   4.889  10.933   6.780 -0.0834  0.0332 -0.4025
 1012loPI   C6A16188   4.943  10.766   7.192 -0.0877 -0.0661 -0.0182
 1012loPI   C1B16189   3.446  11.948   5.403 -0.2732 -0.0640 -0.1254
 1012loPI   C2B16190   3.116  11.989   5.728  0.1728  0.0227 -0.1528
 1012loPI   C3B16191   2.827  12.050   6.092  0.0816  0.1820 -0.0895
 1012loPI   C4B16192   2.705  12.066   6.487 -0.0230  0.0767  0.4429
 1013loPI    C116193  19.368   1.985   4.060 -0.0688 -0.0658 -0.4018
 1013loPI    C216194  19.412   1.624   3.895  0.0835 -0.1899 -0.0985
 1013loPI    C316195  19.734   1.843   3.985 -0.0045 -0.0317 -0.1641
 1013loPI   PO416196  19.188   1.935   4.248 -0.1648  0.0607 -0.0622
 1013loPI   GL116197  19.046   2.104   4.641 -0.0088 -0.0061  0.0101
 1013loPI   GL216198  19.240   2.362   4.657 -0.1241 -0.1885 -0.4280
 1013loPI   C1A16199  19.392   2.008   5.042  0.1459  0.0429 -0.1890
 1013loPI   C2A16200  19.527   2.074   5.475  0.0149 -0.1820  0.0023
 1013loPI   C3A16201  19.269   1.922   5.887 -0.0825 -0.0325  0.3204
 1013loPI   C4A16202  19.259   1.773   6.269  0.0277  0.0507  0.0085
 1013loPI   C5A16203  18.982   1.805   6.657 -0.4011  0.2744  0.0664
 1013loPI   C6A16204  18.825   1.648   7.039 -0.3679 -0.1369  0.2180
 1013loPI   C1B16205  18.981   2.352   5.052  0.0479 -0.1022  0.1261
 1013loPI   C2B16206  19.013   2.225   5.483 -0.1138  0.1136 -0.4613
 1013loPI   C3B16207  18.930   2.343   5.984 -0.1629 -0.1420 -0.4450
 1013loPI   C4B16208  19.061   2.203   6.357  0.3423  0.0782 -0.1135
 1014loPI    C116209   3.145   2.073   4.316 -0.2692  0.3149  0.2468
 1014loPI    C216210   2.886   1.826   4.135  0.1995 -0.0784  0.0920
 1014loPI    C316211   3.072   2.111   3.924  0.0867  0.0379  0.1484
 1014loPI   PO416212   3.083   2.120   4.554  0.1003  0.3010 -0.0773
 1014loPI   GL116213   3.033   1.974   4.990 -0.1788  0.2514  0.2569
 1014loPI   GL216214   3.008   1.657   5.203 -0.1198 -0.2532 -0.5418
 1014loPI   C1A16215   3.176   2.055   5.426 -0.0409  0.1871 -0.1495
 1014loPI   C2A16216   3.271   2.124   5.897 -0.1309  0.2021 -0.1018
 1014loPI   C3A16217   3.426   1.914   6.263  0.2338 -0.2945 -0.0698
 1014loPI   C4A16218   3.546   2.043   6.720 -0.3046  0.1875  0.0373
 1014loPI   C5A16219   3.381   2.204   6.901 -0.1143  0.0290 -0.5032
 1014loPI   C6A16220   3.081   2.537   7.142  0.2101  0.2726  0.0320
 1014loPI   C1B16221   3.211   1.549   5.648  0.1019 -0.1594  0.2471
 1014loPI   C2B16222   3.060   1.401   6.106 -0.2392 -0.1241  0.3234
 1014loPI   C3B16223   2.937   1.364   6.497 -0.2295 -0.1050 -0.2461
 1014loPI   C4B16224   2.751   1.215   6.872  0.0529 -0.0734  0.2290
 1015loPI    C116225  10.856   3.855   4.534  0.0327 -0.2163  0.1142
 1015loPI    C216226  10.759   3.779   4.153 -0.1169 -0.0875  0.1255
 1015loPI    C316227  10.939   4.124   4.249 -0.3101 -0.0076  0.2053
 1015loPI   PO416228  10.940   3.567   4.604  0.0772 -0.1038 -0.1661
 1015loPI   GL116229  11.153   3.299   4.864 -0.1284  0.1232 -0.1642
 1015loPI   GL216230  11.506   3.375   4.821 -0.1251  0.0995  0.1224
 1015loPI   C1A16231  11.313   3.279   5.275 -0.1914  0.0533 -0.1025
 1015loPI   C2A16232  11.445   3.249   5.772  0.0505  0.1607 -0.0505
 1015loPI   C3A16233  11.459   3.334   6.225 -0.0192 -0.0865 -0.1393
 1015loPI   C4A16234  11.749   3.367   6.522  0.2593 -0.1356 -0.2624
 1015loPI   C5A16235  12.155   3.364   6.447 -0.0111 -0.0137 -0.0472
 1015loPI   C6A16236  12.581   3.474   6.597  0.1322  0.2803  0.0432
 1015loPI   C1B16237  11.716   3.668   5.177  0.2785 -0.0793  0.2022
 1015loPI   C2B16238  11.879   3.736   5.675  0.1602  0.0268  0.1626
 1015loPI   C3B16239  11.867   3.758   6.061 -0.1015  0.1630  0.0924
 1015loPI   C4B16240  11.530   3.860   6.380 -0.0194 -0.1711 -0.0747
 1016loPI    C116241   7.549  11.413   5.068 -0.0019 -0.0234  0.1660
 1016loPI    C216242   7.759  11.733   4.951  0.0411 -0.1261 -0.0426
 1016loPI    C316243   7.376  11.697   4.844  0.0577 -0.1810 -0.0841
 1016loPI   PO416244   7.675  11.355   5.284  0.0449 -0.2649  0.0577
 1016loPI   GL116245   7.549  11.146   5.717 -0.3863 -0.0039 -0.0463
 1016loPI   GL216246   7.850  11.198   5.836  0.2234  0.0461  0.0422
 1016loPI   C1A16247   7.607  11.425   6.170  0.0770 -0.2255  0.2343
 1016loPI   C2A16248   7.873  11.694   6.496 -0.0982 -0.3064  0.1195
 1016loPI   C3A16249   7.881  11.752   6.931  0.1719  0.0660 -0.1360
 1016loPI   C4A16250   7.672  12.055   7.176  0.1337 -0.0179  0.0459
 1016loPI   C5A16251   7.229  12.237   7.024 -0.2382 -0.1731 -0.1855
 1016loPI   C6A16252   6.854  11.921   6.996  0.0181  0.0098 -0.0536
 1016loPI   C1B16253   8.200  11.311   6.152  0.1850  0.3229 -0.0764
 1016loPI   C2B16254   8.652  11.296   6.255 -0.0756 -0.0032  0.0461
 1016loPI   C3B16255   8.848  11.467   6.628  0.0047 -0.0303 -0.1023
 1016loPI   C4B16256   8.614  11.543   7.002  0.1508  0.0161 -0.2182
 1017loPI    C116257   2.032  12.736   4.289 -0.0860 -0.0058  0.0304
 1017loPI    C216258   2.044  12.404   4.066 -0.1329 -0.0100  0.0338
 1017loPI    C316259   2.376  12.621   4.121 -0.1154 -0.0234 -0.0181
 1017loPI   PO416260   2.024  12.689   4.537 -0.3685  0.2903  0.1428
 1017loPI   GL116261   2.077  12.415   4.964 -0.3709 -0.0228 -0.2894
 1017loPI   GL216262   2.157  12.048   5.078  0.2550  0.2259  0.1721
 1017loPI   C1A16263   2.132  12.450   5.361  0.1087  0.3556  0.2919
 1017loPI   C2A16264   1.889  12.393   5.785 -0.4330 -0.1743 -0.0182
 1017loPI   C3A16265   1.682  12.540   6.081 -0.1068 -0.1958 -0.0101
 1017loPI   C4A16266   1.761  12.658   6.514  0.0406 -0.2023 -0.1158
 1017loPI   C5A16267   2.022  12.972   6.720  0.0178 -0.2644  0.2696
 1017loPI   C6A16268   2.002  13.327   6.942  0.0136  0.2093 -0.0359
 1017loPI   C1B16269   2.157  11.687   5.287  0.0975  0.1313  0.1064
 1017loPI   C2B16270   2.137  11.451   5.689 -0.1122 -0.0179 -0.1124
 1017loPI   C3B16271   2.039  11.327   6.074  0.0828 -0.0653  0.1999
 1017loPI   C4B16272   2.276  11.271   6.442  0.1963 -0.0961  0.0274
 1018loPI    C116273  19.835  11.604   4.401 -0.1712 -0.1417 -0.1304
 1018loPI    C216274  19.686  11.290   4.599  0.1005 -0.1395  0.0831
 1018loPI    C316275  19.912  11.232   4.274 -0.0615 -0.1549 -0.0275
 1018loPI   PO416276  19.922  11.735   4.615 -0.1582 -0.3327  0.0285
 1018loPI   GL116277  19.761  11.627   4.981 -0.1385  0.3044 -0.0267
 1018loPI   GL216278  19.466  11.725   4.837  0.1689 -0.0076 -0.2945
 1018loPI   C1A16279  20.021  11.625   5.332 -0.0942  0.1211 -0.0661
 1018loPI   C2A16280  20.192  11.260   5.523 -0.1845 -0.1214 -0.1461
 1018loPI   C3A16281  20.119  11.074   6.010  0.1424  0.0225  0.1070
 1018loPI   C4A16282  20.435  11.249   6.228  0.0629 -0.0311 -0.2805
 1018loPI   C5A16283  20.889  11.147   6.312  0.0633  0.1983 -0.1513
 1018loPI   C6A16284  21.162  11.149   6.726  0.0908 -0.1636  0.2099
 1018loPI   C1B16285  19.432  11.713   5.338  0.3763  0.1203 -0.2292
 1018loPI   C2B16286  19.226  11.766   5.799  0.1875  0.0638 -0.0168
 1018loPI   C3B16287  18.922  11.876   6.219 -0.0831  0.1420 -0.0417
 1018loPI   C4B16288  18.852  12.212   6.512  0.3858  0.0456  0.3596
 1019loPI    C116289  14.684   7.169   4.419 -0.0418 -0.0753  0.0473
 1019loPI    C216290  14.358   7.310   4.234  0.1393  0.2388 -0.0391
 1019loPI    C316291  14.579   7.025   4.061  0.0297  0.1763 -0.0768
 1019loPI   PO416292  14.629   7.161   4.647  0.3000 -0.2161 -0.1579
 1019loPI   GL116293  14.539   7.123   4.947  0.2839  0.1740  0.1921
 1019loPI   GL216294  14.303   6.864   4.954  0.1909 -0.1822  0.0992
 1019loPI   C1A16295  14.771   7.060   5.300  0.3315 -0.1071  0.0341
 1019loPI   C2A16296  15.059   6.966   5.597  0.1343 -0.1607 -0.1997
 1019loPI   C3A16297  15.142   7.061   5.974  0.0774  0.0931 -0.4660
 1019loPI   C4A16298  15.211   7.335   6.292 -0.0272  0.1049  0.2984
 1019loPI   C5A16299  15.101   7.598   6.639  0.0592 -0.2418 -0.2866
 1019loPI   C6A16300  15.012   7.468   7.115  0.0789  0.0320  0.4821
 1019loPI   C1B16301  14.242   6.943   5.434 -0.0036  0.1759  0.0274
 1019loPI   C2B16302  14.233   6.819   5.844  0.5866 -0.1610 -0.0536
 1019loPI   C3B16303  14.305   6.739   6.258 -0.0621 -0.1212  0.0784
 1019loPI   C4B16304  14.134   6.790   6.649  0.2810 -0.3111 -0.0255
 1020loPI    C116305   5.968   0.110   4.254  0.0758  0.0070  0.0001
 1020loPI    C216306   5.770   0.457   4.249  0.0544 -0.0009  0.2068
 1020loPI    C316307   5.830   0.256   3.908 -0.1281  0.0944  0.1170
 1020loPI   PO416308   6.129   0.159   4.497 -0.2682 -0.1702  0.0412
 1020loPI   GL116309   6.162  -0.012   4.938  0.1031  0.0883  0.0613
 1020loPI   GL216310   6.237   0.303   5.023 -0.3886 -0.0358 -0.0148
 1020loPI   C1A16311   5.854  -0.153   5.359  0.0660  0.1408  0.1898
 1020loPI   C2A16312   5.872  -0.130   5.858 -0.0478  0.0091  0.0620
 1020loPI   C3A16313   6.100  -0.206   6.267  0.0097 -0.2565  0.1831
 1020loPI   C4A16314   6.131   0.042   6.594 -0.1853  0.1476  0.0590
 1020loPI   C5A16315   5.905   0.104   6.981 -0.3130 -0.1705 -0.2687
 1020loPI   C6A16316   6.008   0.130   7.436 -0.0691 -0.0993 -0.0508
 1020loPI   C1B16317   6.576   0.413   5.291  0.0101 -0.2951  0.3177
 1020loPI   C2B16318   6.731   0.608   5.617 -0.0038 -0.1753 -0.3612
 1020loPI   C3B16319   6.741   0.627   6.099  0.3289 -0.2031  0.2034
 1020loPI   C4B16320   6.854   0.818   6.465 -0.0302 -0.1732  0.0688
 1021loPI    C116321  18.682   8.747   3.791  0.0999  0.1296 -0.1159
 1021loPI    C216322  18.890   8.426   3.673 -0.0134  0.0826 -0.1892
 1021loPI    C316323  19.070   8.783   3.698  0.1644 -0.0229  0.0852
 1021loPI   PO416324  18.600   8.764   4.020 -0.0494 -0.0666  0.5046
 1021loPI   GL116325  18.389   8.891   4.258  0.1088 -0.4412 -0.2355
 1021loPI   GL216326  18.125   8.973   4.385  0.0627  0.0842  0.2821
 1021loPI   C1A16327  18.683   8.904   4.617 -0.0185 -0.1277  0.0365
 1021loPI   C2A16328  18.739   8.663   5.070 -0.4857 -0.3766  0.3435
 1021loPI   C3A16329  18.949   8.626   5.493  0.3288  0.0513 -0.0896
 1021loPI   C4A16330  18.803   8.554   5.874 -0.1071  0.0029  0.1855
 1021loPI   C5A16331  18.374   8.379   6.213 -0.0333  0.2416  0.0402
 1021loPI   C6A16332  18.014   8.537   6.426 -0.3379 -0.1139 -0.0359
 1021loPI   C1B16333  18.146   8.601   4.617 -0.4723 -0.1016 -0.1064
 1021loPI   C2B16334  18.201   8.803   5.074 -0.0608 -0.1483 -0.0612
 1021loPI   C3B16335  18.337   8.736   5.464  0.0368  0.1308  0.3612
 1021loPI   C4B16336  18.315   8.813   5.938 -0.0987 -0.2536 -0.1293
 1022loPI    C116337  16.154   8.275   3.804 -0.4800 -0.0656 -0.2365
 1022loPI    C216338  16.334   8.109   3.488 -0.0143 -0.1271  0.0506
 1022loPI    C316339  16.241   8.498   3.484  0.1336 -0.0922 -0.1010
 1022loPI   PO416340  16.259   8.235   3.997 -0.0975 -0.1337 -0.2356
 1022loPI   GL116341  16.379   8.101   4.319  0.0544 -0.2795  0.2933
 1022loPI   GL216342  16.242   8.445   4.589 -0.2553  0.3278  0.0747
 1022loPI   C1A16343  16.397   7.888   4.734  0.0249  0.1852 -0.1308
 1022loPI   C2A16344  16.479   8.009   5.221 -0.0036  0.3068  0.0282
 1022loPI   C3A16345  16.418   8.246   5.526 -0.2492 -0.1325  0.1153
 1022loPI   C4A16346  16.721   8.502   5.743 -0.1272  0.1390  0.0959
 1022loPI   C5A16347  17.151   8.681   5.876  0.4100 -0.0308  0.0207
 1022loPI   C6A16348  17.466   8.605   6.042 -0.0065  0.2531  0.1286
 1022loPI   C1B16349  16.303   8.548   5.017  0.1760  0.1805  0.0820
 1022loPI   C2B16350  16.634   8.699   5.313 -0.0863 -0.0156 -0.3017
 1022loPI   C3B16351  17.126   8.532   5.367 -0.2080  0.2067 -0.2993
 1022loPI   C4B16352  17.602   8.716   5.587  0.0329 -0.1913 -0.0251
 1023loPI    C116353   2.894   6.113   4.190  0.0153  0.0702  0.0269
 1023loPI    C216354   3.176   5.978   3.941  0.0383  0.1280  0.0214
 1023loPI    C316355   2.811   6.064   3.802  0.0524  0.1644  0.0067
 1023loPI   PO416356   3.009   6.302   4.308  0.3591  0.1105 -0.0695
 1023loPI   GL116357   2.920   6.459   4.669  0.1697  0.0393 -0.3377
 1023loPI   GL216358   2.736   6.716   4.797 -0.4266 -0.1395  0.0552
 1023loPI   C1A16359   2.827   6.377   5.136 -0.0402 -0.1378  0.1079
 1023loPI   C2A16360   2.854   6.430   5.477 -0.2446 -0.0075 -0.1549
 1023loPI   C3A16361   2.906   6.466   5.984  0.0271 -0.1177  0.0905
 1023loPI   C4A16362   3.044   6.316   6.331 -0.0210 -0.0694  0.0105
 1023loPI   C5A16363   2.940   6.041   6.656  0.0947  0.2176  0.0515
 1023loPI   C6A16364   2.629   5.887   6.881  0.1974 -0.0931  0.1708
 1023loPI   C1B16365   2.852   6.934   5.149  0.2115  0.0214  0.1445
 1023loPI   C2B16366   2.987   6.918   5.479 -0.2135 -0.2535 -0.3906
 1023loPI   C3B16367   3.012   6.923   5.864 -0.0058 -0.0579 -0.2327
 1023loPI   C4B16368   3.377   6.824   6.063 -0.0001  0.3610  0.1099
 1024loPI    C116369  12.049   8.564   4.197 -0.0933 -0.0064  0.0296
 1024loPI    C216370  11.966   8.900   3.995 -0.0809 -0.0711 -0.0843
 1024loPI    C316371  12.241   8.645   3.856 -0.1039 -0.1382 -0.0082
 1024loPI   PO416372  11.983   8.636   4.414 -0.1949  0.1907 -0.0028
 1024loPI   GL116373  12.189   8.283   4.713 -0.1038 -0.1207  0.1423
 1024loPI   GL216374  12.028   7.960   4.687  0.0353  0.0045 -0.1289
 1024loPI   C1A16375  12.209   8.263   5.229  0.0774  0.1715 -0.2649
 1024loPI   C2A16376  12.450   8.323   5.645  0.0734 -0.3997  0.0415
 1024loPI   C3A16377  12.609   8.271   6.077  0.1844  0.0296 -0.2026
 1024loPI   C4A16378  12.752   8.306   6.547 -0.1901 -0.4179 -0.2022
 1024loPI   C5A16379  12.914   7.970   6.786 -0.2196  0.0083 -0.0723
 1024loPI   C6A16380  12.971   7.450   6.713  0.1335 -0.1187 -0.0929
 1024loPI   C1B16381  11.700   7.902   5.038  0.1053 -0.2534  0.6083
 1024loPI   C2B16382  11.638   7.484   5.354  0.1085  0.1578 -0.1758
 1024loPI   C3B16383  11.898   7.266   5.649  0.0274 -0.1918 -0.2659
 1024loPI   C4B16384  12.005   7.137   6.040  0.2750  0.3678  0.0246
 1025loPI    C116385   7.727   2.217   4.350 -0.1341 -0.0150  0.1275
 1025loPI    C216386   7.855   2.575   4.472  0.1371 -0.0283 -0.1095
 1025loPI    C316387   7.585   2.549   4.178  0.0293 -0.0166 -0.0122
 1025loPI   PO416388   7.725   2.087   4.550 -0.1539  0.1289  0.2831
 1025loPI   GL116389   7.727   2.235   4.976  0.1835  0.0016 -0.2493
 1025loPI   GL216390   7.788   2.557   4.966  0.0492 -0.0534  0.0952
 1025loPI   C1A16391   7.836   1.968   5.258  0.1319 -0.0900 -0.3200
 1025loPI   C2A16392   8.081   1.920   5.618  0.0669  0.1329 -0.0018
 1025loPI   C3A16393   7.905   1.916   5.952  0.1786 -0.3311  0.2866
 1025loPI   C4A16394   7.652   1.901   6.396  0.0342 -0.0360 -0.0240
 1025loPI   C5A16395   7.358   1.844   6.727  0.3297 -0.0250  0.1141
 1025loPI   C6A16396   7.269   1.472   6.974  0.1651 -0.1056  0.2698
 1025loPI   C1B16397   7.636   2.702   5.321  0.3104 -0.1162  0.1063
 1025loPI   C2B16398   7.498   2.674   5.679 -0.0207  0.1525 -0.1663
 1025loPI   C3B16399   7.699   2.732   6.092 -0.2963 -0.0519 -0.0597
 1025loPI   C4B16400   7.638   3.149   6.346  0.2673  0.0996 -0.1615
 1026loPI    C116401  18.678   7.411   3.871  0.2702  0.0291  0.0884
 1026loPI    C216402  18.762   7.788   3.766 -0.3398  0.1402 -0.0426
 1026loPI    C316403  18.383   7.662   3.772 -0.1353 -0.5209 -0.1502
 1026loPI   PO416404  18.888   7.385   4.076 -0.0235  0.0569  0.2574
 1026loPI   GL116405  18.810   7.316   4.458 -0.0408 -0.0096  0.5797
 1026loPI   GL216406  18.696   7.130   4.598 -0.1292 -0.2403  0.1848
 1026loPI   C1A16407  18.546   7.673   4.730  0.0969  0.2815 -0.1901
 1026loPI   C2A16408  18.358   7.657   5.111 -0.1271  0.1041 -0.1781
 1026loPI   C3A16409  18.519   7.564   5.498 -0.1258  0.1442 -0.0368
 1026loPI   C4A16410  18.544   7.397   5.922 -0.1749  0.0113 -0.1137
 1026loPI   C5A16411  18.624   7.155   6.296  0.2970 -0.2097  0.2144
 1026loPI   C6A16412  18.188   7.282   6.320 -0.1494  0.1565 -0.0143
 1026loPI   C1B16413  18.469   7.200   4.883  0.2055 -0.0603 -0.0659
 1026loPI   C2B16414  18.466   7.021   5.303  0.1154  0.0799 -0.0097
 1026loPI   C3B16415  18.489   6.703   5.616 -0.1897  0.1630  0.2582
 1026loPI   C4B16416  18.457   6.717   6.097  0.2421  0.0246  0.2155
 1027loPI    C116417   7.885  14.235   4.483 -0.0074 -0.1363 -0.0712
 1027loPI    C216418   8.185  14.498   4.474 -0.0754 -0.0652 -0.3571
 1027loPI    C316419   8.260  14.108   4.426  0.0188 -0.0962  0.0109
 1027loPI   PO416420   7.677  14.279   4.667  0.0825  0.3898 -0.1150
 1027loPI   GL116421   7.629  14.302   5.170  0.1864 -0.1704 -0.1062
 1027loPI   GL216422   7.363  14.195   5.109  0.0989  0.1549  0.0444
 1027loPI   C1A16423   7.591  14.437   5.726 -0.4857  0.3421  0.1239
 1027loPI   C2A16424   7.653  14.546   6.153 -0.2910  0.3810 -0.0445
 1027loPI   C3A16425   7.738  14.651   6.656  0.2118 -0.0447  0.0151
 1027loPI   C4A16426   7.710  14.831   7.146 -0.2790 -0.1131  0.0298
 1027loPI   C5A16427   7.833  15.116   7.426 -0.0307  0.0175 -0.0155
 1027loPI   C6A16428   8.014  15.474   7.546 -0.4464  0.1622  0.0577
 1027loPI   C1B16429   7.256  14.105   5.546  0.0630  0.0695  0.4537
 1027loPI   C2B16430   7.353  14.101   5.940  0.1911 -0.0414  0.0598
 1027loPI   C3B16431   7.187  14.354   6.228  0.0371 -0.0149  0.1769
 1027loPI   C4B16432   6.964  14.452   6.612 -0.1563 -0.0400  0.0879
 1028loPI    C116433   1.761   8.983   4.497 -0.0876  0.2451 -0.1288
 1028loPI    C216434   1.669   8.841   4.135 -0.1042  0.2702 -0.1344
 1028loPI    C316435   1.808   9.214   4.174  0.2803  0.1347 -0.1593
 1028loPI   PO416436   1.502   8.842   4.665  0.1155 -0.1186 -0.0271
 1028loPI   GL116437   1.314   8.877   4.990  0.1558  0.2860 -0.0312
 1028loPI   GL216438   1.215   9.203   5.110 -0.3106  0.2604  0.1822
 1028loPI   C1A16439   1.155   8.706   5.344 -0.0669  0.2175  0.0605
 1028loPI   C2A16440   0.968   8.525   5.638 -0.1513  0.0563 -0.0860
 1028loPI   C3A16441   1.012   8.328   5.982 -0.2667  0.2949  0.2292
 1028loPI   C4A16442   0.933   8.226   6.358 -0.0748  0.3755 -0.1604
 1028loPI   C5A16443   1.063   8.225   6.785  0.1158  0.0706  0.0229
 1028loPI   C6A16444   1.342   8.188   7.123 -0.0026  0.0844 -0.3445
 1028loPI   C1B16445   0.848   9.161   5.434  0.0149 -0.0925  0.1844
 1028loPI   C2B16446   0.628   8.888   5.670  0.0771  0.1273 -0.1283
 1028loPI   C3B16447   0.150   8.814   5.702 -0.3454 -0.4332  0.2110
 1028loPI   C4B16448  -0.059   8.853   5.342 -0.0803  0.0001  0.0453
 1029loPI    C116449   3.127   8.877   4.586  0.1233  0.4466 -0.1452
 1029loPI    C216450   2.966   9.068   4.273  0.2196  0.4328 -0.2038
 1029loPI    C316451   3.274   8.818   4.218 -0.1467 -0.0361 -0.1838
 1029loPI   PO416452   3.111   9.177   4.740  0.2364 -0.0603  0.1158
 1029loPI   GL116453   2.896   9.288   5.066 -0.3603 -0.0670 -0.1589
 1029loPI   GL216454   2.690   8.893   5.027  0.1887  0.0864  0.1974
 1029loPI   C1A16455   2.527   9.275   5.463 -0.1722  0.2015 -0.1916
 1029loPI   C2A16456   2.294   9.170   5.760 -0.0734 -0.1293 -0.1248
 1029loPI   C3A16457   1.891   9.093   5.783 -0.3381 -0.2018 -0.0853
 1029loPI   C4A16458   1.601   8.984   6.133 -0.2927 -0.2241  0.1616
 1029loPI   C5A16459   1.607   9.049   6.586  0.0470  0.0858  0.0362
 1029loPI   C6A16460   1.652   9.469   6.633 -0.4344  0.3182  0.1078
 1029loPI   C1B16461   2.924   8.964   5.431 -0.1001  0.1821 -0.0468
 1029loPI   C2B16462   2.818   8.968   5.842 -0.0442  0.4455  0.0851
 1029loPI   C3B16463   2.677   8.785   6.202  0.0149  0.1123  0.0014
 1029loPI   C4B16464   2.945   8.881   6.541 -0.0161 -0.2865  0.0500
 1030loPI    C116465   4.932  11.259   4.964 -0.0036 -0.0875 -0.2427
 1030loPI    C216466   4.545  11.193   4.890 -0.0468 -0.2031  0.0726
 1030loPI    C316467   4.684  11.567   4.910 -0.1161 -0.1633 -0.1625
 1030loPI   PO416468   5.002  10.982   4.940  0.0901 -0.1560 -0.1747
 1030loPI   GL116469   5.227  10.670   5.287  0.0349 -0.0868 -0.0407
 1030loPI   GL216470   4.910  10.835   5.430 -0.0284 -0.0527  0.0975
 1030loPI   C1A16471   5.334  10.470   5.690  0.1184 -0.1981 -0.1136
 1030loPI   C2A16472   5.369  10.418   6.064  0.1578 -0.3115  0.3231
 1030loPI   C3A16473   5.356  10.041   6.266 -0.2086 -0.0069  0.1220
 1030loPI   C4A16474   5.491   9.870   6.510  0.2034  0.1782  0.1540
 1030loPI   C5A16475   5.636   9.883   6.927  0.1027  0.0768  0.0932
 1030loPI   C6A16476   5.875  10.007   7.208  0.0426  0.3096 -0.0733
 1030loPI   C1B16477   4.778  10.672   5.843 -0.0122  0.3548 -0.0025
 1030loPI   C2B16478   4.894  10.544   6.233 -0.6033  0.2564 -0.4480
 1030loPI   C3B16479   5.129  10.508   6.596  0.3607 -0.3717  0.4754
 1030loPI   C4B16480   5.506  10.370   6.647  0.1916 -0.0412 -0.0747
 1031loPI    C116481   5.286   0.586   4.484 -0.2189 -0.0289  0.0652
 1031loPI    C216482   5.346   0.749   4.124 -0.1342 -0.0300  0.0787
 1031loPI    C316483   5.032   0.510   4.185 -0.2246  0.0787  0.0420
 1031loPI   PO416484   5.518   0.819   4.648 -0.0503  0.1572 -0.0443
 1031loPI   GL116485   5.652   0.847   5.089 -0.2358 -0.0426  0.3924
 1031loPI   GL216486   5.937   0.843   5.111 -0.2702 -0.0601 -0.0929
 1031loPI   C1A16487   5.304   0.723   5.376  0.3122  0.4075 -0.0043
 1031loPI   C2A16488   5.215   0.685   5.735  0.5084 -0.2169 -0.4734
 1031loPI   C3A16489   4.966   0.650   6.100  0.3495  0.2259 -0.2261
 1031loPI   C4A16490   4.910   0.629   6.555 -0.0130 -0.3245 -0.0580
 1031loPI   C5A16491   4.854   0.351   6.842 -0.2554 -0.1517 -0.0626
 1031loPI   C6A16492   4.996   0.125   7.163  0.0847  0.3046 -0.0397
 1031loPI   C1B16493   6.201   0.705   5.428 -0.0246 -0.1592 -0.2401
 1031loPI   C2B16494   6.204   0.608   5.751  0.0739 -0.0299 -0.3792
 1031loPI   C3B16495   6.035   0.840   6.015 -0.0100  0.1342 -0.1874
 1031loPI   C4B16496   6.026   1.134   6.066 -0.0419 -0.1411  0.0344
 1032loPI    C116497  17.470  15.810   3.838 -0.1297  0.0236 -0.2618
 1032loPI    C216498  17.523  16.163   3.656 -0.2549  0.0745 -0.2010
 1032loPI    C316499  17.509  15.826   3.440 -0.0031  0.0911 -0.2472
 1032loPI   PO416500  17.710  15.817   4.061 -0.1299 -0.1786  0.1177
 1032loPI   GL116501  17.804  16.002   4.417 -0.1176 -0.0486 -0.0500
 1032loPI   GL216502  17.917  16.263   4.535  0.2201 -0.0252 -0.2970
 1032loPI   C1A16503  17.835  15.805   4.742  0.0870 -0.1920  0.1526
 1032loPI   C2A16504  17.912  15.622   5.176  0.0118 -0.0983 -0.0704
 1032loPI   C3A16505  18.010  15.700   5.618 -0.1693 -0.1103  0.0580
 1032loPI   C4A16506  18.018  15.744   6.020  0.2672 -0.0966 -0.2305
 1032loPI   C5A16507  18.106  15.725   6.432  0.2270 -0.5990  0.4007
 1032loPI   C6A16508  17.921  15.806   6.849  0.0619  0.0562 -0.4225
 1032loPI   C1B16509  17.849  16.228   4.993 -0.1497 -0.1074 -0.0377
 1032loPI   C2B16510  17.681  16.087   5.377  0.0407 -0.0612 -0.1032
 1032loPI   C3B16511  17.633  16.023   5.807 -0.1168 -0.1361 -0.0473
 1032loPI   C4B16512  17.575  16.032   6.141 -0.1587 -0.1259 -0.0209
 1033loPI    C116513  13.500  15.847   4.312 -0.1227 -0.3331 -0.2067
 1033loPI    C216514  13.303  16.134   4.114 -0.0826 -0.2150 -0.0767
 1033loPI    C316515  13.652  15.997   3.974 -0.0140 -0.0738 -0.0459
 1033loPI   PO416516  13.536  15.954   4.597  0.0937 -0.2569  0.1040
 1033loPI   GL116517  13.391  15.950   5.080  0.1452 -0.0416 -0.1297
 1033loPI   GL216518  13.615  16.114   5.278 -0.1722 -0.1890 -0.0324
 1033loPI   C1A16519  13.583  15.652   5.430 -0.0724  0.2114 -0.0143
 1033loPI   C2A16520  13.682  15.342   5.748 -0.2090  0.0222  0.1994
 1033loPI   C3A16521  13.943  15.178   6.123  0.1050  0.0733  0.1293
 1033loPI   C4A16522  14.046  14.861   6.220  0.1614  0.3202  0.0943
 1033loPI   C5A16523  14.398  14.728   6.406 -0.1548 -0.3366 -0.0053
 1033loPI   C6A16524  14.466  14.400   6.545  0.0958 -0.0527  0.1436
 1033loPI   C1B16525  14.016  16.177   5.377  0.1723  0.3228 -0.3378
 1033loPI   C2B16526  14.380  16.033   5.569 -0.5523  0.4028  0.0918
 1033loPI   C3B16527  14.562  16.023   6.018  0.0838 -0.0782  0.0774
 1033loPI   C4B16528  14.898  16.028   6.180 -0.0877 -0.0742 -0.1883
 1034loPI    C116529   0.302  18.570   4.320 -0.1685 -0.1747 -0.2302
 1034loPI    C216530   0.512  18.829   4.100 -0.1814  0.0420  0.0072
 1034loPI    C316531   0.689  18.632   4.399 -0.2523  0.0267  0.0396
 1034loPI   PO416532   0.036  18.620   4.433  0.1385 -0.0154  0.3562
 1034loPI   GL116533   0.073  18.677   4.899  0.0091 -0.1688  0.1334
 1034loPI   GL216534   0.254  18.431   4.894 -0.2135 -0.3248  0.0461
 1034loPI   C1A16535   0.072  18.512   5.363 -0.1171  0.3472 -0.2367
 1034loPI   C2A16536   0.132  18.447   5.786 -0.1046  0.0432  0.1724
 1034loPI   C3A16537   0.190  18.561   6.224 -0.3559 -0.1699 -0.1151
 1034loPI   C4A16538   0.196  18.809   6.484  0.3491 -0.1016 -0.1878
 1034loPI   C5A16539   0.302  18.775   6.921 -0.1230  0.0055  0.1884
 1034loPI   C6A16540   0.424  19.036   7.172 -0.2559  0.1086 -0.1285
 1034loPI   C1B16541   0.504  18.818   5.115  0.4268  0.0697 -0.1790
 1034loPI   C2B16542   0.356  19.270   5.302  0.2235  0.0591  0.1368
 1034loPI   C3B16543  -0.015  19.392   5.576 -0.2006 -0.1551 -0.1609
 1034loPI   C4B16544  -0.004  19.915   5.764  0.2578  0.3561  0.1434
 1035loPI    C116545  17.134  16.824   4.196 -0.0544 -0.1052  0.1672
 1035loPI    C216546  17.045  16.505   3.973 -0.0068 -0.0339  0.0456
 1035loPI    C316547  16.753  16.717   4.144 -0.0810  0.2186 -0.3788
 1035loPI   PO416548  17.371  16.694   4.374  0.0718 -0.1316  0.0440
 1035loPI   GL116549  17.578  16.614   4.750  0.0813  0.0502 -0.2225
 1035loPI   GL216550  17.294  16.455   4.756  0.2626 -0.0662 -0.3433
 1035loPI   C1A16551  17.502  16.542   5.157 -0.2697 -0.2980  0.1301
 1035loPI   C2A16552  17.335  16.779   5.475  0.1966  0.0135 -0.3369
 1035loPI   C3A16553  17.297  17.010   5.900  0.1085  0.0363 -0.1570
 1035loPI   C4A16554  17.398  17.029   6.361  0.1898 -0.3884  0.1250
 1035loPI   C5A16555  17.790  17.150   6.522  0.0676 -0.0884 -0.1850
 1035loPI   C6A16556  17.839  17.682   6.511 -0.0558  0.3330  0.2655
 1035loPI   C1B16557  17.035  16.585   5.103 -0.2490 -0.0449 -0.3113
 1035loPI   C2B16558  16.859  16.717   5.531  0.1035 -0.0344 -0.1353
 1035loPI   C3B16559  16.836  16.469   5.873  0.1561  0.0833  0.0081
 1035loPI   C4B16560  16.685  16.335   6.260  0.0461 -0.2706  0.2166
 1036loPI    C116561  13.441   4.396   4.682  0.1836  0.2885  0.2064
 1036loPI    C216562  13.682   4.604   4.440  0.0989  0.0619 -0.0773
 1036loPI    C316563  13.837   4.354   4.711  0.1874  0.0610 -0.1286
 1036loPI   PO416564  13.290   4.683   4.791  0.1570 -0.1974 -0.0899
 1036loPI   GL116565  13.314   4.893   5.222  0.2275 -0.1430  0.0439
 1036loPI   GL216566  13.594   4.793   5.229  0.1003  0.0019  0.2513
 1036loPI   C1A16567  13.199   5.088   5.595 -0.0003  0.2972  0.1259
 1036loPI   C2A16568  13.276   4.977   6.089  0.1645 -0.1262 -0.0197
 1036loPI   C3A16569  13.532   4.980   6.542 -0.2028 -0.0927 -0.0555
 1036loPI   C4A16570  13.560   4.831   6.953 -0.0836  0.2490  0.2430
 1036loPI   C5A16571  13.933   4.772   7.226  0.1329 -0.3979 -0.0302
 1036loPI   C6A16572  13.657   4.746   7.557 -0.1661  0.0525  0.0914
 1036loPI   C1B16573  13.762   4.378   5.219 -0.1703 -0.0989  0.0303
 1036loPI   C2B16574  14.055   4.164   5.043  0.1087 -0.1220  0.0479
 1036loPI   C3B16575  14.460   4.091   4.845 -0.0147  0.2340 -0.0019
 1036loPI   C4B16576  14.915   4.253   4.719  0.3309 -0.2113  0.0206
 1037loPI    C116577  12.509  19.453   4.038  0.1324  0.0245  0.2340
 1037loPI    C216578  12.316  19.116   3.941  0.2195 -0.0203  0.2150
 1037loPI    C316579  12.251  19.452   3.733  0.0768 -0.0066  0.2811
 1037loPI   PO416580  12.444  19.430   4.314 -0.0348 -0.1045  0.2991
 1037loPI   GL116581  12.484  19.578   4.833  0.1011 -0.0908 -0.1582
 1037loPI   GL216582  12.610  19.327   4.793 -0.1657 -0.0162  0.2514
 1037loPI   C1A16583  12.319  19.603   5.261 -0.2421 -0.0787 -0.2526
 1037loPI   C2A16584  12.449  19.670   5.772  0.0740  0.0615 -0.3470
 1037loPI   C3A16585  12.749  19.647   6.030 -0.0822 -0.1316 -0.1979
 1037loPI   C4A16586  13.142  19.511   6.261 -0.2621  0.4697 -0.2688
 1037loPI   C5A16587  13.255  19.254   6.633  0.1609  0.1575 -0.0351
 1037loPI   C6A16588  13.052  19.312   7.027 -0.1039 -0.1694  0.0283
 1037loPI   C1B16589  12.647  19.256   5.193 -0.1608  0.0429  0.0527
 1037loPI   C2B16590  12.486  19.118   5.617  0.0701  0.1343 -0.1774
 1037loPI   C3B16591  12.503  19.096   6.033 -0.2190 -0.2975  0.1454
 1037loPI   C4B16592  12.082  19.015   6.188 -0.3657 -0.0046  0.0109
 1038loPI    C116593  13.581   5.536   4.334  0.0650 -0.1477 -0.0401
 1038loPI    C216594  13.772   5.828   4.138  0.1729 -0.1500  0.0603
 1038loPI    C316595  13.377   5.786   4.098  0.1720 -0.0553 -0.0362
 1038loPI   PO416596  13.662   5.518   4.563 -0.2170  0.0225 -0.0358
 1038loPI   GL116597  13.646   5.611   4.958  0.2441 -0.0995 -0.0298
 1038loPI   GL216598  13.527   5.370   5.288  0.0804  0.2521 -0.1890
 1038loPI   C1A16599  13.884   5.824   5.265  0.3145 -0.1585 -0.0743
 1038loPI   C2A16600  13.929   5.929   5.745 -0.2733  0.1182 -0.0743
 1038loPI   C3A16601  13.824   5.866   6.224  0.0181  0.2013 -0.0266
 1038loPI   C4A16602  13.940   5.836   6.633 -0.1888  0.1479  0.1071
 1038loPI   C5A16603  13.690   5.836   6.985  0.0517  0.0032 -0.1333
 1038loPI   C6A16604  13.581   5.891   7.340  0.2114 -0.0805 -0.4107
 1038loPI   C1B16605  13.815   5.304   5.440  0.0418  0.0495  0.0116
 1038loPI   C2B16606  14.167   5.167   5.560  0.0371  0.0054 -0.0539
 1038loPI   C3B16607  14.376   5.040   5.981 -0.0791 -0.1566  0.0627
 1038loPI   C4B16608  14.671   5.009   6.276  0.4982 -0.2005  0.2278
 1039loPI    C116609   4.964   1.154   4.405  0.0001  0.1198  0.1247
 1039loPI    C216610   4.564   1.145   4.406  0.0011  0.0193 -0.0174
 1039loPI    C316611   4.768   0.953   4.120  0.1510  0.0836  0.0450
 1039loPI   PO416612   4.975   1.421   4.631 -0.1813  0.1976 -0.1444
 1039loPI   GL116613   4.994   1.494   5.102 -0.0457  0.3506  0.2844
 1039loPI   GL216614   4.865   1.793   5.096  0.0401 -0.0622  0.0786
 1039loPI   C1A16615   5.073   1.593   5.570  0.0387  0.0109 -0.0180
 1039loPI   C2A16616   5.193   1.796   5.853  0.0155 -0.1540 -0.2615
 1039loPI   C3A16617   5.322   1.770   6.274 -0.0356 -0.2923  0.0674
 1039loPI   C4A16618   5.546   1.691   6.731  0.1016  0.1729 -0.1259
 1039loPI   C5A16619   5.899   1.695   6.960  0.0485 -0.0218 -0.2253
 1039loPI   C6A16620   6.359   1.695   6.963 -0.1978 -0.1685  0.0300
 1039loPI   C1B16621   5.135   2.128   5.447  0.1316  0.4201 -0.3756
 1039loPI   C2B16622   5.493   2.205   5.788  0.0462  0.0572  0.0938
 1039loPI   C3B16623   5.840   2.119   6.154 -0.0987  0.2205  0.1830
 1039loPI   C4B16624   5.975   1.889   6.513  0.2164 -0.2021  0.1117
 1040loPI    C116625   4.831   4.235   4.882  0.2043  0.0428  0.1153
 1040loPI    C216626   4.831   3.929   4.623  0.1248  0.2264 -0.1048
 1040loPI    C316627   4.501   4.150   4.672  0.1357  0.1865  0.1642
 1040loPI   PO416628   4.987   4.411   4.839  0.2102  0.2372  0.0493
 1040loPI   GL116629   4.926   4.792   5.164 -0.3338 -0.1097  0.2110
 1040loPI   GL216630   4.741   4.570   5.263 -0.0541 -0.1860 -0.3140
 1040loPI   C1A16631   5.136   4.902   5.556  0.0657  0.1910  0.0514
 1040loPI   C2A16632   5.297   5.131   5.819  0.2446  0.1333 -0.0294
 1040loPI   C3A16633   5.476   5.312   6.147 -0.0555  0.1798 -0.1440
 1040loPI   C4A16634   5.396   5.376   6.568 -0.5557 -0.0749 -0.2536
 1040loPI   C5A16635   5.280   5.399   7.016  0.0241  0.0853  0.5112
 1040loPI   C6A16636   4.930   5.251   7.294  0.1276 -0.1806 -0.1246
 1040loPI   C1B16637   4.667   4.777   5.695  0.3038 -0.1405  0.1381
 1040loPI   C2B16638   4.873   4.788   6.037 -0.1859  0.1725  0.2550
 1040loPI   C3B16639   4.765   4.478   6.388 -0.1135  0.0334  0.0684
 1040loPI   C4B16640   4.604   4.544   6.802  0.2539  0.0615 -0.0862
 1041loPI    C116641   4.330  15.915   4.712  0.1233  0.0281 -0.0948
 1041loPI    C216642   4.023  15.660   4.691 -0.0817  0.2540  0.1065
 1041loPI    C316643   4.118  15.884   4.374 -0.0476  0.0974  0.0050
 1041loPI   PO416644   4.261  16.067   4.942 -0.1542 -0.1173  0.1300
 1041loPI   GL116645   4.416  16.084   5.425 -0.4079  0.1976  0.0749
 1041loPI   GL216646   4.068  16.113   5.427 -0.0644 -0.1714 -0.1756
 1041loPI   C1A16647   4.398  16.144   5.850 -0.0287 -0.0588 -0.0678
 1041loPI   C2A16648   4.219  15.962   6.217 -0.1142 -0.0113 -0.1808
 1041loPI   C3A16649   3.936  15.902   6.379 -0.1273  0.3111 -0.2806
 1041loPI   C4A16650   3.659  15.788   6.607 -0.0792 -0.3712  0.0385
 1041loPI   C5A16651   3.342  15.840   6.874 -0.0414 -0.0455 -0.0290
 1041loPI   C6A16652   3.177  15.565   7.210 -0.0387 -0.1114  0.0247
 1041loPI   C1B16653   3.887  15.960   5.697 -0.2274  0.0788 -0.0088
 1041loPI   C2B16654   3.694  15.674   6.030 -0.2821 -0.2244 -0.2612
 1041loPI   C3B16655   3.501  15.343   6.317  0.0696  0.1876  0.1094
 1041loPI   C4B16656   3.332  14.972   6.420 -0.4371  0.2828  0.0415
 1042loPI    C116657   7.895  18.916   4.200  0.3334 -0.1895 -0.1203
 1042loPI    C216658   7.727  18.557   4.260  0.1635 -0.1114 -0.1228
 1042loPI    C316659   7.997  18.606   3.969  0.1554 -0.2269 -0.1502
 1042loPI   PO416660   7.881  19.022   4.434  0.1088 -0.4567 -0.0416
 1042loPI   GL116661   7.992  19.047   4.871 -0.2017 -0.0928 -0.0296
 1042loPI   GL216662   7.931  18.835   5.056 -0.1859 -0.2060  0.0776
 1042loPI   C1A16663   8.286  19.251   5.054 -0.5336  0.0020  0.5361
 1042loPI   C2A16664   8.627  19.600   5.223  0.0381  0.0508 -0.1100
 1042loPI   C3A16665   8.933  19.494   5.457 -0.1086 -0.0049 -0.1234
 1042loPI   C4A16666   9.086  19.509   5.883 -0.3800  0.0484 -0.0008
 1042loPI   C5A16667   8.811  19.574   6.305  0.3132  0.1590  0.1218
 1042loPI   C6A16668   8.603  19.370   6.573  0.2701 -0.0690 -0.1922
 1042loPI   C1B16669   7.866  18.937   5.487 -0.0156  0.1022  0.0098
 1042loPI   C2B16670   7.638  19.201   5.734 -0.2697 -0.1173 -0.1092
 1042loPI   C3B16671   7.445  19.452   6.027  0.3249 -0.2088  0.1762
 1042loPI   C4B16672   7.603  19.669   6.394  0.1755 -0.1056  0.0075
 1043loPI    C116673  19.205   1.095   4.355  0.1879 -0.2254 -0.0133
 1043loPI    C216674  18.862   0.996   4.175 -0.0485  0.0471  0.2736
 1043loPI    C316675  19.132   1.218   3.982 -0.0869 -0.0630  0.0904
 1043loPI   PO416676  19.099   1.130   4.635 -0.3047 -0.1252  0.0549
 1043loPI   GL116677  19.034   1.047   5.079  0.2306  0.1241  0.0898
 1043loPI   GL216678  18.742   0.897   4.983 -0.2341 -0.1903  0.4081
 1043loPI   C1A16679  19.156   1.202   5.464  0.2534  0.1847  0.0672
 1043loPI   C2A16680  19.248   1.191   5.884 -0.0083 -0.0839 -0.0471
 1043loPI   C3A16681  19.411   1.252   6.334 -0.2866  0.1636  0.1491
 1043loPI   C4A16682  19.733   1.095   6.606  0.0899 -0.1334 -0.2635
 1043loPI   C5A16683  19.963   0.743   6.479  0.0083 -0.1427 -0.2326
 1043loPI   C6A16684  20.251   0.458   6.482  0.1839 -0.1870 -0.1797
 1043loPI   C1B16685  18.743   0.587   5.213  0.0111  0.0407 -0.3554
 1043loPI   C2B16686  18.703   0.411   5.652  0.0002  0.0793  0.1001
 1043loPI   C3B16687  18.682   0.071   6.071 -0.0131 -0.0260 -0.2898
 1043loPI   C4B16688  18.384  -0.368   6.201  0.2249  0.1253 -0.3348
 1044loPI    C116689  10.562   0.597   4.304 -0.0270 -0.0180  0.2013
 1044loPI    C216690  10.879   0.538   4.067  0.1626  0.0847  0.4264
 1044loPI    C316691  10.625   0.838   3.991  0.0920 -0.0261  0.2187
 1044loPI   PO416692  10.617   0.525   4.469  0.1513  0.0273  0.1534
 1044loPI   GL116693  10.444   0.407   4.815 -0.3954 -0.1719  0.0677
 1044loPI   GL216694  10.718   0.539   4.923  0.1546 -0.0832  0.1700
 1044loPI   C1A16695  10.426   0.187   5.055  0.1748 -0.1604 -0.1665
 1044loPI   C2A16696  10.554  -0.013   5.431  0.0146  0.1026 -0.1267
 1044loPI   C3A16697  10.604  -0.158   5.736  0.1880  0.2718  0.3999
 1044loPI   C4A16698  10.323  -0.033   6.080  0.1566 -0.0954 -0.1402
 1044loPI   C5A16699  10.186   0.233   6.411 -0.3127 -0.1753  0.0625
 1044loPI   C6A16700  10.192   0.658   6.681  0.0674  0.1704  0.0936
 1044loPI   C1B16701  10.558   0.810   5.233 -0.3960  0.3450 -0.4284
 1044loPI   C2B16702  10.565   0.861   5.695  0.1324  0.0493  0.3014
 1044loPI   C3B16703  10.583   0.981   6.125  0.4520 -0.0252 -0.0796
 1044loPI   C4B16704  10.564   1.005   6.512 -0.1354  0.0682 -0.1277
 1045loPI    C116705  11.814   5.065   4.196 -0.2905  0.0086  0.0232
 1045loPI    C216706  11.648   5.410   4.310 -0.1550  0.1542 -0.2126
 1045loPI    C316707  11.708   5.336   3.921  0.0840 -0.0102 -0.1463
 1045loPI   PO416708  11.736   4.919   4.474  0.0339  0.1559  0.2012
 1045loPI   GL116709  11.808   4.849   4.856 -0.0150  0.2175 -0.2272
 1045loPI   GL216710  11.671   5.021   5.101  0.0811 -0.2632 -0.1456
 1045loPI   C1A16711  12.015   4.601   5.294  0.2374 -0.0642  0.0042
 1045loPI   C2A16712  12.011   4.645   5.836 -0.2923 -0.0117  0.0403
 1045loPI   C3A16713  12.007   4.773   6.281  0.1836  0.0973  0.1910
 1045loPI   C4A16714  12.128   4.579   6.685  0.0318 -0.0278 -0.2450
 1045loPI   C5A16715  12.365   4.213   6.863  0.1004  0.0276 -0.0766
 1045loPI   C6A16716  12.703   3.908   6.777  0.2819 -0.1355  0.0503
 1045loPI   C1B16717  11.709   4.978   5.543  0.1672  0.3172  0.2663
 1045loPI   C2B16718  11.582   5.077   6.029 -0.1291 -0.5062  0.2616
 1045loPI   C3B16719  11.271   5.261   6.308 -0.0909 -0.3645 -0.0885
 1045loPI   C4B16720  10.979   5.255   6.629 -0.1154 -0.2761  0.0022
 1046loPI    C116721   5.590   2.154   4.559 -0.2320 -0.0331 -0.1796
 1046loPI    C216722   5.575   2.292   4.184 -0.0851  0.0724 -0.1475
 1046loPI    C316723   5.915   2.136   4.326 -0.1320  0.0583 -0.0495
 1046loPI   PO416724   5.481   2.301   4.710  0.0229 -0.1240 -0.2857
 1046loPI   GL116725   5.462   2.252   5.127 -0.3244  0.0336  0.4031
 1046loPI   GL216726   5.856   2.258   5.141  0.3423 -0.1020 -0.0115
 1046loPI   C1A16727   5.590   1.891   5.426 -0.2626  0.2862  0.0469
 1046loPI   C2A16728   5.636   1.664   5.822  0.1884 -0.1833 -0.1023
 1046loPI   C3A16729   5.701   1.463   6.277 -0.0392  0.1566  0.0923
 1046loPI   C4A16730   5.412   1.218   6.599 -0.0019  0.0723  0.1386
 1046loPI   C5A16731   5.243   1.051   6.922  0.2442 -0.2180 -0.1101
 1046loPI   C6A16732   5.390   0.933   7.272  0.1759 -0.0269 -0.0886
 1046loPI   C1B16733   5.957   2.279   5.589  0.3965 -0.1203  0.2875
 1046loPI   C2B16734   6.063   2.599   5.963 -0.2558 -0.0587 -0.1114
 1046loPI   C3B16735   5.908   2.655   6.423  0.1837 -0.2374 -0.3481
 1046loPI   C4B16736   5.970   3.094   6.575  0.1168 -0.0458 -0.1850
 1047loPI    C116737  11.885   7.026   4.333 -0.3067 -0.0425  0.3013
 1047loPI    C216738  11.532   6.880   4.213 -0.1955 -0.1778  0.1339
 1047loPI    C316739  11.804   6.993   3.943 -0.0913 -0.1197  0.2617
 1047loPI   PO416740  12.090   7.020   4.560  0.1036 -0.0946  0.2124
 1047loPI   GL116741  12.206   7.113   4.826  0.0309 -0.0069  0.2106
 1047loPI   GL216742  12.067   7.455   4.917  0.2164 -0.3162  0.0629
 1047loPI   C1A16743  12.257   7.166   5.322 -0.1732 -0.3845  0.0821
 1047loPI   C2A16744  12.281   6.910   5.666 -0.0407  0.0429  0.2597
 1047loPI   C3A16745  12.444   6.903   6.029  0.0159  0.0435 -0.0513
 1047loPI   C4A16746  12.292   6.949   6.376 -0.1806  0.2885 -0.0468
 1047loPI   C5A16747  12.150   6.797   6.711 -0.0329 -0.0661  0.0498
 1047loPI   C6A16748  12.043   6.747   7.102 -0.0444 -0.3446 -0.0714
 1047loPI   C1B16749  12.085   7.622   5.354 -0.0546  0.1593  0.1927
 1047loPI   C2B16750  12.252   7.848   5.604  0.1378  0.0523 -0.1154
 1047loPI   C3B16751  12.097   8.095   5.960 -0.0242 -0.0668 -0.0592
 1047loPI   C4B16752  12.196   8.199   6.354  0.5455 -0.3266 -0.2849
 1048loPI    C116753  13.772   9.534   3.949  0.2437  0.0864 -0.0534
 1048loPI    C216754  13.524   9.816   3.810  0.0641 -0.0183  0.0499
 1048loPI    C316755  13.601   9.491   3.590  0.0104 -0.0450  0.0705
 1048loPI   PO416756  13.701   9.504   4.232  0.2647 -0.0009 -0.2412
 1048loPI   GL116757  13.694   9.719   4.565 -0.0410 -0.0225  0.2434
 1048loPI   GL216758  13.931   9.705   4.802  0.1098  0.0368 -0.1392
 1048loPI   C1A16759  13.428   9.512   4.823 -0.0782  0.0467 -0.0522
 1048loPI   C2A16760  13.234   9.518   5.180  0.0406 -0.0683 -0.0465
 1048loPI   C3A16761  13.442   9.323   5.630  0.1979  0.0395 -0.1472
 1048loPI   C4A16762  13.565   9.322   6.073 -0.2194 -0.0695  0.3142
 1048loPI   C5A16763  13.487   9.297   6.530  0.2215 -0.1659 -0.0172
 1048loPI   C6A16764  13.445   8.969   6.924 -0.2196  0.3257  0.1054
 1048loPI   C1B16765  13.682   9.819   5.141 -0.0780  0.2977 -0.0887
 1048loPI   C2B16766  13.588   9.792   5.614  0.0538 -0.0480  0.0529
 1048loPI   C3B16767  13.686   9.940   6.093  0.2046 -0.0022 -0.2020
 1048loPI   C4B16768  13.715   9.938   6.583  0.2105 -0.1471 -0.1000
 1049loPI    C116769  16.612   5.450   4.108 -0.1183  0.2533  0.1669
 1049loPI    C216770  16.962   5.512   3.924 -0.1379  0.0287  0.0498
 1049loPI    C316771  16.621   5.531   3.716 -0.1874  0.1281  0.1389
 1049loPI   PO416772  16.703   5.594   4.378 -0.0808 -0.0155  0.0482
 1049loPI   GL116773  16.655   5.722   4.736  0.1343 -0.0052  0.1798
 1049loPI   GL216774  17.018   5.795   4.718 -0.2084  0.3615  0.1905
 1049loPI   C1A16775  16.800   5.557   5.232  0.0367  0.2821  0.0170
 1049loPI   C2A16776  16.862   5.560   5.571 -0.0442 -0.2999 -0.1056
 1049loPI   C3A16777  16.664   5.644   5.997 -0.1371  0.1821  0.0629
 1049loPI   C4A16778  16.586   5.809   6.413 -0.2375 -0.1569 -0.1930
 1049loPI   C5A16779  16.762   6.072   6.588 -0.0054 -0.3063 -0.1854
 1049loPI   C6A16780  17.061   6.417   6.748  0.1734 -0.3058 -0.0702
 1049loPI   C1B16781  17.188   5.929   5.056 -0.1977 -0.1076 -0.1730
 1049loPI   C2B16782  17.358   6.155   5.406  0.1605  0.1343  0.1125
 1049loPI   C3B16783  17.593   6.220   5.807  0.1123  0.0455 -0.0900
 1049loPI   C4B16784  17.575   6.268   6.272  0.2168 -0.0349  0.0994
 1050loPI    C116785   3.377  14.171   4.331  0.1535 -0.1081 -0.0526
 1050loPI    C216786   3.695  14.172   4.088  0.1909 -0.2359 -0.0050
 1050loPI    C316787   3.345  14.029   3.958  0.1189  0.0197 -0.0990
 1050loPI   PO416788   3.369  14.007   4.636 -0.3578  0.2106 -0.0527
 1050loPI   GL116789   3.253  13.975   5.075  0.3241 -0.2437 -0.3685
 1050loPI   GL216790   3.155  14.244   5.028  0.1301 -0.2923 -0.3591
 1050loPI   C1A16791   3.438  13.858   5.470 -0.0227  0.1140 -0.0796
 1050loPI   C2A16792   3.384  13.817   5.970 -0.0416 -0.0734 -0.1640
 1050loPI   C3A16793   2.986  14.044   6.235  0.0481 -0.0991 -0.1072
 1050loPI   C4A16794   2.863  13.885   6.604  0.3497  0.2196  0.0035
 1050loPI   C5A16795   3.033  13.862   7.114 -0.0507 -0.0876  0.1120
 1050loPI   C6A16796   3.105  14.066   7.446 -0.1589 -0.0540 -0.1743
 1050loPI   C1B16797   3.050  14.211   5.496  0.0351 -0.1323  0.0531
 1050loPI   C2B16798   3.276  14.319   5.960  0.0769  0.2629  0.0655
 1050loPI   C3B16799   3.453  14.084   6.317 -0.3522  0.2103 -0.2547
 1050loPI   C4B16800   3.333  13.950   6.706 -0.0663 -0.0916 -0.1018
 1051loPI    C116801  13.931  12.435   3.879 -0.1561  0.0017 -0.0272
 1051loPI    C216802  13.712  12.118   3.771 -0.0854  0.0033 -0.1780
 1051loPI    C316803  13.916  12.323   3.495  0.2704 -0.1211 -0.0130
 1051loPI   PO416804  13.799  12.528   3.983  0.0702  0.1008 -0.1919
 1051loPI   GL116805  13.596  12.604   4.417 -0.0075  0.0833 -0.0484
 1051loPI   GL216806  13.418  12.577   4.570  0.0685  0.2054 -0.0953
 1051loPI   C1A16807  13.869  12.755   4.817 -0.0169  0.0960 -0.2019
 1051loPI   C2A16808  13.741  13.140   5.013  0.0515  0.0932 -0.0876
 1051loPI   C3A16809  13.696  13.554   5.345 -0.1222 -0.1903 -0.1587
 1051loPI   C4A16810  13.973  13.823   5.603 -0.1207 -0.5683 -0.0908
 1051loPI   C5A16811  14.347  13.734   5.889 -0.2296  0.0214 -0.3204
 1051loPI   C6A16812  14.405  14.045   6.194 -0.1572 -0.2439  0.0923
 1051loPI   C1B16813  13.443  12.380   4.989  0.0179 -0.3716  0.0769
 1051loPI   C2B16814  13.647  12.405   5.444 -0.1798  0.1385  0.0496
 1051loPI   C3B16815  13.490  12.652   5.873 -0.2091 -0.3955  0.0032
 1051loPI   C4B16816  13.182  12.574   6.274 -0.0175  0.1298 -0.0945
 1052loPI    C116817   9.906  14.040   4.362 -0.4352 -0.1218 -0.0904
 1052loPI    C216818  10.128  13.760   4.181 -0.1241  0.0458  0.0252
 1052loPI    C316819  10.119  14.133   4.037  0.0418  0.1543  0.2868
 1052loPI   PO416820   9.944  13.907   4.641 -0.1121 -0.1055  0.1630
 1052loPI   GL116821  10.039  13.900   5.042 -0.0839 -0.2531 -0.0386
 1052loPI   GL216822   9.804  13.871   5.188  0.3805  0.0210 -0.3816
 1052loPI   C1A16823  10.305  14.004   5.508  0.0225  0.2290 -0.0353
 1052loPI   C2A16824  10.411  14.111   5.876 -0.0141  0.1460  0.0099
 1052loPI   C3A16825  10.661  14.287   6.257  0.1938  0.1740 -0.2300
 1052loPI   C4A16826  10.982  14.588   6.492  0.2426  0.1785  0.1965
 1052loPI   C5A16827  10.903  14.973   6.641 -0.0781 -0.2251 -0.2621
 1052loPI   C6A16828  10.869  15.109   6.985 -0.2723 -0.0956  0.3306
 1052loPI   C1B16829   9.845  13.797   5.675  0.0725  0.3378 -0.0791
 1052loPI   C2B16830  10.064  13.509   5.907  0.2992 -0.0112  0.0968
 1052loPI   C3B16831  10.301  13.395   6.155 -0.2993 -0.0198  0.0854
 1052loPI   C4B16832  10.638  13.289   6.372  0.1540 -0.0129 -0.1214
 1053loPI    C116833  16.929   7.319   3.442  0.0433 -0.0642  0.2044
 1053loPI    C216834  17.234   7.492   3.249 -0.0271  0.0354  0.1822
 1053loPI    C316835  17.107   7.130   3.138 -0.0930  0.1092  0.0138
 1053loPI   PO416836  16.963   7.366   3.713 -0.0218 -0.0623  0.2555
 1053loPI   GL116837  16.876   7.578   4.042 -0.0841 -0.0254 -0.3548
 1053loPI   GL216838  16.636   7.610   4.286  0.0629 -0.3053 -0.0447
 1053loPI   C1A16839  17.080   7.333   4.325 -0.1959  0.1648 -0.1679
 1053loPI   C2A16840  17.029   6.952   4.638  0.0840 -0.3859 -0.1697
 1053loPI   C3A16841  16.892   6.865   5.001 -0.0146 -0.1194 -0.0176
 1053loPI   C4A16842  16.599   6.835   5.301  0.0913  0.3043  0.1056
 1053loPI   C5A16843  16.535   7.151   5.724  0.0525  0.0657  0.0910
 1053loPI   C6A16844  16.834   7.302   5.983 -0.1442 -0.2156 -0.1083
 1053loPI   C1B16845  16.850   7.675   4.626  0.0374  0.2836 -0.1195
 1053loPI   C2B16846  17.071   7.748   5.027  0.1684 -0.0814 -0.1438
 1053loPI   C3B16847  17.104   7.643   5.488 -0.2033 -0.3715 -0.2284
 1053loPI   C4B16848  17.045   7.736   5.927 -0.0916  0.0423 -0.0495
 1054loPI    C116849   1.694  13.122   4.227 -0.2047 -0.3773  0.1017
 1054loPI    C216850   1.557  13.449   4.041 -0.0640 -0.2432  0.2315
 1054loPI    C316851   1.715  13.149   3.829  0.2520 -0.0184  0.1426
 1054loPI   PO416852   1.858  13.211   4.452  0.2040 -0.1183 -0.0099
 1054loPI   GL116853   1.833  13.021   4.911  0.1306 -0.0897  0.3491
 1054loPI   GL216854   2.105  12.920   5.015 -0.0481 -0.0317 -0.2456
 1054loPI   C1A16855   1.393  13.173   5.162 -0.0462 -0.1428  0.0099
 1054loPI   C2A16856   1.149  13.243   5.564 -0.0705  0.2667 -0.1949
 1054loPI   C3A16857   1.071  13.510   5.913  0.2064 -0.2255  0.0049
 1054loPI   C4A16858   1.111  13.698   6.368  0.0053 -0.1117 -0.0342
 1054loPI   C5A16859   1.339  13.876   6.738 -0.0627 -0.1845  0.0263
 1054loPI   C6A16860   1.669  13.855   7.023 -0.1474 -0.1698 -0.0441
 1054loPI   C1B16861   2.041  13.150   5.414 -0.1217 -0.0082 -0.0683
 1054loPI   C2B16862   1.999  13.018   5.813 -0.1668  0.0185  0.2678
 1054loPI   C3B16863   2.159  12.873   6.247  0.1142  0.1218  0.2481
 1054loPI   C4B16864   2.382  12.646   6.608  0.0037 -0.4063  0.2828
 1055loPI    C116865   0.114   8.341   3.956  0.0736 -0.1115 -0.0972
 1055loPI    C216866   0.419   8.589   4.028  0.0167 -0.0789  0.0363
 1055loPI    C316867   0.213   8.619   3.687 -0.0037  0.0716  0.0614
 1055loPI   PO416868  -0.048   8.359   4.182 -0.0182 -0.0888  0.0520
 1055loPI   GL116869  -0.008   8.414   4.651  0.1539  0.1246  0.3006
 1055loPI   GL216870  -0.111   8.037   4.693 -0.1106  0.1507 -0.1581
 1055loPI   C1A16871   0.024   8.507   5.033 -0.3931 -0.3875 -0.0745
 1055loPI   C2A16872  -0.366   8.406   5.423 -0.0943 -0.2101 -0.0294
 1055loPI   C3A16873  -0.659   8.357   5.691 -0.1528  0.2594  0.3134
 1055loPI   C4A16874  -0.702   8.439   6.199 -0.1414  0.1392 -0.0747
 1055loPI   C5A16875  -0.612   8.439   6.692  0.0462  0.5695  0.0122
 1055loPI   C6A16876  -0.512   8.613   7.116  0.1026 -0.1186 -0.1183
 1055loPI   C1B16877  -0.094   8.033   5.184  0.1457 -0.2044  0.1445
 1055loPI   C2B16878   0.112   8.267   5.485  0.0050 -0.1525  0.0023
 1055loPI   C3B16879  -0.070   8.339   5.887  0.1634 -0.1289 -0.2181
 1055loPI   C4B16880  -0.263   8.534   6.024 -0.1144 -0.0305  0.2474
 1056loPI    C116881   2.754   4.283   4.708  0.1663  0.1638 -0.1451
 1056loPI    C216882   2.775   3.908   4.571  0.1139  0.1507 -0.1177
 1056loPI    C316883   3.089   4.153   4.533  0.2583  0.0099  0.1392
 1056loPI   PO416884   2.633   4.276   4.888  0.0881 -0.1845 -0.1492
 1056loPI   GL116885   2.612   4.632   5.082 -0.0233 -0.0299  0.2055
 1056loPI   GL216886   2.764   4.656   5.334 -0.0795 -0.2828 -0.1302
 1056loPI   C1A16887   2.306   4.734   5.405  0.0836 -0.0701 -0.1219
 1056loPI   C2A16888   1.975   4.655   5.777 -0.3308  0.2047 -0.0496
 1056loPI   C3A16889   2.006   4.257   5.986  0.1516 -0.0251 -0.0134
 1056loPI   C4A16890   2.271   4.142   6.374 -0.2956 -0.0473 -0.1297
 1056loPI   C5A16891   2.481   4.300   6.707 -0.0151  0.1328  0.1199
 1056loPI   C6A16892   2.661   4.317   7.132 -0.1979 -0.1785  0.1676
 1056loPI   C1B16893   2.871   4.732   5.721  0.2512  0.1497 -0.2983
 1056loPI   C2B16894   3.195   4.833   5.925 -0.0424  0.0931  0.1194
 1056loPI   C3B16895   3.456   4.623   6.127 -0.1132  0.1411 -0.0767
 1056loPI   C4B16896   3.783   4.243   6.185  0.2021 -0.0807 -0.1062
 1057loPI    C116897  15.019  18.579   3.881  0.0841  0.2039  0.2186
 1057loPI    C216898  15.119  18.848   3.603  0.1489  0.1236  0.1638
 1057loPI    C316899  14.781  18.892   3.811 -0.0451  0.0343 -0.1250
 1057loPI   PO416900  15.290  18.598   4.100  0.0430  0.3113 -0.2101
 1057loPI   GL116901  15.449  18.555   4.562 -0.0674  0.2322 -0.0547
 1057loPI   GL216902  15.330  18.409   4.845 -0.1562  0.0026  0.0694
 1057loPI   C1A16903  15.622  18.842   4.917  0.0515  0.4175  0.0541
 1057loPI   C2A16904  15.691  18.969   5.379  0.2754 -0.0231 -0.1387
 1057loPI   C3A16905  15.684  19.132   5.758 -0.3724 -0.2663 -0.1321
 1057loPI   C4A16906  15.817  19.277   6.204  0.0059  0.1472  0.2477
 1057loPI   C5A16907  16.076  19.278   6.454  0.1058  0.0755  0.2040
 1057loPI   C6A16908  16.420  19.360   6.754  0.3201 -0.1171 -0.1693
 1057loPI   C1B16909  15.250  18.508   5.292  0.0491  0.0296 -0.0942
 1057loPI   C2B16910  15.260  18.684   5.586  0.1566  0.2132 -0.3314
 1057loPI   C3B16911  15.482  18.665   5.815 -0.1233  0.0496 -0.2265
 1057loPI   C4B16912  15.747  18.701   6.189  0.1391  0.0105 -0.1440
 1058loPI    C116913   5.589  11.657   4.660  0.4201  0.0254  0.0315
 1058loPI    C216914   5.630  11.425   4.337  0.2635 -0.0366  0.0551
 1058loPI    C316915   5.472  11.791   4.302  0.2071 -0.0596  0.0674
 1058loPI   PO416916   5.509  11.439   4.814  0.0588  0.0189 -0.0930
 1058loPI   GL116917   5.422  11.198   5.187  0.2144  0.2762 -0.0689
 1058loPI   GL216918   5.729  11.252   5.439  0.0892 -0.4319 -0.0211
 1058loPI   C1A16919   5.289  11.112   5.589 -0.2694  0.0207  0.0201
 1058loPI   C2A16920   5.285  10.922   5.972 -0.4372  0.0631 -0.1580
 1058loPI   C3A16921   5.333  10.941   6.456  0.0759 -0.2349 -0.2439
 1058loPI   C4A16922   5.354  10.851   6.900 -0.1760 -0.1140  0.4229
 1058loPI   C5A16923   5.422  11.147   7.156 -0.0964  0.1063 -0.2192
 1058loPI   C6A16924   5.517  11.615   7.412  0.2252  0.0391  0.1367
 1058loPI   C1B16925   5.755  11.272   5.881 -0.3099 -0.3975 -0.1366
 1058loPI   C2B16926   5.685  11.308   6.271  0.0376  0.0172  0.1087
 1058loPI   C3B16927   5.694  11.263   6.704 -0.1599 -0.0855  0.0607
 1058loPI   C4B16928   5.827  11.502   6.991  0.2152 -0.1299 -0.1198
 1059loPI    C116929  15.476   0.175   3.980  0.1004  0.2295 -0.0058
 1059loPI    C216930  15.368   0.543   4.093 -0.0656  0.1920 -0.0393
 1059loPI    C316931  15.351   0.439   3.707 -0.4240  0.0191  0.0185
 1059loPI   PO416932  15.516   0.081   4.248  0.0554  0.0607 -0.1066
 1059loPI   GL116933  15.417  -0.092   4.677 -0.1037  0.0277 -0.4051
 1059loPI   GL216934  15.688  -0.160   4.712 -0.0839  0.1710 -0.0106
 1059loPI   C1A16935  15.462   0.200   5.047 -0.0071  0.3614  0.1196
 1059loPI   C2A16936  15.482   0.073   5.434 -0.2324 -0.0059 -0.3035
 1059loPI   C3A16937  15.612  -0.013   5.851 -0.0817 -0.2270 -0.1346
 1059loPI   C4A16938  15.804  -0.207   6.185 -0.1292 -0.1394 -0.0982
 1059loPI   C5A16939  15.812  -0.198   6.605  0.4094 -0.2061 -0.0043
 1059loPI   C6A16940  15.814  -0.496   6.856  0.0412  0.1141 -0.1395
 1059loPI   C1B16941  15.820  -0.238   5.105 -0.2585  0.2549  0.2472
 1059loPI   C2B16942  15.922  -0.336   5.568 -0.1324  0.4097  0.1566
 1059loPI   C3B16943  16.378  -0.267   5.563  0.1807 -0.2700 -0.0513
 1059loPI   C4B16944  16.641  -0.442   5.344  0.2653 -0.0542  0.1521
 1060loPI    C116945   1.165  14.166   4.135  0.1020 -0.1667  0.0707
 1060loPI    C216946   1.377  13.905   3.918 -0.0472 -0.1875 -0.0516
 1060loPI    C316947   1.075  14.107   3.750 -0.0629 -0.0863  0.0961
 1060loPI   PO416948   1.132  14.112   4.343 -0.2619  0.0816  0.1559
 1060loPI   GL116949   1.333  14.104   4.782 -0.2151  0.3211  0.4367
 1060loPI   GL216950   1.502  13.816   4.861 -0.0844 -0.0557 -0.1128
 1060loPI   C1A16951   1.231  14.186   5.194 -0.5684  0.2136 -0.2090
 1060loPI   C2A16952   1.140  14.317   5.665 -0.4709 -0.2447  0.0767
 1060loPI   C3A16953   1.031  14.247   6.083  0.3606 -0.0542 -0.2285
 1060loPI   C4A16954   0.998  14.232   6.534  0.0295 -0.2647  0.0056
 1060loPI   C5A16955   0.883  14.313   6.834  0.2248 -0.1619  0.1813
 1060loPI   C6A16956   0.680  14.690   6.982  0.1468 -0.0762 -0.2092
 1060loPI   C1B16957   1.666  13.960   5.293 -0.1767 -0.0037  0.1527
 1060loPI   C2B16958   1.780  14.128   5.644 -0.1621 -0.0908  0.1370
 1060loPI   C3B16959   1.802  14.322   6.041 -0.0565 -0.4672  0.1145
 1060loPI   C4B16960   1.463  14.260   6.341  0.2641  0.2081 -0.1913
 1061loPI    C116961   9.474  19.922   3.911 -0.1831  0.0174  0.0539
 1061loPI    C216962   9.653  19.948   3.555 -0.2589  0.0043  0.0147
 1061loPI    C316963   9.407  19.643   3.633  0.0363 -0.1907  0.2053
 1061loPI   PO416964   9.593  19.844   4.183  0.1800 -0.0389  0.2082
 1061loPI   GL116965   9.593  19.828   4.677 -0.0030  0.2446 -0.0957
 1061loPI   GL216966   9.283  19.775   4.675  0.0102 -0.1913  0.0421
 1061loPI   C1A16967   9.812  19.973   4.972  0.3074  0.0153 -0.0336
 1061loPI   C2A16968  10.005  19.794   5.270 -0.1394 -0.2964 -0.3241
 1061loPI   C3A16969  10.060  19.964   5.638  0.2352  0.1116  0.0798
 1061loPI   C4A16970   9.986  20.312   5.936  0.0439 -0.1013  0.0187
 1061loPI   C5A16971   9.918  20.627   6.278 -0.0800 -0.0307  0.0631
 1061loPI   C6A16972   9.746  20.829   6.647 -0.1800  0.0320  0.2958
 1061loPI   C1B16973   9.274  19.913   5.159  0.0395  0.0815  0.2017
 1061loPI   C2B16974   9.109  19.969   5.583  0.2002 -0.2977 -0.1574
 1061loPI   C3B16975   9.091  20.136   5.910 -0.0160 -0.0261  0.2382
 1061loPI   C4B16976   8.943  20.329   6.291  0.0104  0.5316 -0.2104
 1062loPI    C116977   5.779  10.130   4.328 -0.1993  0.2988 -0.0262
 1062loPI    C216978   5.380  10.119   4.352 -0.1982  0.0259 -0.0982
 1062loPI    C316979   5.564  10.008   4.014 -0.0484 -0.2026  0.0556
 1062loPI   PO416980   5.929  10.111   4.563  0.0767 -0.0244 -0.0232
 1062loPI   GL116981   5.870  10.108   4.965  0.1360  0.0109 -0.1897
 1062loPI   GL216982   5.663  10.013   5.172 -0.0149 -0.1458 -0.0643
 1062loPI   C1A16983   6.138  10.106   5.318  0.1705 -0.0331  0.1945
 1062loPI   C2A16984   6.283  10.074   5.750 -0.1303 -0.0484  0.1605
 1062loPI   C3A16985   6.487  10.097   6.121  0.0675 -0.1388  0.3255
 1062loPI   C4A16986   6.495  10.196   6.593 -0.0630 -0.0883  0.0584
 1062loPI   C5A16987   6.674  10.340   6.835 -0.2239 -0.2293  0.3340
 1062loPI   C6A16988   6.917  10.133   6.980  0.0984  0.1411 -0.1382
 1062loPI   C1B16989   5.706  10.174   5.498 -0.1476 -0.1658  0.0011
 1062loPI   C2B16990   5.759  10.146   5.930  0.0097  0.1348  0.0365
 1062loPI   C3B16991   5.885  10.283   6.351  0.0874  0.0093  0.0490
 1062loPI   C4B16992   6.070  10.287   6.795 -0.3610 -0.0848 -0.0360
 1063loPI    C116993   6.469   5.059   4.631 -0.1982 -0.1159 -0.0223
 1063loPI    C216994   6.512   4.707   4.818  0.2392 -0.1002 -0.0838
 1063loPI    C316995   6.635   4.750   4.439  0.3421  0.1628 -0.0233
 1063loPI   PO416996   6.509   5.271   4.889 -0.2850  0.2312 -0.0416
 1063loPI   GL116997   6.673   5.378   5.245  0.1128  0.3274  0.1631
 1063loPI   GL216998   6.370   5.369   5.427  0.1193  0.0009 -0.3530
 1063loPI   C1A16999   6.819   5.212   5.682 -0.1962 -0.2463  0.0712
 1063loPI   C2A17000   6.940   5.058   6.121 -0.4589  0.2315  0.2911
 1063loPI   C3A17001   7.006   4.816   6.458 -0.0996  0.2384 -0.0935
 1063loPI   C4A17002   7.346   4.840   6.673  0.0152  0.2506 -0.1809
 1063loPI   C5A17003   7.255   4.921   7.096  0.1087  0.4831 -0.2948
 1063loPI   C6A17004   6.977   4.931   7.301  0.1337 -0.0946 -0.1975
 1063loPI   C1B17005   6.164   5.164   5.839  0.0644  0.0214  0.3054
 1063loPI   C2B17006   6.377   5.013   6.142  0.0297  0.1472 -0.1947
 1063loPI   C3B17007   6.549   5.216   6.533 -0.1229 -0.0481 -0.2126
 1063loPI   C4B17008   6.764   5.077   6.821 -0.0865 -0.1133  0.0027
 1064loPI    C117009  18.704  15.773   3.889  0.2577 -0.0510 -0.0050
 1064loPI    C217010  18.437  16.066   3.834 -0.1405 -0.4006  0.0092
 1064loPI    C317011  18.488  15.787   3.552  0.1474 -0.3895  0.0475
 1064loPI   PO417012  18.730  15.748   4.131 -0.2424  0.1363  0.3951
 1064loPI   GL117013  18.551  15.791   4.524 -0.2354  0.1123  0.1042
 1064loPI   GL217014  18.804  15.889   4.676 -0.0023 -0.3463 -0.2496
 1064loPI   C1A17015  18.289  16.044   4.827  0.1498  0.0767 -0.2175
 1064loPI   C2A17016  18.272  16.151   5.313  0.3341 -0.3463 -0.0167
 1064loPI   C3A17017  18.371  16.051   5.707 -0.4174  0.0304  0.0004
 1064loPI   C4A17018  18.492  15.952   6.095 -0.0693 -0.1079 -0.2662
 1064loPI   C5A17019  18.716  15.803   6.487  0.2067  0.1042 -0.0993
 1064loPI   C6A17020  18.911  16.081   6.937 -0.1242 -0.1120  0.3313
 1064loPI   C1B17021  18.729  16.042   5.024 -0.1004 -0.0957 -0.0071
 1064loPI   C2B17022  18.880  16.098   5.476  0.2162  0.1392  0.0583
 1064loPI   C3B17023  18.844  16.263   5.892 -0.0150 -0.0597  0.2129
 1064loPI   C4B17024  18.689  16.537   6.242 -0.1698  0.1032  0.0968
 1065loPI    C117025  12.745  11.072   4.338 -0.0718  0.3876  0.1097
 1065loPI    C217026  12.782  11.235   3.975  0.1465  0.0568 -0.0221
 1065loPI    C317027  12.516  10.943   4.037  0.0875  0.1343  0.0936
 1065loPI   PO417028  12.698  11.313   4.571  0.1419 -0.1613  0.1521
 1065loPI   GL117029  12.673  11.173   4.985  0.0950 -0.3742 -0.2234
 1065loPI   GL217030  12.786  10.864   4.878  0.0956 -0.2442  0.2214
 1065loPI   C1A17031  12.478  11.224   5.400 -0.0310 -0.0954  0.1764
 1065loPI   C2A17032  12.371  10.950   5.732 -0.0208  0.0677  0.1470
 1065loPI   C3A17033  12.540  10.696   6.141  0.1281 -0.1393  0.0795
 1065loPI   C4A17034  12.697  10.558   6.666 -0.2477 -0.5461  0.0657
 1065loPI   C5A17035  12.381  10.646   6.916 -0.1591  0.0470  0.0877
 1065loPI   C6A17036  12.121  10.932   7.057 -0.1148  0.3265 -0.3244
 1065loPI   C1B17037  12.953  11.061   5.323  0.0646 -0.2291 -0.2467
 1065loPI   C2B17038  12.901  11.259   5.786 -0.1493  0.2353  0.0460
 1065loPI   C3B17039  12.766  11.644   5.920 -0.4038 -0.4099  0.0019
 1065loPI   C4B17040  12.532  11.989   5.996 -0.1851  0.1155  0.0440
 1066loPI    C117041   7.699   7.860   4.530  0.0016 -0.0879 -0.1474
 1066loPI    C217042   7.950   7.868   4.219 -0.0262 -0.0824 -0.1695
 1066loPI    C317043   7.878   8.202   4.427  0.1327 -0.1247 -0.0451
 1066loPI   PO417044   7.746   7.616   4.718 -0.1527  0.0786  0.1975
 1066loPI   GL117045   8.175   7.372   4.924 -0.1691 -0.0173 -0.1510
 1066loPI   GL217046   8.123   7.621   5.139 -0.0670 -0.0764  0.0012
 1066loPI   C1A17047   8.453   7.126   5.236 -0.0865 -0.1489  0.0090
 1066loPI   C2A17048   8.589   7.085   5.701  0.1347  0.0573  0.0428
 1066loPI   C3A17049   8.829   7.104   6.083  0.1305  0.2216 -0.0787
 1066loPI   C4A17050   8.951   7.413   6.459 -0.2859  0.1610  0.0403
 1066loPI   C5A17051   9.223   7.546   6.746 -0.3037  0.3088  0.1125
 1066loPI   C6A17052   9.250   7.920   6.992 -0.0341 -0.2494 -0.2236
 1066loPI   C1B17053   8.093   7.496   5.608 -0.1781  0.3598 -0.2398
 1066loPI   C2B17054   8.318   7.410   5.994  0.0103  0.0545  0.3243
 1066loPI   C3B17055   8.442   7.361   6.380 -0.1366  0.0227  0.0005
 1066loPI   C4B17056   8.413   7.241   6.825 -0.1096  0.0754  0.1692
 1067loPI    C117057  13.353   2.069   4.250  0.0407  0.1512  0.2795
 1067loPI    C217058  12.998   2.083   4.066  0.2554 -0.1808 -0.1769
 1067loPI    C317059  13.281   2.351   3.976  0.1479  0.0447  0.1405
 1067loPI   PO417060  13.334   2.049   4.514  0.1051  0.0235 -0.0061
 1067loPI   GL117061  13.202   1.996   4.853 -0.0113  0.1173  0.1577
 1067loPI   GL217062  12.888   2.138   4.924 -0.0080 -0.0323  0.2785
 1067loPI   C1A17063  13.100   1.751   5.191  0.2490  0.0967  0.0408
 1067loPI   C2A17064  13.003   1.786   5.678  0.0411  0.0394 -0.0155
 1067loPI   C3A17065  12.865   1.872   6.090  0.2699 -0.1034  0.0523
 1067loPI   C4A17066  12.772   2.084   6.415  0.4412 -0.2320  0.0216
 1067loPI   C5A17067  12.521   2.065   6.801 -0.0089 -0.0075 -0.3691
 1067loPI   C6A17068  12.504   2.315   7.112 -0.4637 -0.0504 -0.0137
 1067loPI   C1B17069  12.951   2.229   5.359  0.0724 -0.0000  0.0681
 1067loPI   C2B17070  13.268   2.250   5.725  0.3482  0.1345  0.1350
 1067loPI   C3B17071  13.379   1.930   6.064  0.0999 -0.3559  0.2178
 1067loPI   C4B17072  13.536   1.464   6.029  0.1839  0.3552  0.0729
 1068loPI    C117073  13.966   6.519   4.278 -0.1106  0.1951 -0.1030
 1068loPI    C217074  13.611   6.351   4.199 -0.0207  0.0275 -0.1546
 1068loPI    C317075  13.915   6.308   3.942  0.0620  0.0985 -0.0697
 1068loPI   PO417076  13.903   6.493   4.567  0.1754  0.2394  0.1244
 1068loPI   GL117077  13.814   6.689   4.857 -0.1704 -0.0031  0.1360
 1068loPI   GL217078  13.858   6.801   5.186  0.0481 -0.1523 -0.1321
 1068loPI   C1A17079  13.550   6.378   5.159  0.0561 -0.0221  0.3975
 1068loPI   C2A17080  13.567   6.260   5.654  0.0753  0.0673  0.0798
 1068loPI   C3A17081  13.515   6.214   6.040 -0.2061  0.2703 -0.2455
 1068loPI   C4A17082  13.470   6.116   6.534  0.0452 -0.1230  0.0096
 1068loPI   C5A17083  13.436   6.254   7.052 -0.2450 -0.2921 -0.2367
 1068loPI   C6A17084  13.204   6.167   7.322 -0.0789 -0.2453  0.2946
 1068loPI   C1B17085  13.790   6.938   5.616  0.1259  0.0796 -0.0111
 1068loPI   C2B17086  13.758   6.628   6.049  0.1947 -0.1655  0.0013
 1068loPI   C3B17087  13.740   6.558   6.450 -0.1066 -0.0879  0.1004
 1068loPI   C4B17088  13.481   6.756   6.803  0.0574  0.0081 -0.0339
 1069loPI    C117089  13.445   6.870   4.251  0.2378 -0.1930 -0.0917
 1069loPI    C217090  13.126   6.916   4.488  0.2633  0.1270 -0.1155
 1069loPI    C317091  13.115   6.654   4.187  0.1257 -0.0683  0.0570
 1069loPI   PO417092  13.651   6.904   4.438  0.5593  0.5260 -0.0127
 1069loPI   GL117093  13.460   7.078   4.787  0.0114 -0.0614  0.1591
 1069loPI   GL217094  13.779   7.196   4.849  0.1214 -0.0776 -0.3923
 1069loPI   C1A17095  13.438   7.054   5.222 -0.0644  0.1675 -0.0170
 1069loPI   C2A17096  13.323   7.156   5.643  0.0223 -0.2091 -0.0150
 1069loPI   C3A17097  13.519   7.112   6.015  0.1237  0.0938  0.0627
 1069loPI   C4A17098  13.902   7.234   6.076 -0.1542 -0.0190 -0.1241
 1069loPI   C5A17099  14.253   7.188   6.343  0.1000 -0.3779 -0.1757
 1069loPI   C6A17100  14.643   7.231   6.649 -0.0353 -0.1110  0.3747
 1069loPI   C1B17101  13.900   7.271   5.189 -0.0463  0.0773 -0.1007
 1069loPI   C2B17102  14.027   7.486   5.536  0.0080 -0.0743 -0.1780
 1069loPI   C3B17103  13.962   7.930   5.631  0.1255 -0.0462  0.2028
 1069loPI   C4B17104  14.053   8.092   5.949  0.0391  0.5253 -0.3116
 1070loPI    C117105   8.978   3.004   4.745 -0.1126  0.1820 -0.3369
 1070loPI    C217106   8.865   3.076   4.368  0.0035  0.0157 -0.4043
 1070loPI    C317107   9.213   2.893   4.441 -0.0598 -0.0325 -0.2191
 1070loPI   PO417108   8.995   3.281   4.909 -0.0805  0.0828  0.1767
 1070loPI   GL117109   8.739   3.356   5.246  0.0789 -0.0797  0.0028
 1070loPI   GL217110   8.799   3.693   5.093  0.1275 -0.1154  0.0994
 1070loPI   C1A17111   8.902   3.100   5.594  0.2280 -0.2489 -0.0899
 1070loPI   C2A17112   9.234   2.878   5.719 -0.0461  0.0114 -0.0195
 1070loPI   C3A17113   9.545   2.951   6.075 -0.1246  0.2568  0.2961
 1070loPI   C4A17114   9.513   2.826   6.531  0.2012 -0.1258  0.1962
 1070loPI   C5A17115   9.327   2.344   6.653  0.0838  0.2077 -0.0300
 1070loPI   C6A17116   9.369   1.994   6.459  0.0834 -0.1247  0.0528
 1070loPI   C1B17117   8.907   3.819   5.474 -0.0316  0.2564  0.2480
 1070loPI   C2B17118   8.669   3.753   5.843  0.0829 -0.0090 -0.0904
 1070loPI   C3B17119   8.581   3.739   6.266 -0.0908  0.2039  0.0267
 1070loPI   C4B17120   8.313   3.785   6.672  0.1110 -0.0486  0.0350
 1071loPI    C117121   4.523   5.655   4.357  0.2059 -0.1437  0.0004
 1071loPI    C217122   4.364   5.418   4.078  0.1335 -0.2355  0.1186
 1071loPI    C317123   4.513   5.775   3.976  0.0004 -0.2183 -0.0187
 1071loPI   PO417124   4.362   5.486   4.633 -0.0303 -0.0401 -0.0572
 1071loPI   GL117125   4.233   5.733   5.091  0.0098  0.4397 -0.0053
 1071loPI   GL217126   4.497   5.563   5.122  0.1282  0.1717 -0.1798
 1071loPI   C1A17127   4.146   5.785   5.477 -0.0315 -0.1848 -0.1520
 1071loPI   C2A17128   4.141   6.155   5.719  0.0211  0.1693 -0.1800
 1071loPI   C3A17129   3.992   6.234   6.113  0.0628 -0.2780  0.3782
 1071loPI   C4A17130   3.927   6.358   6.552  0.1216 -0.2727 -0.0237
 1071loPI   C5A17131   3.727   6.418   6.963 -0.0714 -0.0674  0.0005
 1071loPI   C6A17132   3.826   6.635   7.308 -0.0673  0.0203  0.0768
 1071loPI   C1B17133   4.701   5.252   5.463  0.0941  0.0256  0.0116
 1071loPI   C2B17134   4.788   5.313   5.797  0.3279 -0.2603  0.0715
 1071loPI   C3B17135   4.939   5.237   6.215  0.0729 -0.2244 -0.1797
 1071loPI   C4B17136   4.904   5.373   6.674  0.1212  0.1057 -0.0718
 1072loPI    C117137   6.110  10.556   4.486 -0.0828 -0.2386 -0.1435
 1072loPI    C217138   6.325  10.881   4.574 -0.3023 -0.0457 -0.3090
 1072loPI    C317139   6.496  10.576   4.381 -0.1231  0.0160 -0.2504
 1072loPI   PO417140   5.995  10.575   4.688  0.0721  0.2163 -0.3136
 1072loPI   GL117141   5.993  10.650   5.229  0.0060 -0.0698  0.0781
 1072loPI   GL217142   5.737  10.573   5.235 -0.0485  0.3195  0.1971
 1072loPI   C1A17143   6.169  10.564   5.578  0.0395 -0.1542 -0.0677
 1072loPI   C2A17144   6.133  10.505   5.983  0.3938  0.0845 -0.1143
 1072loPI   C3A17145   6.319  10.661   6.360 -0.1122 -0.2262  0.2892
 1072loPI   C4A17146   6.336  10.743   6.815  0.2001 -0.0072  0.1533
 1072loPI   C5A17147   6.261  10.569   7.181  0.0570  0.1550 -0.2387
 1072loPI   C6A17148   6.049  10.411   7.518  0.1275 -0.2058  0.1009
 1072loPI   C1B17149   5.728  10.821   5.716 -0.1501  0.2511 -0.0474
 1072loPI   C2B17150   5.735  10.811   6.211 -0.1173  0.2635  0.1060
 1072loPI   C3B17151   5.848  10.707   6.661  0.1498  0.2458  0.0826
 1072loPI   C4B17152   5.948  10.940   7.063  0.1603 -0.0814 -0.2875
 1073loPI    C117153  16.793   9.196   4.013 -0.0509  0.1188  0.0366
 1073loPI    C217154  16.818   9.007   3.661 -0.0733  0.1044  0.0427
 1073loPI    C317155  16.885   9.400   3.682  0.1842  0.0608  0.0650
 1073loPI   PO417156  16.532   9.039   4.112 -0.0675 -0.1673  0.2841
 1073loPI   GL117157  16.499   8.912   4.500  0.1887  0.3304  0.0553
 1073loPI   GL217158  16.361   9.080   4.723  0.2575  0.1165 -0.0208
 1073loPI   C1A17159  16.768   8.714   4.817  0.1212 -0.2286 -0.2260
 1073loPI   C2A17160  17.212   8.729   4.928 -0.2310 -0.1217  0.0773
 1073loPI   C3A17161  17.525   9.060   5.200 -0.1214  0.0923  0.4367
 1073loPI   C4A17162  17.476   9.236   5.630 -0.1667  0.3815 -0.2156
 1073loPI   C5A17163  17.266   9.150   6.004  0.1083 -0.2523  0.3596
 1073loPI   C6A17164  17.187   8.911   6.347 -0.0366 -0.1692  0.0979
 1073loPI   C1B17165  16.429   9.130   5.164  0.1761  0.1450  0.1491
 1073loPI   C2B17166  16.268   9.322   5.554 -0.0860 -0.2189 -0.0127
 1073loPI   C3B17167  16.369   9.536   5.838  0.2399  0.1600  0.0852
 1073loPI   C4B17168  16.497   9.730   6.259  0.0586  0.0282 -0.1382
 1074loPI    C117169   4.813   0.703   4.646 -0.0412 -0.1391  0.0328
 1074loPI    C217170   4.416   0.727   4.684 -0.0264 -0.0035  0.1092
 1074loPI    C317171   4.576   0.488   4.406 -0.1651  0.0912 -0.0546
 1074loPI   PO417172   4.920   0.601   4.897 -0.5018  0.0379  0.4788
 1074loPI   GL117173   4.810   0.724   5.245  0.4354 -0.2186 -0.4061
 1074loPI   GL217174   4.616   0.489   5.280 -0.0212  0.1231 -0.1253
 1074loPI   C1A17175   4.666   0.765   5.709 -0.2613  0.2403  0.0384
 1074loPI   C2A17176   4.528   0.981   6.077  0.0721  0.2220 -0.0531
 1074loPI   C3A17177   4.426   0.907   6.461  0.1085  0.1693 -0.0931
 1074loPI   C4A17178   4.461   0.704   6.806 -0.0734  0.1886 -0.0212
 1074loPI   C5A17179   4.604   0.555   7.225 -0.1413  0.0728 -0.2385
 1074loPI   C6A17180   4.929   0.396   7.545 -0.1336  0.0834 -0.0183
 1074loPI   C1B17181   4.259   0.444   5.576 -0.1602  0.0091  0.0620
 1074loPI   C2B17182   4.204   0.569   5.887 -0.0448 -0.0087  0.1822
 1074loPI   C3B17183   4.084   0.482   6.218  0.1882  0.0443  0.2429
 1074loPI   C4B17184   3.978   0.537   6.596 -0.0890 -0.0224  0.1379
 1075loPI    C117185   8.345  11.804   4.837  0.2523 -0.0078 -0.0406
 1075loPI    C217186   8.659  11.957   4.642  0.2412 -0.0156 -0.0646
 1075loPI    C317187   8.526  11.591   4.551  0.1333  0.0461 -0.1568
 1075loPI   PO417188   8.288  11.982   5.067 -0.0885 -0.2975 -0.0292
 1075loPI   GL117189   8.283  12.191   5.366  0.1124 -0.3382 -0.1617
 1075loPI   GL217190   8.506  12.168   5.548  0.1410  0.0264 -0.3587
 1075loPI   C1A17191   8.003  12.220   5.757  0.0159  0.1284  0.1675
 1075loPI   C2A17192   8.113  12.206   6.156  0.1336 -0.3013 -0.2443
 1075loPI   C3A17193   8.189  12.066   6.642  0.2845  0.1903 -0.1725
 1075loPI   C4A17194   8.134  12.361   6.949  0.1605  0.0287 -0.2560
 1075loPI   C5A17195   8.337  12.647   7.379 -0.0895  0.2057 -0.2382
 1075loPI   C6A17196   8.361  13.004   7.565 -0.0453  0.0168  0.0446
 1075loPI   C1B17197   8.718  12.289   5.873 -0.3350  0.0451 -0.0133
 1075loPI   C2B17198   9.032  12.440   6.197 -0.1783  0.1087 -0.0975
 1075loPI   C3B17199   9.232  12.459   6.569  0.1610  0.3196  0.2694
 1075loPI   C4B17200   9.296  12.723   6.947 -0.1445  0.2896  0.0379
 1076loPI    C117201   5.571  19.215   4.270 -0.1864 -0.0740 -0.0463
 1076loPI    C217202   5.266  19.190   4.012 -0.0310  0.0024 -0.2402
 1076loPI    C317203   5.629  19.300   3.883  0.1755 -0.4725 -0.0886
 1076loPI   PO417204   5.441  19.163   4.532 -0.1386  0.0824  0.0885
 1076loPI   GL117205   5.468  19.213   4.907 -0.0339 -0.0874  0.1917
 1076loPI   GL217206   5.104  19.236   4.927 -0.1905 -0.0837  0.1088
 1076loPI   C1A17207   5.438  19.467   5.375 -0.0219  0.1512  0.1726
 1076loPI   C2A17208   5.443  19.893   5.636  0.1551  0.2736 -0.0734
 1076loPI   C3A17209   5.284  20.178   6.014 -0.0044  0.0358  0.0358
 1076loPI   C4A17210   5.130  20.130   6.449 -0.0406 -0.0513 -0.0610
 1076loPI   C5A17211   5.420  20.101   6.897  0.1425 -0.0007  0.1539
 1076loPI   C6A17212   5.500  19.825   7.261 -0.1988 -0.0485  0.0884
 1076loPI   C1B17213   5.085  19.071   5.337 -0.1449 -0.0784 -0.0513
 1076loPI   C2B17214   5.163  19.302   5.800  0.2842  0.2597 -0.2971
 1076loPI   C3B17215   5.477  19.532   5.988 -0.0925  0.1864 -0.2228
 1076loPI   C4B17216   5.614  19.885   6.387  0.1825  0.1111 -0.2983
 1077loPI    C117217   3.521   3.333   4.300  0.1092 -0.3138  0.1370
 1077loPI    C217218   3.576   2.948   4.205 -0.3088 -0.3585  0.0582
 1077loPI    C317219   3.292   3.161   4.020  0.2001  0.1114 -0.2092
 1077loPI   PO417220   3.540   3.311   4.595 -0.3109 -0.0702 -0.6439
 1077loPI   GL117221   3.488   3.010   5.030 -0.0008  0.0972  0.0605
 1077loPI   GL217222   3.621   2.705   5.188  0.0287 -0.0654  0.2451
 1077loPI   C1A17223   3.376   3.044   5.486  0.0679  0.0180 -0.3782
 1077loPI   C2A17224   3.371   3.289   5.895 -0.1200  0.2099 -0.0401
 1077loPI   C3A17225   3.417   3.495   6.350  0.2018 -0.3298 -0.0971
 1077loPI   C4A17226   3.173   3.677   6.704  0.1217  0.1403  0.1964
 1077loPI   C5A17227   2.997   3.969   7.013 -0.0130  0.0685 -0.0755
 1077loPI   C6A17228   2.922   3.910   7.342  0.0324  0.2498  0.3821
 1077loPI   C1B17229   3.814   2.841   5.574 -0.5040  0.0127 -0.1640
 1077loPI   C2B17230   3.946   2.733   5.974  0.0151 -0.0125 -0.3478
 1077loPI   C3B17231   4.201   2.625   6.376  0.0481  0.1017 -0.1584
 1077loPI   C4B17232   4.188   2.250   6.622  0.1949 -0.0013 -0.1402
 1078loPI    C117233  19.258  10.979   4.033 -0.0479  0.1081  0.1327
 1078loPI    C217234  19.582  11.174   3.901 -0.1213  0.1664  0.0377
 1078loPI    C317235  19.216  11.313   3.817 -0.1767 -0.0616 -0.1094
 1078loPI   PO417236  19.268  10.999   4.321 -0.0067 -0.3118  0.0720
 1078loPI   GL117237  19.174  11.202   4.609 -0.1725 -0.0257  0.2239
 1078loPI   GL217238  19.325  11.099   4.855 -0.2666  0.2005 -0.1728
 1078loPI   C1A17239  19.020  11.611   4.956  0.0355  0.1045  0.1430
 1078loPI   C2A17240  18.806  11.584   5.443 -0.4321  0.2240 -0.0032
 1078loPI   C3A17241  18.668  11.671   5.869 -0.0508  0.2383  0.0002
 1078loPI   C4A17242  18.489  11.541   6.251 -0.1451 -0.0382  0.1223
 1078loPI   C5A17243  18.128  11.337   6.453  0.0859 -0.1765 -0.1774
 1078loPI   C6A17244  17.862  11.410   6.721  0.0264  0.0427 -0.2065
 1078loPI   C1B17245  19.149  11.194   5.267 -0.0071 -0.1137  0.1046
 1078loPI   C2B17246  19.106  11.163   5.660 -0.0483  0.2618  0.1627
 1078loPI   C3B17247  19.047  11.373   6.074  0.3353 -0.1249  0.1562
 1078loPI   C4B17248  19.369  11.590   6.253  0.1466  0.2475 -0.2881
 1079loPI    C117249   5.924  15.668   4.875  0.0880  0.2981  0.0298
 1079loPI    C217250   5.858  15.539   4.502 -0.0041  0.0477  0.1300
 1079loPI    C317251   6.192  15.743   4.588  0.0630  0.0236 -0.0681
 1079loPI   PO417252   5.684  15.506   5.034 -0.1835  0.1067  0.2102
 1079loPI   GL117253   5.846  15.426   5.347  0.1063  0.1856  0.2838
 1079loPI   GL217254   5.534  15.427   5.586  0.2070 -0.1520  0.0184
 1079loPI   C1A17255   6.083  15.522   5.742 -0.0172  0.1323  0.0262
 1079loPI   C2A17256   6.154  15.654   6.097 -0.0025  0.3078 -0.0517
 1079loPI   C3A17257   6.271  15.775   6.562  0.1394  0.2369 -0.0225
 1079loPI   C4A17258   6.262  16.091   6.843  0.1764 -0.1923 -0.0504
 1079loPI   C5A17259   6.038  16.487   7.039 -0.2885  0.4149  0.0449
 1079loPI   C6A17260   6.000  16.926   7.176  0.1250 -0.1195 -0.1310
 1079loPI   C1B17261   5.682  15.449   6.052  0.2228  0.1144 -0.2490
 1079loPI   C2B17262   5.945  15.273   6.387 -0.4344 -0.1880 -0.2651
 1079loPI   C3B17263   6.320  15.220   6.440 -0.1465 -0.1090 -0.6043
 1079loPI   C4B17264   6.822  15.040   6.474  0.0336 -0.2515 -0.2597
 1080loPI    C117265   3.456  15.717   4.449 -0.0723 -0.0755 -0.0965
 1080loPI    C217266   3.577  16.076   4.321 -0.1017 -0.0712 -0.1126
 1080loPI    C317267   3.210  15.945   4.230 -0.0372 -0.1694 -0.2356
 1080loPI   PO417268   3.511  15.660   4.680 -0.1122 -0.3031  0.0804
 1080loPI   GL117269   3.330  15.570   5.153  0.1311  0.2405 -0.1194
 1080loPI   GL217270   3.375  15.859   5.296  0.1096  0.0740  0.2015
 1080loPI   C1A17271   3.095  15.272   5.425  0.1222 -0.1144  0.1698
 1080loPI   C2A17272   3.033  14.947   5.676 -0.1425  0.3604  0.1649
 1080loPI   C3A17273   2.928  14.737   6.096 -0.0190  0.0540 -0.0231
 1080loPI   C4A17274   3.055  14.533   6.338 -0.0946  0.0481  0.1079
 1080loPI   C5A17275   3.049  14.375   6.791  0.1873  0.0597 -0.0512
 1080loPI   C6A17276   3.305  14.333   7.100 -0.3145 -0.1247 -0.1619
 1080loPI   C1B17277   3.368  15.920   5.774  0.0775  0.1932 -0.2533
 1080loPI   C2B17278   3.473  16.069   6.196 -0.2562 -0.0959  0.5157
 1080loPI   C3B17279   3.217  16.341   6.480  0.0315  0.1131  0.1627
 1080loPI   C4B17280   3.403  16.507   6.929  0.0460  0.3011 -0.2028
 1081loPI    C117281   4.636  17.894   4.269 -0.0094 -0.0924  0.0826
 1081loPI    C217282   4.844  17.556   4.225  0.1014 -0.0091 -0.0383
 1081loPI    C317283   5.021  17.909   4.165 -0.0710  0.0629 -0.1291
 1081loPI   PO417284   4.573  17.821   4.554  0.3804  0.1066 -0.1584
 1081loPI   GL117285   4.631  17.861   5.015  0.0254 -0.0832  0.0622
 1081loPI   GL217286   4.583  17.572   5.178  0.2378 -0.1422 -0.0361
 1081loPI   C1A17287   4.725  17.868   5.541 -0.0856  0.0610  0.2883
 1081loPI   C2A17288   4.896  17.999   5.913 -0.2365  0.1519  0.0592
 1081loPI   C3A17289   4.850  17.902   6.308  0.2832 -0.0120 -0.1849
 1081loPI   C4A17290   4.806  17.728   6.717  0.2238 -0.1287 -0.1107
 1081loPI   C5A17291   4.936  17.843   7.111 -0.0674  0.1649 -0.3713
 1081loPI   C6A17292   4.893  18.020   7.536  0.1793  0.0973  0.3147
 1081loPI   C1B17293   4.720  17.251   5.589 -0.0041  0.1982  0.1954
 1081loPI   C2B17294   4.792  16.966   5.903  0.2888 -0.1891 -0.0643
 1081loPI   C3B17295   4.690  16.547   6.106  0.1812  0.1922  0.3638
 1081loPI   C4B17296   4.729  16.312   6.396  0.0779 -0.0538 -0.2770
 1082loPI    C117297   7.215   3.107   4.632 -0.1999 -0.0362 -0.0213
 1082loPI    C217298   7.530   2.981   4.844 -0.0172  0.1967 -0.1495
 1082loPI    C317299   7.538   2.963   4.444 -0.2978 -0.0953 -0.1460
 1082loPI   PO417300   7.156   3.380   4.705 -0.1627  0.1845  0.2267
 1082loPI   GL117301   7.327   3.502   5.201 -0.0482  0.2027  0.1994
 1082loPI   GL217302   7.636   3.350   5.226  0.0396 -0.1064  0.0197
 1082loPI   C1A17303   7.015   3.563   5.409 -0.0254  0.4242 -0.1153
 1082loPI   C2A17304   6.777   3.486   5.739 -0.1033  0.1687  0.1106
 1082loPI   C3A17305   6.702   3.670   6.118 -0.1404  0.0254 -0.2863
 1082loPI   C4A17306   6.854   3.551   6.539 -0.1176  0.1605 -0.0199
 1082loPI   C5A17307   6.921   3.561   7.003  0.0783 -0.2766 -0.1192
 1082loPI   C6A17308   7.095   3.273   7.254  0.1070  0.1475  0.1610
 1082loPI   C1B17309   7.748   3.119   5.582 -0.1245 -0.1427  0.0400
 1082loPI   C2B17310   8.042   3.141   6.008 -0.2221  0.1532  0.1478
 1082loPI   C3B17311   8.166   2.858   6.390 -0.1323  0.0212  0.1889
 1082loPI   C4B17312   8.231   2.579   6.692  0.1406  0.0839  0.0537
 1083loPI    C117313   9.674  15.376   4.831 -0.0620  0.2089  0.1129
 1083loPI    C217314   9.413  15.563   4.592  0.0124  0.0344 -0.1082
 1083loPI    C317315   9.300  15.238   4.795 -0.0009  0.0807 -0.0413
 1083loPI   PO417316   9.854  15.626   4.880 -0.1021  0.1587  0.0332
 1083loPI   GL117317   9.827  15.886   5.191 -0.1038 -0.0059 -0.0561
 1083loPI   GL217318   9.662  15.585   5.298  0.0272 -0.1188 -0.1087
 1083loPI   C1A17319   9.796  16.095   5.661  0.0649 -0.0083  0.2084
 1083loPI   C2A17320   9.787  16.315   6.080 -0.1478  0.2189 -0.1631
 1083loPI   C3A17321   9.659  16.272   6.555 -0.1059  0.0679  0.3334
 1083loPI   C4A17322   9.406  16.060   6.882  0.0867 -0.0110 -0.3603
 1083loPI   C5A17323   9.127  15.773   7.153  0.2614 -0.1482  0.4467
 1083loPI   C6A17324   8.906  15.482   6.921  0.1328  0.0370  0.0164
 1083loPI   C1B17325   9.670  15.544   5.748 -0.1325  0.3233 -0.0764
 1083loPI   C2B17326  10.084  15.542   5.897  0.1854 -0.0775 -0.0196
 1083loPI   C3B17327  10.407  15.721   5.955 -0.0484 -0.4668  0.0426
 1083loPI   C4B17328  10.821  15.565   5.808 -0.1059  0.3000  0.2643
 1084loPI    C117329   3.612   0.657   4.473 -0.1948 -0.0186  0.0226
 1084loPI    C217330   3.342   0.601   4.183 -0.2659 -0.0825  0.1004
 1084loPI    C317331   3.605   0.902   4.157  0.0396 -0.3721 -0.2641
 1084loPI   PO417332   3.566   0.548   4.666  0.0978 -0.2282 -0.0323
 1084loPI   GL117333   3.471   0.476   5.094  0.2922 -0.1549 -0.1954
 1084loPI   GL217334   3.231   0.263   5.198 -0.4206 -0.1705  0.1849
 1084loPI   C1A17335   3.753   0.437   5.525 -0.0800 -0.1739 -0.0180
 1084loPI   C2A17336   3.673   0.526   5.946 -0.0251 -0.1666 -0.0841
 1084loPI   C3A17337   3.641   0.296   6.300 -0.0591 -0.0614  0.1649
 1084loPI   C4A17338   3.637   0.213   6.652 -0.0431 -0.0840 -0.1075
 1084loPI   C5A17339   3.712  -0.064   6.951 -0.2684 -0.0761  0.0687
 1084loPI   C6A17340   3.941  -0.425   7.015  0.1669  0.0862 -0.0149
 1084loPI   C1B17341   3.317   0.206   5.659 -0.1308 -0.1253 -0.0184
 1084loPI   C2B17342   3.040   0.082   6.001 -0.0957 -0.0192 -0.1172
 1084loPI   C3B17343   3.223  -0.089   6.362 -0.2109  0.1045  0.0189
 1084loPI   C4B17344   3.109  -0.220   6.818 -0.0825 -0.0237 -0.1982
 1085loPI    C117345  12.872  18.382   4.478 -0.1737  0.0288 -0.0035
 1085loPI    C217346  13.036  18.694   4.288 -0.1683 -0.0057 -0.0558
 1085loPI    C317347  13.233  18.515   4.587 -0.0984 -0.0648 -0.1366
 1085loPI   PO417348  12.562  18.484   4.502  0.0722  0.1762  0.0216
 1085loPI   GL117349  12.651  18.803   4.858  0.1179  0.2281  0.3793
 1085loPI   GL217350  12.891  18.581   4.916  0.0764  0.0930 -0.1345
 1085loPI   C1A17351  12.735  18.703   5.342 -0.0004  0.0987 -0.1967
 1085loPI   C2A17352  12.828  18.749   5.764 -0.0665 -0.2157 -0.0333
 1085loPI   C3A17353  12.881  18.626   6.123  0.1339  0.1135  0.0540
 1085loPI   C4A17354  13.245  18.712   6.384  0.0953  0.2112 -0.0195
 1085loPI   C5A17355  13.375  18.406   6.684  0.2940 -0.0505 -0.3173
 1085loPI   C6A17356  13.438  18.007   6.927 -0.3960 -0.1878  0.0520
 1085loPI   C1B17357  13.144  18.381   5.186 -0.2455  0.0325 -0.2093
 1085loPI   C2B17358  13.240  18.390   5.600  0.0418  0.0835 -0.2796
 1085loPI   C3B17359  13.471  18.362   5.948 -0.0243 -0.0837  0.0669
 1085loPI   C4B17360  13.633  18.149   6.329 -0.0355 -0.0614 -0.1899
 1086loPI    C117361   5.902   4.672   4.851  0.2403  0.2302  0.0386
 1086loPI    C217362   6.108   4.708   4.510 -0.0338  0.0430 -0.1516
 1086loPI    C317363   5.792   4.464   4.527  0.1471 -0.1709  0.3205
 1086loPI   PO417364   5.892   4.868   4.969  0.1767  0.3805  0.3254
 1086loPI   GL117365   5.842   4.926   5.366 -0.1808 -0.0426 -0.0720
 1086loPI   GL217366   5.618   4.659   5.505  0.0642 -0.5120 -0.0788
 1086loPI   C1A17367   5.732   4.899   5.900  0.3267 -0.0685 -0.3415
 1086loPI   C2A17368   5.829   5.044   6.302  0.0368  0.3225 -0.1088
 1086loPI   C3A17369   5.708   4.958   6.758  0.0776 -0.0629  0.0511
 1086loPI   C4A17370   5.785   5.204   7.181 -0.0924  0.1223  0.1297
 1086loPI   C5A17371   5.992   5.229   7.497  0.4300 -0.2420  0.0012
 1086loPI   C6A17372   6.285   5.392   7.690 -0.1524  0.1424  0.2008
 1086loPI   C1B17373   5.887   4.335   5.576  0.2128 -0.0080 -0.2235
 1086loPI   C2B17374   5.814   3.958   5.783 -0.0271  0.1428 -0.1774
 1086loPI   C3B17375   5.629   3.558   5.991  0.3140  0.1355 -0.1322
 1086loPI   C4B17376   5.875   3.199   6.095 -0.2684 -0.0174 -0.2089
 1087loPI    C117377   5.487   6.508   4.770 -0.0030 -0.2378 -0.0435
 1087loPI    C217378   5.743   6.209   4.700  0.1382 -0.0966 -0.1364
 1087loPI    C317379   5.468   6.306   4.426  0.0303 -0.2018 -0.0664
 1087loPI   PO417380   5.441   6.394   5.107  0.0035 -0.0430 -0.0463
 1087loPI   GL117381   5.459   6.408   5.515 -0.1075  0.3255 -0.0055
 1087loPI   GL217382   5.286   6.661   5.469  0.1970  0.3097 -0.2252
 1087loPI   C1A17383   5.393   6.424   5.910 -0.1060  0.2663  0.2644
 1087loPI   C2A17384   5.328   6.567   6.283 -0.0745  0.1067  0.0632
 1087loPI   C3A17385   5.316   6.383   6.654 -0.4260 -0.0620  0.0495
 1087loPI   C4A17386   5.336   6.396   7.053  0.2623  0.0420 -0.2679
 1087loPI   C5A17387   5.547   6.053   7.292  0.4600 -0.0858  0.1318
 1087loPI   C6A17388   5.868   5.968   7.597 -0.1538  0.4656 -0.2448
 1087loPI   C1B17389   5.038   6.821   5.795 -0.0818  0.2320 -0.0089
 1087loPI   C2B17390   4.834   6.806   6.218 -0.1004  0.0136  0.0066
 1087loPI   C3B17391   4.943   6.772   6.702 -0.0041 -0.0472 -0.0461
 1087loPI   C4B17392   5.007   6.818   7.164  0.0593  0.0589  0.1419
 1088loPI    C117393  14.866  17.801   4.294  0.0058 -0.0207 -0.0030
 1088loPI    C217394  14.515  17.921   4.144  0.0027 -0.1888 -0.1324
 1088loPI    C317395  14.826  17.861   3.900  0.0871 -0.1577 -0.0328
 1088loPI   PO417396  14.786  17.625   4.462 -0.0460 -0.0585 -0.1564
 1088loPI   GL117397  14.676  17.432   4.780  0.4159 -0.2352 -0.1938
 1088loPI   GL217398  14.609  17.750   4.931 -0.4234 -0.0484 -0.0860
 1088loPI   C1A17399  14.829  17.212   5.122 -0.1835 -0.1578  0.3696
 1088loPI   C2A17400  14.975  16.926   5.384 -0.0495  0.0627  0.2202
 1088loPI   C3A17401  14.986  17.031   5.783 -0.0367 -0.0107  0.1419
 1088loPI   C4A17402  15.006  17.261   6.192 -0.0358  0.0605 -0.0387
 1088loPI   C5A17403  15.010  17.138   6.565  0.1205 -0.3602 -0.1798
 1088loPI   C6A17404  15.005  17.268   6.968 -0.1096 -0.2435 -0.0169
 1088loPI   C1B17405  14.798  17.831   5.267 -0.0479 -0.0715  0.2975
 1088loPI   C2B17406  14.933  17.994   5.656 -0.1972 -0.2169  0.1434
 1088loPI   C3B17407  15.013  18.287   5.933 -0.2586 -0.2101 -0.0127
 1088loPI   C4B17408  15.032  18.713   6.105  0.0244 -0.1828 -0.2191
 1089loPI    C117409   0.129   4.188   4.386  0.0854 -0.0897  0.0501
 1089loPI    C217410  -0.151   4.407   4.204  0.0205 -0.2752 -0.0764
 1089loPI    C317411   0.214   4.378   4.045  0.3207  0.4885  0.4157
 1089loPI   PO417412   0.086   4.272   4.648 -0.0994 -0.2314 -0.0786
 1089loPI   GL117413   0.087   4.336   5.162 -0.2196 -0.3624 -0.0089
 1089loPI   GL217414  -0.014   4.121   5.131  0.1377 -0.1464 -0.0093
 1089loPI   C1A17415   0.091   4.595   5.466 -0.1193 -0.1632  0.3206
 1089loPI   C2A17416   0.206   4.524   5.839 -0.1582  0.1819 -0.0907
 1089loPI   C3A17417   0.224   4.485   6.225  0.3207  0.0682  0.0046
 1089loPI   C4A17418   0.381   4.456   6.594  0.2328  0.2232  0.3474
 1089loPI   C5A17419   0.139   4.689   6.872  0.0492 -0.2945 -0.0250
 1089loPI   C6A17420   0.462   4.913   7.058 -0.3121  0.0608 -0.4673
 1089loPI   C1B17421   0.217   4.083   5.588 -0.2430  0.2888  0.2417
 1089loPI   C2B17422   0.413   3.975   6.021  0.0872 -0.0555  0.0982
 1089loPI   C3B17423   0.484   3.756   6.279  0.0821 -0.3251  0.0862
 1089loPI   C4B17424   0.321   3.455   6.620 -0.3855  0.0928 -0.1290
 1090loPI    C117425  17.905  12.265   3.993  0.0300  0.0906 -0.1261
 1090loPI    C217426  17.914  12.155   3.609  0.1513  0.2300 -0.1641
 1090loPI    C317427  18.015  11.893   3.894  0.1620  0.1574 -0.2341
 1090loPI   PO417428  18.085  12.424   4.046 -0.0523 -0.1693 -0.3126
 1090loPI   GL117429  18.150  12.601   4.416  0.1536 -0.1670 -0.1506
 1090loPI   GL217430  18.286  12.753   4.526  0.3670 -0.0959 -0.2371
 1090loPI   C1A17431  18.096  12.429   4.896 -0.0380 -0.1844 -0.1073
 1090loPI   C2A17432  18.068  12.589   5.240 -0.1300  0.1358 -0.0743
 1090loPI   C3A17433  18.014  12.758   5.648  0.1006  0.2341 -0.2074
 1090loPI   C4A17434  18.181  12.965   6.114 -0.0440  0.0838  0.0685
 1090loPI   C5A17435  18.005  12.985   6.512  0.0264 -0.3204  0.1743
 1090loPI   C6A17436  17.749  12.898   6.806  0.1249 -0.2382 -0.1848
 1090loPI   C1B17437  18.611  12.941   4.788 -0.1891  0.1208 -0.0383
 1090loPI   C2B17438  18.561  12.934   5.242  0.1070 -0.0914  0.0229
 1090loPI   C3B17439  18.598  13.362   5.434 -0.2756  0.1252 -0.2435
 1090loPI   C4B17440  18.588  13.617   5.837 -0.1574  0.0045  0.2448
 1091loPI    C117441  11.807  10.836   4.466  0.2793  0.0769 -0.0167
 1091loPI    C217442  11.499  11.040   4.312  0.1125 -0.0775  0.1094
 1091loPI    C317443  11.811  10.945   4.081  0.1216  0.1851  0.0114
 1091loPI   PO417444  11.683  10.947   4.767 -0.1042 -0.0209  0.0845
 1091loPI   GL117445  11.998  10.988   5.084  0.2074 -0.2434 -0.0201
 1091loPI   GL217446  11.985  11.279   5.353  0.3952  0.2741  0.0018
 1091loPI   C1A17447  12.137  10.656   5.324  0.2957 -0.1730 -0.0932
 1091loPI   C2A17448  11.990  10.664   5.736  0.2520  0.3686  0.1050
 1091loPI   C3A17449  12.013  10.628   6.204  0.1194 -0.1948 -0.0001
 1091loPI   C4A17450  12.233  10.411   6.497  0.1567 -0.6008 -0.0094
 1091loPI   C5A17451  12.395  10.114   6.683 -0.1400  0.0134  0.1496
 1091loPI   C6A17452  12.508   9.813   6.958  0.0638 -0.2047  0.0471
 1091loPI   C1B17453  11.857  11.232   5.801 -0.1471 -0.0614  0.3788
 1091loPI   C2B17454  12.006  11.342   6.256  0.3366 -0.1719 -0.1145
 1091loPI   C3B17455  12.025  11.341   6.779 -0.0650 -0.0278  0.1144
 1091loPI   C4B17456  11.978  11.366   7.245  0.1272 -0.2004  0.0844
 1092loPI    C117457   6.980   1.569   4.433 -0.0228 -0.3132  0.1631
 1092loPI    C217458   6.684   1.340   4.291  0.0785 -0.3863  0.0676
 1092loPI    C317459   7.065   1.247   4.210  0.1165 -0.1061 -0.0894
 1092loPI   PO417460   6.876   1.587   4.726 -0.2211  0.3526 -0.0731
 1092loPI   GL117461   6.736   1.571   5.106  0.2621  0.3263  0.2148
 1092loPI   GL217462   6.899   1.831   5.255  0.1957  0.0896  0.2679
 1092loPI   C1A17463   6.635   1.542   5.595  0.0257  0.3134 -0.0996
 1092loPI   C2A17464   6.648   1.717   6.031 -0.0773 -0.1406 -0.2155
 1092loPI   C3A17465   6.508   1.967   6.378  0.2102 -0.1634 -0.1483
 1092loPI   C4A17466   6.529   2.198   6.901 -0.0636  0.1420 -0.2021
 1092loPI   C5A17467   6.888   2.279   7.231  0.1779 -0.3083 -0.1149
 1092loPI   C6A17468   7.264   2.037   7.251  0.1767 -0.1304  0.3375
 1092loPI   C1B17469   6.976   1.878   5.614  0.0866  0.0785  0.0146
 1092loPI   C2B17470   6.943   2.171   5.900  0.5071  0.0994  0.1432
 1092loPI   C3B17471   6.849   2.484   6.278  0.1600 -0.0427  0.2043
 1092loPI   C4B17472   6.737   2.583   6.657 -0.2880 -0.0148  0.0822
 1093loPI    C117473  14.018  17.174   4.290 -0.1394  0.0010  0.1048
 1093loPI    C217474  14.045  16.812   4.125  0.0993 -0.0291  0.2057
 1093loPI    C317475  13.826  17.096   3.948  0.1764 -0.1238 -0.0479
 1093loPI   PO417476  13.941  17.100   4.525  0.4094 -0.0048 -0.3588
 1093loPI   GL117477  13.778  17.355   4.773  0.1590  0.0341  0.1936
 1093loPI   GL217478  13.503  17.228   4.754  0.3323 -0.0156  0.2469
 1093loPI   C1A17479  14.113  17.324   5.095 -0.2609  0.1437 -0.0441
 1093loPI   C2A17480  14.392  17.529   5.397  0.3743  0.1664  0.1915
 1093loPI   C3A17481  14.433  17.905   5.676 -0.1644  0.0150 -0.2375
 1093loPI   C4A17482  14.469  18.290   5.810 -0.1801 -0.2130  0.3262
 1093loPI   C5A17483  14.592  18.519   6.143 -0.0682  0.0957  0.0602
 1093loPI   C6A17484  14.714  18.667   6.516 -0.1538 -0.1252 -0.1306
 1093loPI   C1B17485  13.626  17.080   5.170 -0.0169 -0.0652  0.0826
 1093loPI   C2B17486  13.829  17.000   5.567 -0.1261 -0.1786 -0.1685
 1093loPI   C3B17487  13.900  17.117   5.982 -0.0449  0.2349 -0.0335
 1093loPI   C4B17488  13.981  17.231   6.456  0.3571  0.1972  0.0672
 1094loPI    C117489   5.148  11.441   4.476  0.1796 -0.2809  0.1227
 1094loPI    C217490   4.898  11.129   4.463  0.0957 -0.2150  0.1383
 1094loPI    C317491   5.287  11.071   4.538  0.0556 -0.3016  0.2839
 1094loPI   PO417492   5.076  11.636   4.587  0.0817 -0.0962 -0.1100
 1094loPI   GL117493   5.146  11.731   5.004  0.1868 -0.0149 -0.2538
 1094loPI   GL217494   5.374  11.741   5.187 -0.0042  0.0805  0.0862
 1094loPI   C1A17495   4.907  11.579   5.321  0.1311  0.0179 -0.1362
 1094loPI   C2A17496   4.533  11.226   5.367 -0.0998 -0.0882 -0.1474
 1094loPI   C3A17497   4.182  11.255   5.460 -0.2299 -0.0821 -0.0220
 1094loPI   C4A17498   3.896  10.911   5.701  0.2340  0.0783  0.3715
 1094loPI   C5A17499   3.934  10.486   5.903 -0.2107  0.0653 -0.2981
 1094loPI   C6A17500   3.610  10.288   6.003  0.3728  0.0172 -0.3162
 1094loPI   C1B17501   5.364  11.626   5.595  0.3048  0.0273 -0.0096
 1094loPI   C2B17502   5.235  11.460   5.941  0.0011  0.0854  0.4934
 1094loPI   C3B17503   5.153  11.346   6.305 -0.0004 -0.3365  0.3301
 1094loPI   C4B17504   5.159  11.388   6.700  0.3354  0.1268 -0.0626
 1095loPI    C117505   9.773  11.264   4.795  0.0999  0.1346 -0.1118
 1095loPI    C217506   9.497  11.456   5.011  0.0950  0.0330 -0.0268
 1095loPI    C317507   9.501  11.494   4.613 -0.1089 -0.0498 -0.0384
 1095loPI   PO417508   9.997  11.252   5.028 -0.0808  0.0495 -0.2007
 1095loPI   GL117509  10.169  11.637   5.238  0.2007  0.0263 -0.2741
 1095loPI   GL217510   9.804  11.650   5.401 -0.0898 -0.3200 -0.0619
 1095loPI   C1A17511  10.275  11.545   5.605 -0.1172 -0.0832  0.1728
 1095loPI   C2A17512  10.384  11.385   5.987 -0.0541 -0.2516 -0.1473
 1095loPI   C3A17513  10.205  11.436   6.339 -0.1495 -0.3679 -0.2062
 1095loPI   C4A17514  10.002  11.234   6.692  0.0125 -0.2907 -0.0130
 1095loPI   C5A17515  10.058  11.240   7.051  0.1200 -0.3740 -0.0440
 1095loPI   C6A17516  10.126  11.236   7.477 -0.1100 -0.0842 -0.0897
 1095loPI   C1B17517   9.826  11.269   5.696 -0.2134  0.2291 -0.1273
 1095loPI   C2B17518  10.022  10.987   6.033 -0.2685 -0.0450 -0.2929
 1095loPI   C3B17519  10.244  10.961   6.400 -0.0291 -0.1114 -0.0730
 1095loPI   C4B17520  10.445  10.953   6.795 -0.0363  0.0702  0.1306
 1096loPI    C117521   3.293  11.224   4.594 -0.1326 -0.0253 -0.0087
 1096loPI    C217522   3.657  11.119   4.721 -0.1088 -0.0511 -0.0969
 1096loPI    C317523   3.616  11.316   4.376 -0.1513  0.2434  0.0729
 1096loPI   PO417524   3.142  11.105   4.783 -0.3284  0.1628 -0.3975
 1096loPI   GL117525   3.356  10.928   5.118 -0.0803 -0.1857 -0.1544
 1096loPI   GL217526   3.291  10.571   5.066 -0.3069  0.3156 -0.2659
 1096loPI   C1A17527   3.459  10.982   5.529  0.0325 -0.0883 -0.2034
 1096loPI   C2A17528   3.391  10.793   5.879 -0.2419 -0.1736  0.1476
 1096loPI   C3A17529   3.440  10.627   6.290 -0.4577  0.1338  0.1121
 1096loPI   C4A17530   3.827  10.489   6.452 -0.1722  0.0649 -0.1583
 1096loPI   C5A17531   4.172  10.629   6.703  0.1025  0.0106  0.0811
 1096loPI   C6A17532   4.447  10.847   7.076 -0.0394 -0.0075  0.3642
 1096loPI   C1B17533   2.957  10.726   5.368  0.0829  0.1268 -0.1012
 1096loPI   C2B17534   2.790  10.723   5.789 -0.1782  0.2103 -0.0286
 1096loPI   C3B17535   2.964  10.886   6.116 -0.2262 -0.1738 -0.1168
 1096loPI   C4B17536   3.304  11.157   6.247 -0.1361 -0.1441  0.0885
 1097loPI    C117537   1.794  14.031   4.200 -0.1119  0.0966 -0.1264
 1097loPI    C217538   1.905  13.650   4.248 -0.1878  0.0941  0.0365
 1097loPI    C317539   1.918  13.818   3.885  0.1109  0.0204  0.0100
 1097loPI   PO417540   1.689  14.117   4.410 -0.0150  0.1232 -0.2632
 1097loPI   GL117541   1.869  14.232   4.779  0.0550  0.0749  0.2220
 1097loPI   GL217542   1.767  14.387   5.086 -0.1401 -0.2682  0.0101
 1097loPI   C1A17543   2.095  13.993   5.044 -0.2365  0.1116  0.1601
 1097loPI   C2A17544   2.126  13.812   5.447  0.0147 -0.1233 -0.2067
 1097loPI   C3A17545   2.072  13.645   5.797 -0.1202  0.1273 -0.0500
 1097loPI   C4A17546   2.070  13.367   6.200  0.0620  0.2295 -0.0382
 1097loPI   C5A17547   1.788  13.422   6.441  0.0548 -0.2180 -0.1454
 1097loPI   C6A17548   1.393  13.336   6.868 -0.0149  0.1141 -0.2454
 1097loPI   C1B17549   1.862  14.586   5.511 -0.0925 -0.0767 -0.1639
 1097loPI   C2B17550   1.991  14.781   5.874  0.2678  0.0704  0.2113
 1097loPI   C3B17551   2.080  14.695   6.377  0.1203 -0.4507 -0.2924
 1097loPI   C4B17552   1.994  14.705   6.867 -0.3713  0.0787 -0.0082
 1098loPI    C117553   2.138   8.574   4.090 -0.3632  0.1891  0.1226
 1098loPI    C217554   2.175   8.970   4.044 -0.0635  0.1541  0.0453
 1098loPI    C317555   2.109   8.737   3.726  0.3430  0.0848  0.0062
 1098loPI   PO417556   2.181   8.604   4.383  0.1589 -0.0911  0.0673
 1098loPI   GL117557   2.267   8.508   4.862 -0.0675  0.0606  0.0256
 1098loPI   GL217558   1.888   8.627   4.965 -0.0267  0.2890 -0.3791
 1098loPI   C1A17559   2.345   8.273   5.217  0.0075  0.1249  0.2681
 1098loPI   C2A17560   2.464   8.137   5.617  0.4258  0.0979 -0.0750
 1098loPI   C3A17561   2.609   8.321   6.057  0.1315  0.0219 -0.4235
 1098loPI   C4A17562   3.021   8.423   6.271  0.3703 -0.0134 -0.1471
 1098loPI   C5A17563   3.295   8.518   6.597 -0.4224  0.0591  0.0208
 1098loPI   C6A17564   3.423   8.331   7.002 -0.1131  0.0786 -0.0793
 1098loPI   C1B17565   1.687   8.844   5.348 -0.0063 -0.2397  0.1198
 1098loPI   C2B17566   1.416   9.089   5.583  0.2312  0.2567 -0.0176
 1098loPI   C3B17567   1.121   8.966   5.927 -0.3272 -0.1045  0.1645
 1098loPI   C4B17568   0.774   8.770   6.120  0.2356 -0.0130 -0.2972
 1099loPI    C117569   6.310  14.729   4.784  0.2683 -0.0245  0.1184
 1099loPI    C217570   6.438  14.352   4.821  0.2456 -0.0347  0.0929
 1099loPI    C317571   6.335  14.494   4.462  0.0966 -0.0555  0.1268
 1099loPI   PO417572   6.115  14.731   4.946 -0.0549  0.1095 -0.2119
 1099loPI   GL117573   6.044  14.922   5.375 -0.0094 -0.1341  0.1214
 1099loPI   GL217574   6.241  15.081   5.513 -0.0847 -0.2111  0.2703
 1099loPI   C1A17575   5.764  14.593   5.513 -0.0364  0.0508  0.0035
 1099loPI   C2A17576   5.795  14.547   5.966  0.0676 -0.1668  0.0365
 1099loPI   C3A17577   5.607  14.426   6.328  0.0937 -0.0242 -0.1627
 1099loPI   C4A17578   5.321  14.296   6.730 -0.1556 -0.0163  0.2282
 1099loPI   C5A17579   5.077  14.366   7.109 -0.0340  0.2031 -0.0843
 1099loPI   C6A17580   4.754  14.355   7.385 -0.2574  0.2708  0.0546
 1099loPI   C1B17581   6.548  15.206   5.949  0.2919  0.2738  0.2577
 1099loPI   C2B17582   6.923  15.321   5.874 -0.2836 -0.1962 -0.0283
 1099loPI   C3B17583   7.221  15.314   6.316  0.1874 -0.2318  0.1725
 1099loPI   C4B17584   7.101  15.368   6.753 -0.3285 -0.1958 -0.0076
 1100loPI    C117585   4.867   5.517   4.749 -0.0544  0.0838 -0.2189
 1100loPI    C217586   5.235   5.555   4.903 -0.1025  0.0180 -0.0866
 1100loPI    C317587   4.992   5.265   5.033 -0.2299  0.1103 -0.1168
 1100loPI   PO417588   4.764   5.744   4.763 -0.1121 -0.1651 -0.3873
 1100loPI   GL117589   4.787   5.985   5.096 -0.0211 -0.1228 -0.5610
 1100loPI   GL217590   4.994   6.308   5.179 -0.1162 -0.0125 -0.2533
 1100loPI   C1A17591   4.714   5.839   5.515  0.0008 -0.1138  0.0924
 1100loPI   C2A17592   4.509   5.867   5.884 -0.2574  0.0703 -0.3516
 1100loPI   C3A17593   4.454   6.126   6.269  0.0941  0.0398 -0.2414
 1100loPI   C4A17594   4.274   5.960   6.635 -0.1325 -0.0424  0.0728
 1100loPI   C5A17595   4.354   5.679   6.829  0.1832  0.0206  0.0539
 1100loPI   C6A17596   4.529   5.389   7.075  0.0819  0.2882  0.2060
 1100loPI   C1B17597   5.056   6.188   5.589  0.2180 -0.1908 -0.2251
 1100loPI   C2B17598   4.888   6.284   5.968 -0.1923  0.0510 -0.0268
 1100loPI   C3B17599   4.869   6.332   6.403 -0.2911  0.1070 -0.2129
 1100loPI   C4B17600   4.827   5.906   6.712  0.0118 -0.2961  0.0779
 1101loPI    C117601  13.319  13.866   4.089 -0.1936  0.0116  0.0957
 1101loPI    C217602  13.269  14.258   4.028 -0.1794 -0.0258 -0.1665
 1101loPI    C317603  13.299  14.009   3.716 -0.0065 -0.2130 -0.0032
 1101loPI   PO417604  13.283  13.844   4.388  0.3027 -0.0881 -0.2631
 1101loPI   GL117605  13.358  13.653   4.673 -0.1809  0.1387  0.1731
 1101loPI   GL217606  13.642  13.624   4.823  0.1387  0.0577 -0.2962
 1101loPI   C1A17607  13.245  13.452   4.964  0.1414  0.0997  0.0482
 1101loPI   C2A17608  13.225  13.455   5.486  0.2067 -0.2444  0.0996
 1101loPI   C3A17609  12.971  13.673   5.844  0.1674 -0.1838 -0.0815
 1101loPI   C4A17610  12.808  13.462   6.128 -0.1058 -0.0676 -0.0889
 1101loPI   C5A17611  12.683  13.203   6.427 -0.1728 -0.0006 -0.1222
 1101loPI   C6A17612  12.935  13.279   6.782  0.0480  0.3629  0.1906
 1101loPI   C1B17613  13.554  13.996   5.150  0.0835  0.1485  0.1555
 1101loPI   C2B17614  13.601  14.136   5.508  0.1346  0.0975  0.2417
 1101loPI   C3B17615  13.488  14.227   5.968 -0.4428  0.2565  0.1370
 1101loPI   C4B17616  13.464  14.263   6.569 -0.3036  0.4482  0.2289
 1102loPI    C117617   5.169   3.133   4.446 -0.0415 -0.0520  0.0639
 1102loPI    C217618   5.398   3.377   4.227 -0.0194 -0.1256  0.0049
 1102loPI    C317619   5.315   3.008   4.095 -0.0505 -0.1511  0.0952
 1102loPI   PO417620   5.336   3.126   4.692  0.1318  0.1644 -0.4991
 1102loPI   GL117621   5.429   3.255   5.008  0.0462  0.0483  0.2683
 1102loPI   GL217622   5.239   3.462   5.197  0.2514  0.1659  0.2992
 1102loPI   C1A17623   5.797   3.155   5.205  0.0928  0.0135  0.0415
 1102loPI   C2A17624   5.975   3.000   5.643  0.0749 -0.0906  0.2236
 1102loPI   C3A17625   6.321   3.202   5.906  0.1091 -0.1562  0.1873
 1102loPI   C4A17626   6.406   3.385   6.426 -0.0744 -0.1986  0.0842
 1102loPI   C5A17627   6.230   3.445   6.844 -0.1641  0.2497 -0.1321
 1102loPI   C6A17628   6.434   3.752   7.096 -0.2807 -0.3657 -0.2880
 1102loPI   C1B17629   5.256   3.070   5.533  0.2162  0.0121  0.4473
 1102loPI   C2B17630   5.198   3.002   5.992 -0.1416 -0.0490  0.1709
 1102loPI   C3B17631   5.421   3.142   6.416  0.0448 -0.1729  0.3422
 1102loPI   C4B17632   5.499   2.931   6.796 -0.2422 -0.0151 -0.1159
 1103loPI    C117633  18.415  13.920   3.825  0.0130  0.0873  0.0112
 1103loPI    C217634  18.152  14.154   3.634 -0.0885  0.0077  0.0526
 1103loPI    C317635  18.396  13.915   3.426 -0.0456  0.0846  0.0140
 1103loPI   PO417636  18.537  14.031   3.998  0.2420 -0.2842  0.0650
 1103loPI   GL117637  18.620  14.277   4.481 -0.0332  0.0952 -0.2893
 1103loPI   GL217638  18.818  14.371   4.683  0.1805 -0.0955  0.3058
 1103loPI   C1A17639  18.273  14.303   4.785  0.2119  0.1534 -0.1321
 1103loPI   C2A17640  18.113  14.164   5.123  0.0802 -0.1884  0.4281
 1103loPI   C3A17641  18.249  14.187   5.544 -0.3903  0.2271 -0.0579
 1103loPI   C4A17642  18.372  14.100   5.893  0.0701  0.1188 -0.0548
 1103loPI   C5A17643  18.421  13.995   6.354  0.2312 -0.0333 -0.0828
 1103loPI   C6A17644  18.450  14.146   6.827  0.1280  0.1995  0.1585
 1103loPI   C1B17645  18.682  14.182   5.139  0.1481  0.0130 -0.0254
 1103loPI   C2B17646  18.796  14.008   5.532 -0.2205  0.0795  0.2888
 1103loPI   C3B17647  18.848  14.056   6.014  0.0624  0.1985 -0.0585
 1103loPI   C4B17648  18.926  14.146   6.469 -0.0398  0.0735  0.0730
 1104loPI    C117649   2.998  13.652   4.545  0.0117  0.0626  0.1516
 1104loPI    C217650   2.856  14.023   4.598  0.1478  0.1477 -0.0639
 1104loPI    C317651   2.946  13.894   4.231  0.0378 -0.1243  0.0023
 1104loPI   PO417652   3.125  13.600   4.821 -0.3522  0.1667  0.1702
 1104loPI   GL117653   2.999  13.599   5.216 -0.2868  0.1531  0.0025
 1104loPI   GL217654   2.781  13.836   5.131 -0.0647  0.1259  0.4280
 1104loPI   C1A17655   3.033  13.608   5.658 -0.1037 -0.1878 -0.0398
 1104loPI   C2A17656   2.969  13.576   6.063 -0.1430  0.0880  0.0628
 1104loPI   C3A17657   2.849  13.375   6.480 -0.1356  0.0319 -0.1137
 1104loPI   C4A17658   3.104  13.063   6.572 -0.0901  0.0334 -0.0675
 1104loPI   C5A17659   3.092  12.824   6.849 -0.2406  0.0186  0.0831
 1104loPI   C6A17660   3.085  12.446   7.075 -0.3273  0.2149  0.0232
 1104loPI   C1B17661   2.568  13.991   5.416 -0.1013  0.1465 -0.3023
 1104loPI   C2B17662   2.577  13.800   5.826 -0.0973 -0.2706  0.1236
 1104loPI   C3B17663   2.513  13.719   6.264 -0.0899  0.0722 -0.2533
 1104loPI   C4B17664   2.196  13.723   6.637  0.0913 -0.0455  0.2095
 1105loPI    C117665   0.181  13.347   3.995 -0.2008 -0.0854  0.2249
 1105loPI    C217666   0.373  13.679   4.109 -0.2429 -0.1001  0.3401
 1105loPI    C317667   0.184  13.669   3.756  0.0411 -0.1152  0.1857
 1105loPI   PO417668   0.013  13.285   4.179  0.1527  0.1386 -0.4385
 1105loPI   GL117669  -0.004  13.289   4.716 -0.1065 -0.3099  0.1116
 1105loPI   GL217670  -0.337  13.216   4.666  0.2525 -0.0630 -0.2986
 1105loPI   C1A17671  -0.155  13.338   5.207 -0.0222  0.0598  0.0335
 1105loPI   C2A17672   0.034  13.447   5.491  0.1300  0.1511 -0.0342
 1105loPI   C3A17673   0.056  13.738   5.793 -0.0481  0.0792 -0.0968
 1105loPI   C4A17674   0.004  13.929   6.257  0.4743 -0.0470  0.0277
 1105loPI   C5A17675  -0.053  14.236   6.467 -0.2735  0.0252 -0.1753
 1105loPI   C6A17676   0.213  14.350   6.628 -0.0871 -0.2026 -0.2352
 1105loPI   C1B17677  -0.559  13.010   5.116 -0.1930 -0.2128 -0.1983
 1105loPI   C2B17678  -0.563  12.770   5.536  0.0569 -0.1041  0.2417
 1105loPI   C3B17679  -0.470  12.569   5.838 -0.0031  0.0554 -0.0582
 1105loPI   C4B17680  -0.787  12.286   5.974  0.0446 -0.0066  0.4182
 1106loPI    C117681  14.706   5.993   4.272  0.0624 -0.0982  0.1298
 1106loPI    C217682  14.766   5.711   4.549 -0.0527 -0.1001  0.1534
 1106loPI    C317683  14.659   5.607   4.178 -0.0021 -0.0920  0.1363
 1106loPI   PO417684  14.591   6.161   4.382  0.0828 -0.1115  0.1982
 1106loPI   GL117685  14.541   6.116   4.804  0.0713 -0.1387 -0.3854
 1106loPI   GL217686  14.268   6.294   4.832 -0.1202 -0.2407 -0.1539
 1106loPI   C1A17687  14.333   5.893   5.157  0.0667 -0.1207  0.0259
 1106loPI   C2A17688  14.380   5.649   5.639 -0.0665  0.2250  0.0902
 1106loPI   C3A17689  14.092   5.511   5.903 -0.0987 -0.1204 -0.0157
 1106loPI   C4A17690  13.891   5.365   6.370  0.1046 -0.0498 -0.1286
 1106loPI   C5A17691  13.884   5.267   6.801 -0.2766 -0.1839 -0.0892
 1106loPI   C6A17692  13.631   5.332   7.219 -0.4230 -0.4333 -0.2437
 1106loPI   C1B17693  14.043   6.360   5.173 -0.2380 -0.1285 -0.1555
 1106loPI   C2B17694  14.152   6.425   5.567  0.1011 -0.1229 -0.1938
 1106loPI   C3B17695  14.119   6.275   6.022  0.1991 -0.0805 -0.1844
 1106loPI   C4B17696  14.178   6.293   6.390 -0.0526 -0.1648  0.1082
 1107loPI    C117697   6.789   7.668   4.502  0.1754 -0.0801 -0.0007
 1107loPI    C217698   6.847   8.053   4.409  0.1602  0.0096  0.3494
 1107loPI    C317699   7.098   7.774   4.271  0.0299  0.1113 -0.1111
 1107loPI   PO417700   6.786   7.589   4.736 -0.0235  0.0583 -0.1730
 1107loPI   GL117701   6.945   7.555   5.050  0.0971 -0.1395 -0.1472
 1107loPI   GL217702   7.116   7.723   5.266  0.0295  0.1944  0.0118
 1107loPI   C1A17703   7.061   7.290   5.447  0.1699  0.0672  0.1711
 1107loPI   C2A17704   7.098   7.220   5.894 -0.0581 -0.0004 -0.1814
 1107loPI   C3A17705   7.163   6.971   6.324 -0.0160 -0.0518  0.0931
 1107loPI   C4A17706   7.123   6.690   6.702  0.0277  0.0509 -0.0740
 1107loPI   C5A17707   7.290   6.850   7.083  0.0020  0.1407 -0.2445
 1107loPI   C6A17708   7.595   7.129   7.270 -0.0107 -0.1141  0.1651
 1107loPI   C1B17709   7.275   7.624   5.741 -0.0985 -0.0878 -0.4104
 1107loPI   C2B17710   7.492   7.593   6.182 -0.1951  0.4044 -0.0037
 1107loPI   C3B17711   7.497   7.301   6.439  0.0174  0.2901  0.3462
 1107loPI   C4B17712   7.560   6.955   6.692 -0.0800  0.2265 -0.2697
 1108loPI    C117713  13.092   7.795   4.422 -0.1711 -0.0678  0.0737
 1108loPI    C217714  13.174   7.406   4.468 -0.1883 -0.0923 -0.0954
 1108loPI    C317715  13.275   7.593   4.129  0.0387  0.1098  0.0805
 1108loPI   PO417716  12.954   7.790   4.720 -0.0723  0.1850  0.0099
 1108loPI   GL117717  13.024   7.713   5.125 -0.0340 -0.2099  0.1160
 1108loPI   GL217718  13.126   7.401   4.999 -0.1461 -0.0741  0.1959
 1108loPI   C1A17719  13.060   7.527   5.527  0.1264 -0.1158  0.1228
 1108loPI   C2A17720  12.942   7.485   5.944 -0.1624 -0.1397  0.2715
 1108loPI   C3A17721  12.647   7.362   6.297 -0.0259 -0.1119 -0.0799
 1108loPI   C4A17722  12.468   7.313   6.690  0.0650 -0.0832 -0.0835
 1108loPI   C5A17723  12.217   7.187   6.972 -0.1206  0.1959 -0.0084
 1108loPI   C6A17724  12.145   7.376   7.438  0.2635 -0.1196  0.2058
 1108loPI   C1B17725  12.943   7.150   5.295  0.3014  0.1652 -0.1324
 1108loPI   C2B17726  12.851   7.017   5.708  0.0373  0.0028 -0.0304
 1108loPI   C3B17727  12.968   7.028   6.090 -0.1372 -0.1167  0.0651
 1108loPI   C4B17728  13.276   7.126   6.397  0.3531 -0.1886 -0.0808
 1109loPI    C117729   4.952  13.430   4.564 -0.4487  0.1408 -0.3718
 1109loPI    C217730   5.264  13.607   4.386 -0.0509 -0.1662 -0.0035
 1109loPI    C317731   5.153  13.238   4.276 -0.4370  0.0275 -0.2890
 1109loPI   PO417732   4.986  13.435   4.871  0.0295 -0.3018  0.1957
 1109loPI   GL117733   5.169  13.373   5.268 -0.0367  0.2444 -0.1068
 1109loPI   GL217734   4.794  13.455   5.363 -0.1065  0.2926  0.1793
 1109loPI   C1A17735   5.256  13.326   5.644 -0.0142 -0.3056  0.1024
 1109loPI   C2A17736   5.052  13.402   6.069 -0.0446  0.2397 -0.1545
 1109loPI   C3A17737   5.064  13.283   6.599 -0.1424  0.1785  0.1279
 1109loPI   C4A17738   5.174  13.352   7.106  0.1773  0.1966  0.2192
 1109loPI   C5A17739   5.273  13.151   7.470  0.1023  0.0272  0.2598
 1109loPI   C6A17740   5.199  12.838   7.691  0.0311  0.3261  0.2414
 1109loPI   C1B17741   4.727  13.287   5.722  0.1223  0.0975  0.0569
 1109loPI   C2B17742   4.541  13.173   6.212 -0.0658  0.2969 -0.1689
 1109loPI   C3B17743   4.552  12.968   6.638 -0.2381 -0.0134 -0.1645
 1109loPI   C4B17744   4.657  13.078   7.042 -0.0089  0.1831  0.2571
 1110loPI    C117745  19.145   9.780   3.852 -0.1530 -0.0480  0.0546
 1110loPI    C217746  19.393   9.916   3.569 -0.2449 -0.0241 -0.0149
 1110loPI    C317747  19.176   9.587   3.503 -0.1080 -0.1407  0.1094
 1110loPI   PO417748  19.041  10.106   3.904 -0.0884  0.2337 -0.2068
 1110loPI   GL117749  18.791  10.298   4.281  0.4212  0.2209 -0.0556
 1110loPI   GL217750  18.488  10.176   4.455  0.1146  0.0834 -0.1529
 1110loPI   C1A17751  18.895  10.180   4.718 -0.0537  0.2092  0.0286
 1110loPI   C2A17752  18.857  10.224   5.151  0.4147 -0.2723  0.1484
 1110loPI   C3A17753  18.967  10.268   5.499 -0.3288 -0.4747 -0.0427
 1110loPI   C4A17754  19.045  10.049   5.801 -0.3453  0.0823  0.1868
 1110loPI   C5A17755  19.179  10.008   6.204 -0.0858  0.0087 -0.0275
 1110loPI   C6A17756  18.985   9.755   6.556  0.0067  0.0756  0.3468
 1110loPI   C1B17757  18.366  10.178   4.869 -0.0998 -0.1316  0.0418
 1110loPI   C2B17758  18.326  10.052   5.248  0.1827 -0.1618 -0.5243
 1110loPI   C3B17759  18.506   9.951   5.675  0.4756  0.1312 -0.0924
 1110loPI   C4B17760  18.432   9.757   6.063  0.2787  0.2004  0.1029
 1111loPI    C117761  12.181   3.774   4.364  0.0918  0.2752  0.0450
 1111loPI    C217762  12.263   4.010   4.051 -0.1482  0.2060 -0.0729
 1111loPI    C317763  12.270   3.613   4.009  0.0812  0.1917  0.0802
 1111loPI   PO417764  12.252   3.903   4.574  0.1336 -0.2423 -0.0849
 1111loPI   GL117765  12.078   3.950   4.979 -0.4064  0.0266 -0.0710
 1111loPI   GL217766  11.707   3.963   4.775  0.1760 -0.1510 -0.1685
 1111loPI   C1A17767  12.210   4.120   5.387  0.0472 -0.0384  0.0418
 1111loPI   C2A17768  12.139   4.196   5.868  0.0557 -0.1425  0.1987
 1111loPI   C3A17769  11.896   4.285   6.214 -0.0548 -0.1273 -0.0845
 1111loPI   C4A17770  11.691   4.259   6.647 -0.4210 -0.4040 -0.1486
 1111loPI   C5A17771  11.521   4.320   6.955 -0.2403 -0.1123 -0.1250
 1111loPI   C6A17772  11.504   4.526   7.356  0.0207 -0.3459  0.1959
 1111loPI   C1B17773  11.694   4.200   5.156  0.1430 -0.1901  0.3265
 1111loPI   C2B17774  11.692   4.259   5.562 -0.0341 -0.0360 -0.0511
 1111loPI   C3B17775  11.609   4.075   5.893 -0.0302 -0.0043  0.2045
 1111loPI   C4B17776  11.295   3.743   5.895  0.2419 -0.0297  0.0269
 1112loPI    C117777   8.104  17.559   4.243 -0.0063  0.1226  0.0281
 1112loPI    C217778   7.935  17.211   4.140 -0.0152  0.1744 -0.1359
 1112loPI    C317779   7.958  17.509   3.874  0.3081  0.1786 -0.1074
 1112loPI   PO417780   8.314  17.523   4.514  0.0931  0.0699 -0.2748
 1112loPI   GL117781   8.349  17.404   5.027  0.0410 -0.1648  0.1856
 1112loPI   GL217782   8.104  17.721   5.086 -0.0586 -0.0421  0.1821
 1112loPI   C1A17783   8.467  17.488   5.489  0.3634 -0.0093  0.2217
 1112loPI   C2A17784   8.657  17.717   5.765  0.0364  0.2264  0.1175
 1112loPI   C3A17785   8.637  17.923   6.084  0.2149 -0.0639  0.3845
 1112loPI   C4A17786   8.238  18.118   6.337 -0.0174 -0.1267  0.1052
 1112loPI   C5A17787   8.177  18.179   6.796 -0.0217  0.0635  0.4218
 1112loPI   C6A17788   8.038  18.365   7.204  0.0118 -0.3519  0.1804
 1112loPI   C1B17789   8.152  17.843   5.417 -0.1528 -0.0944  0.1575
 1112loPI   C2B17790   8.474  18.174   5.642  0.3454  0.2584 -0.0683
 1112loPI   C3B17791   8.589  18.410   6.003  0.3248  0.1849 -0.3095
 1112loPI   C4B17792   8.672  18.320   6.439 -0.1047 -0.1288  0.2192
 1113loPI    C117793  11.432  19.153   4.674  0.0379 -0.2746  0.1536
 1113loPI    C217794  11.071  19.294   4.576  0.0757 -0.2497  0.0489
 1113loPI    C317795  11.137  18.900   4.578  0.0087 -0.2612  0.2071
 1113loPI   PO417796  11.542  19.430   4.611  0.0611 -0.0580 -0.2534
 1113loPI   GL117797  11.868  19.487   4.919  0.4464 -0.0165 -0.0148
 1113loPI   GL217798  12.055  19.299   4.748 -0.0019  0.0714 -0.0536
 1113loPI   C1A17799  11.815  19.827   5.215 -0.2719  0.2887  0.1190
 1113loPI   C2A17800  11.912  19.912   5.610 -0.2226 -0.0214 -0.3247
 1113loPI   C3A17801  12.093  19.849   6.058  0.1292  0.2346  0.3137
 1113loPI   C4A17802  12.275  19.534   6.213  0.3060  0.3441  0.2299
 1113loPI   C5A17803  12.339  19.266   6.597 -0.0983  0.1285  0.2915
 1113loPI   C6A17804  12.484  19.150   6.883 -0.4744 -0.0703 -0.4892
 1113loPI   C1B17805  12.180  19.167   5.140  0.0107 -0.0931 -0.2416
 1113loPI   C2B17806  12.114  18.826   5.307  0.0139 -0.1540 -0.0359
 1113loPI   C3B17807  12.161  18.402   5.371 -0.2158 -0.0776 -0.2331
 1113loPI   C4B17808  12.174  18.179   5.748 -0.2435  0.0172 -0.0462
 1114loPI    C117809  17.161  11.660   3.499  0.1928 -0.2170  0.0023
 1114loPI    C217810  17.503  11.846   3.409  0.0344  0.0805  0.0022
 1114loPI    C317811  17.241  11.758   3.120 -0.0019  0.0810  0.0351
 1114loPI   PO417812  17.116  11.723   3.724  0.1458 -0.4851 -0.3122
 1114loPI   GL117813  17.175  11.703   4.158 -0.1302 -0.0891 -0.0751
 1114loPI   GL217814  17.005  11.470   4.233  0.0545 -0.0900 -0.1460
 1114loPI   C1A17815  17.221  11.815   4.578  0.1013 -0.2831  0.0685
 1114loPI   C2A17816  17.156  11.776   5.051 -0.0934 -0.3942 -0.0556
 1114loPI   C3A17817  17.306  11.964   5.413 -0.2065  0.1308 -0.1030
 1114loPI   C4A17818  17.314  11.785   5.844 -0.0971 -0.2386  0.0803
 1114loPI   C5A17819  17.142  11.345   5.982  0.2938  0.0902 -0.2558
 1114loPI   C6A17820  16.769  11.180   6.331 -0.2064  0.2540  0.1451
 1114loPI   C1B17821  17.101  11.290   4.630  0.4667 -0.1612 -0.0435
 1114loPI   C2B17822  17.159  10.874   4.885 -0.1018  0.2759 -0.2735
 1114loPI   C3B17823  17.487  10.704   5.082  0.1748 -0.3414 -0.2313
 1114loPI   C4B17824  17.453  10.225   5.187 -0.0555 -0.1003 -0.1830
 1115loPI    C117825  13.279   4.104   4.278 -0.1312  0.0737  0.0577
 1115loPI    C217826  13.676   4.073   4.307 -0.1272 -0.0181 -0.0855
 1115loPI    C317827  13.494   3.993   3.960 -0.2608  0.1275 -0.0501
 1115loPI   PO417828  13.210   3.915   4.652 -0.2389  0.1188  0.3848
 1115loPI   GL117829  13.098   4.035   5.059  0.0307 -0.1469 -0.0907
 1115loPI   GL217830  13.273   4.370   5.157 -0.3139 -0.0127  0.2641
 1115loPI   C1A17831  12.711   4.049   5.438  0.0681  0.2261  0.0284
 1115loPI   C2A17832  12.673   4.013   5.823  0.1958  0.0109 -0.2552
 1115loPI   C3A17833  13.016   4.210   6.107  0.1445 -0.2996 -0.1300
 1115loPI   C4A17834  13.138   4.029   6.520  0.3305 -0.0537  0.1342
 1115loPI   C5A17835  13.223   4.098   6.918  0.4239 -0.1250  0.0320
 1115loPI   C6A17836  13.127   4.590   7.209 -0.1390 -0.4628 -0.0397
 1115loPI   C1B17837  13.032   4.525   5.467 -0.3223  0.1483  0.2320
 1115loPI   C2B17838  13.062   4.624   5.815  0.1572 -0.1910 -0.2763
 1115loPI   C3B17839  12.955   4.673   6.217  0.1705 -0.0088  0.1206
 1115loPI   C4B17840  13.222   4.564   6.665  0.2718 -0.1454 -0.0639
 1116loPI    C117841  12.133   9.311   4.364  0.1388 -0.0091 -0.1401
 1116loPI    C217842  12.350   8.998   4.239 -0.0956 -0.1246 -0.2650
 1116loPI    C317843  12.517   9.279   4.470  0.1315 -0.3140 -0.1958
 1116loPI   PO417844  11.898   9.141   4.408 -0.1684  0.0481  0.0747
 1116loPI   GL117845  11.913   9.022   4.733 -0.1670  0.0549 -0.3191
 1116loPI   GL217846  12.054   9.295   4.901 -0.0042 -0.0753  0.0437
 1116loPI   C1A17847  11.883   8.757   5.127 -0.3272 -0.2340  0.0999
 1116loPI   C2A17848  12.030   8.684   5.539 -0.1611  0.1437 -0.0390
 1116loPI   C3A17849  12.203   8.642   5.978  0.0419  0.0561  0.0030
 1116loPI   C4A17850  12.344   8.681   6.405  0.0854  0.1065 -0.1070
 1116loPI   C5A17851  12.358   8.567   6.816 -0.2562  0.1068 -0.2487
 1116loPI   C6A17852  12.601   8.289   6.981 -0.0307 -0.0447 -0.1387
 1116loPI   C1B17853  12.370   9.157   5.247  0.0146 -0.0914 -0.0285
 1116loPI   C2B17854  12.617   9.331   5.735  0.1703  0.0817  0.1294
 1116loPI   C3B17855  12.661   9.533   6.031 -0.2543  0.1860 -0.1423
 1116loPI   C4B17856  12.377   9.670   6.394  0.0202 -0.0263  0.0690
 1117loPI    C117857  15.163  10.877   3.984 -0.0599  0.2076  0.0644
 1117loPI    C217858  15.021  10.554   3.798  0.0481  0.1272  0.1203
 1117loPI    C317859  15.078  10.893   3.594 -0.1154  0.1274  0.0731
 1117loPI   PO417860  15.321  10.871   4.179  0.4652 -0.1753  0.0452
 1117loPI   GL117861  15.228  11.091   4.533  0.0522  0.2317  0.0094
 1117loPI   GL217862  14.918  10.924   4.653 -0.6093 -0.3013  0.0224
 1117loPI   C1A17863  15.308  10.927   4.947 -0.0388 -0.0674 -0.0839
 1117loPI   C2A17864  15.182  10.786   5.319 -0.1770  0.0406 -0.2332
 1117loPI   C3A17865  14.855  10.602   5.666 -0.1436 -0.3210 -0.3967
 1117loPI   C4A17866  14.943  10.396   6.056  0.1769  0.2039 -0.0746
 1117loPI   C5A17867  15.016  10.320   6.451 -0.0509 -0.0159  0.1136
 1117loPI   C6A17868  14.942  10.253   6.801  0.0767 -0.3653 -0.0409
 1117loPI   C1B17869  14.756  10.955   5.119  0.1874 -0.0771  0.0541
 1117loPI   C2B17870  14.680  11.024   5.588  0.0528  0.2389 -0.3098
 1117loPI   C3B17871  14.478  10.930   5.942  0.0685 -0.0065  0.0525
 1117loPI   C4B17872  14.438  11.053   6.324  0.0592 -0.0040  0.0055
 1118loPI    C117873   3.672  10.348   4.338 -0.0250 -0.1872  0.2752
 1118loPI    C217874   3.347  10.454   4.131  0.0470 -0.1055  0.2029
 1118loPI    C317875   3.622  10.215   3.964  0.0253 -0.1731  0.2633
 1118loPI   PO417876   3.612  10.153   4.574 -0.2389 -0.2773  0.0115
 1118loPI   GL117877   3.920  10.245   4.949  0.2241  0.1401  0.2257
 1118loPI   GL217878   3.539  10.104   5.067 -0.0027  0.0073  0.0308
 1118loPI   C1A17879   3.955  10.133   5.465  0.4718  0.3782 -0.0150
 1118loPI   C2A17880   3.909   9.935   5.872  0.3262 -0.0047  0.0428
 1118loPI   C3A17881   3.745   9.911   6.348  0.2054 -0.1716  0.5427
 1118loPI   C4A17882   3.524  10.142   6.560 -0.0888 -0.3438  0.0583
 1118loPI   C5A17883   3.445  10.557   6.831 -0.2279  0.1627  0.1749
 1118loPI   C6A17884   3.546  10.540   7.332 -0.3874 -0.0881  0.0352
 1118loPI   C1B17885   3.122   9.955   5.284  0.3664 -0.1943 -0.1770
 1118loPI   C2B17886   2.984   9.588   5.493 -0.2422 -0.0759 -0.0125
 1118loPI   C3B17887   2.786   9.489   5.835 -0.0294  0.3826 -0.0204
 1118loPI   C4B17888   2.534   9.327   6.162  0.1473 -0.1799 -0.1551
 1119loPI    C117889   2.975  18.850   4.576 -0.0063 -0.0749 -0.2247
 1119loPI    C217890   3.184  19.160   4.432  0.0970  0.0626  0.2066
 1119loPI    C317891   3.375  18.843   4.584 -0.0064 -0.2699 -0.3298
 1119loPI   PO417892   2.835  18.916   4.776  0.0141 -0.1677  0.1108
 1119loPI   GL117893   2.842  18.731   5.143 -0.2770 -0.0400  0.3084
 1119loPI   GL217894   2.458  18.692   5.132  0.1779 -0.0343 -0.1646
 1119loPI   C1A17895   2.962  18.851   5.518  0.3437  0.0576  0.0064
 1119loPI   C2A17896   3.170  18.930   5.864 -0.0382  0.2519  0.0698
 1119loPI   C3A17897   3.220  19.298   6.158 -0.2133  0.0023 -0.0176
 1119loPI   C4A17898   3.314  19.304   6.603  0.1613  0.0118 -0.2008
 1119loPI   C5A17899   3.463  19.316   7.010 -0.1014 -0.0023 -0.0208
 1119loPI   C6A17900   3.384  19.179   7.450  0.3153 -0.1397 -0.0560
 1119loPI   C1B17901   2.485  18.903   5.503  0.4217 -0.1568 -0.4162
 1119loPI   C2B17902   2.228  18.871   5.942 -0.3290  0.0550  0.2269
 1119loPI   C3B17903   2.148  18.791   6.344 -0.0247  0.0823 -0.0813
 1119loPI   C4B17904   1.971  19.201   6.445  0.0377 -0.0423  0.0584
 1120loPI    C117905   7.516   8.531   4.541  0.1517  0.0905  0.0094
 1120loPI    C217906   7.376   8.218   4.335 -0.0762  0.0321  0.2484
 1120loPI    C317907   7.470   8.557   4.145  0.0774 -0.1464  0.0011
 1120loPI   PO417908   7.565   8.403   4.762 -0.2234  0.3233  0.2081
 1120loPI   GL117909   7.939   8.221   4.908  0.0315  0.2275  0.1062
 1120loPI   GL217910   7.682   7.953   5.072  0.4799  0.1762 -0.1141
 1120loPI   C1A17911   8.230   8.067   5.336 -0.0308 -0.1632 -0.0464
 1120loPI   C2A17912   8.327   7.919   5.765 -0.1082  0.2327  0.2314
 1120loPI   C3A17913   8.371   7.843   6.342 -0.0435 -0.0785  0.3136
 1120loPI   C4A17914   8.199   7.767   6.814 -0.2447  0.3872 -0.1491
 1120loPI   C5A17915   8.284   7.904   7.178  0.0287  0.0278  0.2098
 1120loPI   C6A17916   8.305   7.669   7.584  0.1554 -0.1260 -0.3624
 1120loPI   C1B17917   7.566   7.587   5.361 -0.0338 -0.0805  0.2321
 1120loPI   C2B17918   7.627   7.297   5.681  0.2505  0.1493 -0.1620
 1120loPI   C3B17919   7.837   7.287   5.989  0.2414 -0.0110 -0.1588
 1120loPI   C4B17920   7.996   7.082   6.355 -0.2195  0.0351 -0.2865
 1121loPI    C117921   2.145  17.050   4.775 -0.0059 -0.0453  0.0970
 1121loPI    C217922   1.995  17.380   4.606  0.1029  0.0511  0.1866
 1121loPI    C317923   1.789  17.038   4.593 -0.0466  0.1411  0.1615
 1121loPI   PO417924   2.305  17.230   4.944 -0.1487 -0.3097  0.1848
 1121loPI   GL117925   2.171  17.362   5.314 -0.2615 -0.0954  0.1471
 1121loPI   GL217926   2.419  17.616   5.485  0.1189  0.0674 -0.4868
 1121loPI   C1A17927   2.086  17.373   5.756 -0.2903 -0.2212  0.1932
 1121loPI   C2A17928   2.225  17.337   6.257 -0.0899  0.1262 -0.0324
 1121loPI   C3A17929   2.410  17.308   6.661  0.2997  0.0609 -0.1186
 1121loPI   C4A17930   2.812  17.146   6.820  0.2806 -0.0982  0.2495
 1121loPI   C5A17931   3.206  16.976   7.032  0.0805 -0.0604 -0.0579
 1121loPI   C6A17932   3.402  16.812   7.395 -0.2389 -0.3197  0.1093
 1121loPI   C1B17933   2.576  17.631   5.943  0.1104  0.0317  0.0908
 1121loPI   C2B17934   2.750  17.517   6.353  0.4665 -0.0070  0.2177
 1121loPI   C3B17935   2.917  17.656   6.731 -0.1671 -0.0451  0.0655
 1121loPI   C4B17936   2.961  17.853   7.138 -0.2067  0.0995 -0.1730
 1122loPI    C117937   4.668  14.242   4.734  0.0299 -0.0500 -0.0441
 1122loPI    C217938   4.380  14.111   4.490  0.1574 -0.4866  0.0316
 1122loPI    C317939   4.755  14.149   4.355  0.0512  0.2064 -0.1040
 1122loPI   PO417940   4.639  14.078   4.960  0.1426 -0.2367 -0.1770
 1122loPI   GL117941   4.694  13.904   5.348 -0.2831 -0.2191 -0.2536
 1122loPI   GL217942   5.044  13.891   5.256 -0.1572 -0.1715  0.3490
 1122loPI   C1A17943   4.511  13.855   5.564  0.2559 -0.0416  0.1866
 1122loPI   C2A17944   4.349  14.065   5.932 -0.0476  0.1775 -0.0816
 1122loPI   C3A17945   4.392  14.101   6.356 -0.0334 -0.1480  0.0236
 1122loPI   C4A17946   4.315  13.919   6.748 -0.0056 -0.0424 -0.2061
 1122loPI   C5A17947   4.332  13.919   7.086 -0.1377  0.2352  0.0402
 1122loPI   C6A17948   4.429  13.886   7.454 -0.0177  0.0431  0.2286
 1122loPI   C1B17949   5.093  13.870   5.663 -0.0871  0.2960 -0.3187
 1122loPI   C2B17950   4.793  13.806   5.996 -0.1627  0.1847  0.0027
 1122loPI   C3B17951   4.676  13.679   6.412  0.0862 -0.2636  0.1878
 1122loPI   C4B17952   4.690  13.557   6.833 -0.0976  0.0036  0.0264
 1123loPI    C117953   8.992   5.130   4.638 -0.1174 -0.2176  0.4230
 1123loPI    C217954   8.748   5.431   4.738  0.0672  0.0188  0.1777
 1123loPI    C317955   8.785   5.322   4.355  0.2136 -0.1320  0.2331
 1123loPI   PO417956   8.888   4.927   4.742  0.1638  0.0765 -0.2287
 1123loPI   GL117957   8.816   4.912   5.150  0.2506  0.0144 -0.0184
 1123loPI   GL217958   8.573   5.110   5.070  0.0665  0.0941 -0.0740
 1123loPI   C1A17959   8.952   4.949   5.569  0.1033  0.3722 -0.0632
 1123loPI   C2A17960   8.811   4.755   5.882 -0.1459 -0.0661  0.2480
 1123loPI   C3A17961   8.867   4.638   6.324  0.0211  0.1687  0.2882
 1123loPI   C4A17962   8.918   4.173   6.454  0.2327 -0.2241  0.0254
 1123loPI   C5A17963   9.060   3.856   6.134 -0.1419 -0.1875  0.0745
 1123loPI   C6A17964   8.988   3.470   6.066  0.1058 -0.1354 -0.1454
 1123loPI   C1B17965   8.454   4.903   5.518 -0.4241  0.0231 -0.1912
 1123loPI   C2B17966   8.276   4.805   5.942 -0.0120  0.0633  0.0415
 1123loPI   C3B17967   8.031   4.488   6.059  0.2850 -0.0750 -0.0816
 1123loPI   C4B17968   8.035   4.130   6.324 -0.0339  0.2479  0.1797
 1124loPI    C117969   5.188   7.726   4.362  0.2194  0.0020 -0.0814
 1124loPI    C217970   5.450   7.997   4.229  0.1229  0.0355 -0.2064
 1124loPI    C317971   5.312   7.715   3.982  0.1472 -0.0678 -0.1033
 1124loPI   PO417972   5.143   7.727   4.641  0.1743 -0.2172  0.2409
 1124loPI   GL117973   5.047   7.956   4.862  0.0928 -0.2526 -0.2014
 1124loPI   GL217974   4.718   7.864   4.958 -0.1241  0.0614  0.2392
 1124loPI   C1A17975   5.101   7.856   5.324 -0.1329  0.0413 -0.0754
 1124loPI   C2A17976   5.122   7.761   5.846  0.0749 -0.3532 -0.0639
 1124loPI   C3A17977   5.359   7.758   6.299  0.1088  0.0679  0.2446
 1124loPI   C4A17978   5.258   7.725   6.847 -0.0061  0.1220 -0.3716
 1124loPI   C5A17979   5.086   8.013   7.131  0.0989 -0.1046 -0.1722
 1124loPI   C6A17980   5.141   8.061   7.606  0.0493  0.0370  0.0238
 1124loPI   C1B17981   4.701   8.129   5.343 -0.2252  0.4817  0.1729
 1124loPI   C2B17982   4.787   8.086   5.664  0.2739  0.0400 -0.2289
 1124loPI   C3B17983   5.032   8.149   6.136 -0.1718 -0.1037 -0.1915
 1124loPI   C4B17984   5.086   8.112   6.624 -0.1421 -0.0301 -0.0844
 1125loPI    C117985   8.235  16.188   4.188  0.1960 -0.0702  0.0566
 1125loPI    C217986   8.170  15.795   4.155 -0.0480 -0.0128 -0.1822
 1125loPI    C317987   7.893  16.055   4.028  0.0540  0.2375  0.0957
 1125loPI   PO417988   8.267  16.270   4.444  0.1170  0.1947  0.1223
 1125loPI   GL117989   8.055  16.369   4.783 -0.3991  0.0155 -0.0581
 1125loPI   GL217990   8.241  16.090   5.019 -0.0748 -0.1912  0.1001
 1125loPI   C1A17991   7.973  16.420   5.247  0.1649 -0.0957  0.3722
 1125loPI   C2A17992   8.153  16.507   5.532  0.1260  0.2246 -0.2025
 1125loPI   C3A17993   8.091  16.809   5.835  0.1993  0.0458 -0.0040
 1125loPI   C4A17994   7.990  16.919   6.215 -0.0027 -0.1839  0.0296
 1125loPI   C5A17995   8.066  17.196   6.567  0.0595 -0.2478  0.0390
 1125loPI   C6A17996   8.109  17.461   6.932  0.1776 -0.2089 -0.0837
 1125loPI   C1B17997   8.261  16.055   5.426 -0.1584 -0.1263  0.1094
 1125loPI   C2B17998   8.459  16.215   5.839 -0.2720 -0.2010  0.2931
 1125loPI   C3B17999   8.735  16.311   6.151 -0.3190 -0.2545  0.1575
 1125loPI   C4B18000   9.223  16.336   6.052  0.0329 -0.4605 -0.2236
 1126loPI    C118001  13.735  17.817   4.407  0.0026 -0.0776 -0.1315
 1126loPI    C218002  14.044  18.068   4.364 -0.1306  0.1050 -0.0381
 1126loPI    C318003  13.736  18.085   4.110 -0.1152 -0.0017 -0.0644
 1126loPI   PO418004  13.696  17.808   4.612  0.3524 -0.0096 -0.0040
 1126loPI   GL118005  13.472  17.855   4.859  0.0098 -0.0691 -0.0337
 1126loPI   GL218006  13.362  18.093   4.874 -0.3889  0.0201 -0.0729
 1126loPI   C1A18007  13.589  17.584   5.195  0.0755 -0.2617 -0.2361
 1126loPI   C2A18008  13.801  17.478   5.660 -0.1014 -0.0596  0.1006
 1126loPI   C3A18009  13.667  17.558   6.133 -0.2016 -0.0350  0.0911
 1126loPI   C4A18010  13.615  17.547   6.614 -0.0163 -0.2707 -0.4382
 1126loPI   C5A18011  13.405  17.359   6.829  0.0180 -0.0358 -0.0159
 1126loPI   C6A18012  13.639  17.022   6.819 -0.0134  0.0781 -0.2307
 1126loPI   C1B18013  13.561  18.057   5.287 -0.0527 -0.2307  0.0932
 1126loPI   C2B18014  13.557  17.877   5.719 -0.0798 -0.0956 -0.0015
 1126loPI   C3B18015  13.217  17.858   6.165 -0.1084 -0.1568  0.2057
 1126loPI   C4B18016  13.171  17.769   6.604  0.0333 -0.0485  0.3068
 1127loPI    C118017  19.520   8.010   4.065 -0.0488  0.1876 -0.0163
 1127loPI    C218018  19.401   8.360   3.914 -0.2264  0.1205 -0.0343
 1127loPI    C318019  19.148   8.051   3.926 -0.0333 -0.0440 -0.1308
 1127loPI   PO418020  19.579   7.983   4.249  0.3227  0.1667  0.0765
 1127loPI   GL118021  19.415   7.795   4.536  0.3245  0.0883  0.2684
 1127loPI   GL218022  19.154   7.702   4.369  0.2202 -0.3403 -0.1678
 1127loPI   C1A18023  19.385   7.996   4.863 -0.1330  0.0893 -0.2345
 1127loPI   C2A18024  19.358   7.961   5.256  0.1466 -0.3608  0.2457
 1127loPI   C3A18025  19.156   7.658   5.611  0.0860 -0.0256  0.2456
 1127loPI   C4A18026  19.045   7.554   6.039  0.1806  0.1862 -0.2751
 1127loPI   C5A18027  19.050   7.523   6.529 -0.1964 -0.0334 -0.3135
 1127loPI   C6A18028  19.028   7.942   6.885 -0.0190  0.1741  0.1124
 1127loPI   C1B18029  18.970   8.007   4.613 -0.3012  0.1552 -0.0509
 1127loPI   C2B18030  18.964   8.440   4.649 -0.3817 -0.3997  0.0420
 1127loPI   C3B18031  19.170   8.894   4.797 -0.1876  0.2021 -0.0161
 1127loPI   C4B18032  19.390   9.267   4.863  0.0352  0.0520 -0.0909
 1128loPI    C118033   7.758  18.119   4.502  0.0566 -0.0410  0.0825
 1128loPI    C218034   7.865  17.762   4.645  0.1256  0.0243  0.1949
 1128loPI    C318035   8.122  18.069   4.659  0.1310  0.0336 -0.0639
 1128loPI   PO418036   7.580  18.218   4.615 -0.1558  0.1156  0.0996
 1128loPI   GL118037   7.785  18.378   5.033  0.0519  0.3060 -0.1387
 1128loPI   GL218038   7.594  18.486   5.271 -0.1151  0.1522 -0.0376
 1128loPI   C1A18039   8.044  18.507   5.518 -0.0229 -0.1969  0.0635
 1128loPI   C2A18040   8.296  18.749   5.829  0.2174  0.1283 -0.0985
 1128loPI   C3A18041   8.064  19.059   6.060  0.1093  0.0839 -0.5717
 1128loPI   C4A18042   7.709  19.090   6.317  0.1792 -0.1256 -0.0474
 1128loPI   C5A18043   7.623  19.088   6.685  0.1198 -0.1875 -0.2487
 1128loPI   C6A18044   7.328  19.430   6.951 -0.1804 -0.0121  0.2582
 1128loPI   C1B18045   7.591  18.213   5.598  0.0634  0.1151 -0.0250
 1128loPI   C2B18046   7.513  18.202   6.012 -0.2696  0.0554 -0.2340
 1128loPI   C3B18047   7.278  18.090   6.358 -0.0186  0.0600  0.1666
 1128loPI   C4B18048   7.203  18.174   6.720  0.0494 -0.0033  0.0046
 1129loPI    C118049   6.837   9.705   4.424 -0.0180 -0.0456  0.0098
 1129loPI    C218050   6.708  10.031   4.231 -0.1132 -0.0022  0.1452
 1129loPI    C318051   6.715   9.678   4.044  0.1377  0.1046 -0.0523
 1129loPI   PO418052   6.832   9.754   4.687 -0.0743  0.3049  0.0071
 1129loPI   GL118053   6.955   9.654   5.138 -0.0806 -0.0691  0.1687
 1129loPI   GL218054   7.252   9.583   5.204  0.0873 -0.2796  0.1669
 1129loPI   C1A18055   6.859   9.468   5.530 -0.0200 -0.3172 -0.1822
 1129loPI   C2A18056   6.871   9.211   5.852  0.0576  0.2058 -0.0086
 1129loPI   C3A18057   6.676   8.940   6.189  0.0708  0.1592  0.1144
 1129loPI   C4A18058   6.590   8.687   6.580  0.3269  0.0201  0.2504
 1129loPI   C5A18059   6.637   8.258   6.742 -0.2383 -0.3778  0.2102
 1129loPI   C6A18060   6.373   7.924   6.602  0.1337 -0.0127  0.0442
 1129loPI   C1B18061   7.340   9.624   5.558 -0.0043 -0.1642 -0.2024
 1129loPI   C2B18062   7.257   9.459   5.953 -0.0206  0.1383  0.2932
 1129loPI   C3B18063   7.453   9.544   6.470 -0.0764  0.1841 -0.2331
 1129loPI   C4B18064   7.631   9.098   6.611 -0.2731 -0.0871  0.2129
 1130loPI    C118065  10.427  19.536   4.381  0.1013  0.0821  0.0580
 1130loPI    C218066  10.632  19.443   4.051  0.0990 -0.0126  0.0830
 1130loPI    C318067  10.283  19.263   4.127  0.0747  0.0460  0.1114
 1130loPI   PO418068  10.597  19.495   4.615 -0.2957  0.2212  0.0977
 1130loPI   GL118069  10.602  19.630   5.058 -0.0925 -0.3595  0.0428
 1130loPI   GL218070  10.438  19.337   5.082 -0.2544  0.0679  0.1141
 1130loPI   C1A18071  10.910  19.526   5.415  0.2641 -0.1856 -0.0929
 1130loPI   C2A18072  11.025  19.535   5.852 -0.0526 -0.1139 -0.1065
 1130loPI   C3A18073  11.204  19.466   6.137 -0.0301  0.3798 -0.2872
 1130loPI   C4A18074  11.338  19.093   6.290  0.0693  0.1006 -0.0040
 1130loPI   C5A18075  11.569  18.777   6.091  0.0543 -0.0918  0.0460
 1130loPI   C6A18076  11.665  18.463   5.915 -0.0729  0.1837  0.1534
 1130loPI   C1B18077  10.485  19.232   5.490 -0.0950 -0.0087  0.2008
 1130loPI   C2B18078  10.579  19.312   5.848 -0.2105 -0.0692 -0.3353
 1130loPI   C3B18079  10.732  19.519   6.283  0.1911  0.1247 -0.3837
 1130loPI   C4B18080  11.123  19.811   6.457 -0.0579  0.1411  0.0476
 1131loPI    C118081  19.850   0.988   4.262 -0.1104 -0.0178  0.0972
 1131loPI    C218082  19.667   1.226   3.997  0.0287  0.1980  0.1920
 1131loPI    C318083  19.554   0.844   4.035 -0.0383  0.1833 -0.1289
 1131loPI   PO418084  19.866   1.089   4.541  0.0999  0.3883 -0.0752
 1131loPI   GL118085  19.607   1.250   4.829 -0.1712  0.2310 -0.0054
 1131loPI   GL218086  19.589   0.950   4.951  0.2487  0.1520  0.0870
 1131loPI   C1A18087  19.434   1.449   5.156 -0.0877 -0.1367  0.2121
 1131loPI   C2A18088  19.483   1.545   5.601 -0.2356  0.4692  0.1250
 1131loPI   C3A18089  19.613   1.551   6.020 -0.2249 -0.3653 -0.2739
 1131loPI   C4A18090  19.802   1.711   6.479 -0.1199  0.0709  0.0724
 1131loPI   C5A18091  19.986   1.868   6.871 -0.1609  0.2763  0.0637
 1131loPI   C6A18092  19.615   2.141   6.853 -0.0997  0.0249  0.1105
 1131loPI   C1B18093  19.655   1.096   5.403 -0.3297  0.2644  0.2108
 1131loPI   C2B18094  19.762   0.949   5.794  0.1258  0.0367  0.3143
 1131loPI   C3B18095  19.574   0.789   6.136 -0.0513  0.0800 -0.0596
 1131loPI   C4B18096  19.480   0.500   6.383  0.2351 -0.0463  0.2119
 1132loPI    C118097  13.770   0.780   4.165 -0.0197 -0.1939  0.0039
 1132loPI    C218098  13.782   1.180   4.168 -0.3464 -0.1827  0.2299
 1132loPI    C318099  13.658   0.986   3.841  0.1705 -0.1173 -0.0149
 1132loPI   PO418100  13.912   0.692   4.408  0.1646 -0.1844 -0.1345
 1132loPI   GL118101  13.934   1.020   4.683 -0.0254 -0.0713  0.1897
 1132loPI   GL218102  13.874   1.364   4.651  0.0545  0.4013 -0.2380
 1132loPI   C1A18103  14.075   1.256   5.081  0.4908 -0.0448  0.3744
 1132loPI   C2A18104  13.932   1.595   5.364 -0.1046 -0.1745  0.1835
 1132loPI   C3A18105  13.957   1.658   5.847 -0.1741  0.1615 -0.0631
 1132loPI   C4A18106  14.168   1.681   6.157  0.0216 -0.4132 -0.4449
 1132loPI   C5A18107  14.201   1.664   6.616  0.0422  0.0736  0.4277
 1132loPI   C6A18108  14.004   1.933   6.990  0.2358 -0.0287  0.5175
 1132loPI   C1B18109  13.598   1.584   4.980 -0.1039 -0.0841 -0.0249
 1132loPI   C2B18110  13.576   2.010   5.170  0.5402  0.0601  0.4389
 1132loPI   C3B18111  13.416   2.420   5.299  0.2071 -0.2712  0.1055
 1132loPI   C4B18112  13.195   2.670   5.540 -0.3622  0.0170  0.1062
 1133loPI    C118113   4.025   4.265   4.586 -0.0070  0.0968  0.0520
 1133loPI    C218114   3.830   4.548   4.382 -0.1563  0.1298  0.2381
 1133loPI    C318115   4.228   4.564   4.414 -0.1168  0.0531 -0.1577
 1133loPI   PO418116   3.995   4.259   4.854 -0.0003  0.0027 -0.0871
 1133loPI   GL118117   4.210   4.418   5.205  0.0106  0.2918 -0.0803
 1133loPI   GL218118   3.877   4.240   5.370 -0.1368  0.0808 -0.1847
 1133loPI   C1A18119   4.258   4.452   5.625 -0.2384  0.0322 -0.0223
 1133loPI   C2A18120   4.545   4.283   5.983 -0.1254 -0.0159 -0.0289
 1133loPI   C3A18121   4.794   3.973   6.192  0.1636 -0.3299 -0.0467
 1133loPI   C4A18122   5.036   3.968   6.555 -0.1210  0.0877  0.2192
 1133loPI   C5A18123   5.021   3.954   7.026  0.0331 -0.0502  0.4282
 1133loPI   C6A18124   5.250   4.024   7.462 -0.0981  0.0726  0.2281
 1133loPI   C1B18125   4.047   4.086   5.803 -0.1417  0.1012 -0.1208
 1133loPI   C2B18126   4.269   3.999   6.254 -0.0082 -0.2827  0.0562
 1133loPI   C3B18127   4.154   4.288   6.596  0.0166  0.2798  0.1516
 1133loPI   C4B18128   4.136   4.423   7.034  0.1445 -0.1605 -0.1809
 1134loPI    C118129  15.321  16.125   3.825 -0.0175  0.0673  0.2209
 1134loPI    C218130  15.055  16.407   3.924  0.1919  0.2555  0.2563
 1134loPI    C318131  15.309  16.469   3.622  0.0117 -0.0384  0.0384
 1134loPI   PO418132  15.472  16.013   4.079 -0.2202  0.0086  0.0769
 1134loPI   GL118133  15.495  15.983   4.454 -0.2352 -0.2779 -0.1358
 1134loPI   GL218134  15.187  15.902   4.799  0.3078  0.1816 -0.0309
 1134loPI   C1A18135  15.859  16.112   4.666 -0.1080 -0.1892 -0.4140
 1134loPI   C2A18136  16.063  16.196   5.072 -0.0203  0.3350 -0.2588
 1134loPI   C3A18137  16.070  16.195   5.424  0.0370 -0.1736 -0.0281
 1134loPI   C4A18138  16.226  15.993   5.749  0.1293  0.1171  0.2150
 1134loPI   C5A18139  16.495  15.805   6.080  0.2215 -0.0008 -0.1145
 1134loPI   C6A18140  16.840  15.594   5.978 -0.1818  0.1371 -0.3465
 1134loPI   C1B18141  15.199  15.741   5.257 -0.1937 -0.0880 -0.0893
 1134loPI   C2B18142  15.179  15.314   5.478  0.0023 -0.1472 -0.0583
 1134loPI   C3B18143  15.330  14.823   5.519  0.0801  0.1583 -0.1241
 1134loPI   C4B18144  15.712  14.735   5.868 -0.0136 -0.0079  0.0949
 1135loPI    C118145   5.961   9.531   4.608 -0.0324 -0.1256  0.1061
 1135loPI    C218146   6.229   9.694   4.360 -0.2255  0.1980  0.1049
 1135loPI    C318147   5.844   9.671   4.253 -0.2160 -0.1945  0.1381
 1135loPI   PO418148   6.009   9.652   4.867  0.0970 -0.0693 -0.2816
 1135loPI   GL118149   6.069   9.605   5.303  0.0079  0.0166 -0.1535
 1135loPI   GL218150   6.310   9.380   5.334 -0.2714 -0.1591  0.1887
 1135loPI   C1A18151   5.842   9.719   5.648 -0.0263  0.0551  0.0199
 1135loPI   C2A18152   6.002   9.748   6.049  0.0543 -0.0097 -0.1884
 1135loPI   C3A18153   5.992   9.803   6.515 -0.1733 -0.0370  0.1474
 1135loPI   C4A18154   6.195   9.776   6.906 -0.0512  0.2658 -0.0944
 1135loPI   C5A18155   6.409  10.094   7.104 -0.0927  0.1638  0.0214
 1135loPI   C6A18156   6.717  10.417   7.357 -0.4408 -0.0286  0.2012
 1135loPI   C1B18157   6.263   9.401   5.774 -0.4007  0.0617 -0.0569
 1135loPI   C2B18158   6.380   9.377   6.271  0.1413  0.0712  0.3438
 1135loPI   C3B18159   6.566   9.222   6.596 -0.0512 -0.3511 -0.0299
 1135loPI   C4B18160   6.694   9.106   6.972  0.1633  0.0104  0.0305
 1136loPI    C118161   6.617   3.406   4.545  0.2319  0.0583  0.2586
 1136loPI    C218162   6.901   3.335   4.273  0.1471 -0.2483  0.2471
 1136loPI    C318163   6.879   3.693   4.450  0.2055 -0.0459 -0.1443
 1136loPI   PO418164   6.648   3.216   4.735 -0.1138 -0.0292  0.1950
 1136loPI   GL118165   6.855   3.223   5.122  0.1648  0.1932 -0.0511
 1136loPI   GL218166   7.066   2.915   5.036  0.1510  0.0450  0.0205
 1136loPI   C1A18167   6.365   3.332   5.300  0.1231  0.0625  0.0416
 1136loPI   C2A18168   6.001   3.470   5.476  0.1223  0.0295  0.0521
 1136loPI   C3A18169   5.600   3.455   5.492  0.0293 -0.2984 -0.1492
 1136loPI   C4A18170   5.251   3.683   5.619  0.2545 -0.1254  0.1794
 1136loPI   C5A18171   4.883   3.933   5.650  0.0094 -0.0296  0.1048
 1136loPI   C6A18172   4.433   3.966   5.547  0.1754 -0.2535 -0.2135
 1136loPI   C1B18173   7.234   3.073   5.409  0.0969 -0.0975  0.1475
 1136loPI   C2B18174   7.223   3.295   5.838 -0.2363  0.0867  0.0055
 1136loPI   C3B18175   7.242   3.409   6.200 -0.1828 -0.2692  0.1509
 1136loPI   C4B18176   7.283   3.245   6.597 -0.2400 -0.3308 -0.2892
 1137loPI    C118177   3.322   4.479   4.273 -0.2187  0.0720 -0.0220
 1137loPI    C218178   3.211   4.617   3.914  0.1380  0.1147 -0.1198
 1137loPI    C318179   3.234   4.223   3.979 -0.0998  0.1048 -0.0867
 1137loPI   PO418180   3.219   4.625   4.424  0.0848  0.1769  0.0884
 1137loPI   GL118181   3.123   4.785   4.898 -0.0600 -0.2314 -0.0978
 1137loPI   GL218182   2.915   5.017   4.986  0.1073  0.0451  0.2556
 1137loPI   C1A18183   3.262   4.944   5.361  0.0609  0.1709 -0.0130
 1137loPI   C2A18184   3.242   5.251   5.666  0.0400  0.0449 -0.1367
 1137loPI   C3A18185   3.111   5.596   5.974 -0.2369 -0.2210 -0.3668
 1137loPI   C4A18186   3.287   5.847   6.277 -0.2450  0.1585 -0.0942
 1137loPI   C5A18187   3.404   6.194   6.634 -0.0120 -0.2097  0.0353
 1137loPI   C6A18188   3.214   6.261   7.088 -0.4057  0.0601 -0.0287
 1137loPI   C1B18189   2.879   5.320   5.298  0.1420  0.1211 -0.0412
 1137loPI   C2B18190   2.695   5.385   5.791 -0.2654  0.1023 -0.2475
 1137loPI   C3B18191   2.899   5.191   6.222  0.2443  0.0519 -0.1017
 1137loPI   C4B18192   3.157   4.990   6.442 -0.0793 -0.0173 -0.1841
 1138loPI    C118193  15.905   2.617   4.022 -0.0000  0.2212 -0.1707
 1138loPI    C218194  15.767   2.318   3.795  0.3273  0.0326 -0.1277
 1138loPI    C318195  15.833   2.677   3.633 -0.0719  0.0872 -0.1788
 1138loPI   PO418196  16.119   2.474   4.185 -0.0156 -0.1720 -0.0091
 1138loPI   GL118197  16.103   2.308   4.608  0.5129 -0.0034  0.4893
 1138loPI   GL218198  15.724   2.486   4.571 -0.0071  0.2812 -0.1284
 1138loPI   C1A18199  16.204   2.297   5.136  0.2218 -0.6206  0.2188
 1138loPI   C2A18200  16.337   2.054   5.447  0.3265 -0.1149  0.3279
 1138loPI   C3A18201  16.102   1.989   5.884  0.1742 -0.2670  0.0612
 1138loPI   C4A18202  16.048   2.150   6.389 -0.1953  0.4170 -0.4985
 1138loPI   C5A18203  16.343   2.343   6.628  0.1712 -0.0842  0.2029
 1138loPI   C6A18204  16.687   2.336   6.938  0.3314 -0.1513  0.0869
 1138loPI   C1B18205  15.779   2.547   5.017  0.1063  0.0504 -0.0791
 1138loPI   C2B18206  15.856   2.576   5.397 -0.0318 -0.0575  0.2194
 1138loPI   C3B18207  15.926   2.491   5.851 -0.1496 -0.1207 -0.0356
 1138loPI   C4B18208  15.713   2.492   6.293  0.0462  0.0560 -0.0873
 1139loPI    C118209  14.495  17.048   4.226 -0.2969 -0.1694 -0.0450
 1139loPI    C218210  14.502  17.432   4.116  0.1109 -0.1371  0.0752
 1139loPI    C318211  14.314  17.162   3.888  0.2643  0.0521 -0.2846
 1139loPI   PO418212  14.418  17.060   4.559  0.0498 -0.1002  0.2058
 1139loPI   GL118213  14.392  16.908   4.942 -0.1388 -0.0450  0.1708
 1139loPI   GL218214  14.053  16.872   5.026 -0.0356  0.2027 -0.0318
 1139loPI   C1A18215  14.457  17.036   5.347  0.1873 -0.0967 -0.1256
 1139loPI   C2A18216  14.503  17.144   5.756 -0.3565 -0.1053 -0.0207
 1139loPI   C3A18217  14.204  17.466   5.968 -0.2148 -0.3170  0.1769
 1139loPI   C4A18218  14.064  17.723   6.403  0.5510 -0.3905  0.3427
 1139loPI   C5A18219  13.934  17.957   6.725 -0.0131 -0.0692  0.4024
 1139loPI   C6A18220  13.841  18.349   6.820  0.1104 -0.0530  0.1687
 1139loPI   C1B18221  14.133  16.641   5.409  0.0741  0.0069  0.0987
 1139loPI   C2B18222  14.217  16.670   5.782  0.0447 -0.3261  0.3612
 1139loPI   C3B18223  14.244  16.769   6.177  0.1736  0.2858  0.3261
 1139loPI   C4B18224  13.998  16.777   6.553  0.0626 -0.1006  0.1400
 1140loPI    C118225   4.984   8.192   4.328 -0.0206 -0.2291 -0.1517
 1140loPI    C218226   4.680   8.226   4.585  0.0937 -0.0645 -0.0363
 1140loPI    C318227   4.671   7.944   4.301 -0.3019  0.1260 -0.2216
 1140loPI   PO418228   5.177   8.300   4.500  0.1036  0.0930 -0.0257
 1140loPI   GL118229   5.446   8.299   4.922  0.0898 -0.0364  0.1815
 1140loPI   GL218230   5.672   8.252   5.139 -0.0467 -0.1084  0.0515
 1140loPI   C1A18231   5.230   8.399   5.304  0.3001 -0.0235  0.1507
 1140loPI   C2A18232   5.202   8.433   5.746 -0.2105  0.2261  0.2610
 1140loPI   C3A18233   5.192   8.649   6.106  0.0510  0.1358  0.1261
 1140loPI   C4A18234   5.155   8.678   6.535 -0.1382  0.1919  0.1765
 1140loPI   C5A18235   4.966   8.968   6.780  0.0073  0.0306 -0.0364
 1140loPI   C6A18236   4.738   8.832   7.142  0.0199  0.1611 -0.3546
 1140loPI   C1B18237   5.520   8.004   5.446  0.1025  0.1276 -0.1075
 1140loPI   C2B18238   5.499   8.100   6.008 -0.2844  0.0016 -0.0610
 1140loPI   C3B18239   5.551   8.254   6.505  0.3026 -0.1202  0.3169
 1140loPI   C4B18240   5.490   8.207   6.883 -0.1490 -0.2052  0.0816
 1141loPI    C118241  18.048  13.785   4.175 -0.3331 -0.1695  0.0965
 1141loPI    C218242  18.312  13.790   4.475 -0.0124 -0.2091 -0.1789
 1141loPI    C318243  18.143  14.131   4.353 -0.1041 -0.1857  0.0089
 1141loPI   PO418244  18.019  13.562   4.158 -0.0022 -0.0409 -0.0468
 1141loPI   GL118245  18.200  13.266   4.455  0.2396 -0.2326 -0.1618
 1141loPI   GL218246  17.986  13.502   4.659 -0.1272  0.1310 -0.1523
 1141loPI   C1A18247  18.170  13.122   4.906  0.1017  0.1113  0.2314
 1141loPI   C2A18248  18.074  13.233   5.314 -0.2617 -0.1224  0.0022
 1141loPI   C3A18249  18.082  13.291   5.792 -0.1433 -0.0273  0.1303
 1141loPI   C4A18250  17.841  13.323   6.197  0.1138  0.1670  0.0467
 1141loPI   C5A18251  17.415  13.495   6.374  0.0148 -0.4094  0.1844
 1141loPI   C6A18252  16.996  13.491   6.483 -0.0303 -0.1473  0.2819
 1141loPI   C1B18253  17.662  13.258   4.956  0.2046  0.0122 -0.0278
 1141loPI   C2B18254  17.354  13.253   5.137  0.0840 -0.3081 -0.1939
 1141loPI   C3B18255  17.029  13.227   5.399  0.0233 -0.0815  0.0105
 1141loPI   C4B18256  16.830  12.941   5.615 -0.0390  0.0783 -0.0862
 1142loPI    C118257  15.613   3.737   4.054  0.2806  0.0276  0.1478
 1142loPI    C218258  15.524   3.389   4.229 -0.0364  0.2002  0.3387
 1142loPI    C318259  15.603   3.401   3.837  0.1224 -0.1058  0.3581
 1142loPI   PO418260  15.707   3.828   4.279 -0.1725 -0.2637  0.4060
 1142loPI   GL118261  15.797   3.967   4.667 -0.0834 -0.0002  0.2395
 1142loPI   GL218262  15.899   4.105   4.977  0.0980 -0.0319 -0.1078
 1142loPI   C1A18263  15.408   3.991   4.893  0.2069 -0.1492  0.1894
 1142loPI   C2A18264  15.057   4.088   5.140  0.1676  0.1390 -0.0867
 1142loPI   C3A18265  14.925   4.241   5.560 -0.2627  0.0729 -0.1096
 1142loPI   C4A18266  14.644   4.252   5.935 -0.1981 -0.0750  0.0007
 1142loPI   C5A18267  14.614   4.467   6.248 -0.1648 -0.0719  0.2154
 1142loPI   C6A18268  14.492   4.686   6.655  0.1554  0.2777  0.2606
 1142loPI   C1B18269  15.840   4.554   5.162  0.0488  0.0387  0.1388
 1142loPI   C2B18270  15.576   4.809   5.382 -0.0956  0.0805  0.1716
 1142loPI   C3B18271  15.398   4.941   5.875 -0.0379 -0.2781  0.1630
 1142loPI   C4B18272  15.120   5.115   6.243 -0.0932 -0.1700  0.2468
 1143loPI    C118273   3.989   4.983   4.561  0.0351  0.2485 -0.1199
 1143loPI    C218274   4.358   5.051   4.422  0.0933 -0.0281 -0.1063
 1143loPI    C318275   4.067   4.938   4.171  0.0878 -0.0881 -0.0730
 1143loPI   PO418276   4.035   4.764   4.842 -0.0533 -0.0312 -0.3402
 1143loPI   GL118277   3.868   4.841   5.230  0.1526  0.1518 -0.0373
 1143loPI   GL218278   4.296   4.902   5.330  0.1718 -0.3054  0.0509
 1143loPI   C1A18279   3.795   5.110   5.616 -0.0194 -0.0735  0.0601
 1143loPI   C2A18280   3.710   5.001   6.032  0.0726 -0.0275  0.3415
 1143loPI   C3A18281   3.652   4.959   6.436  0.0769  0.3312  0.1219
 1143loPI   C4A18282   3.737   4.736   6.862 -0.0671 -0.2103  0.2696
 1143loPI   C5A18283   3.832   4.930   7.239  0.0493 -0.1898 -0.1649
 1143loPI   C6A18284   4.014   5.234   7.383  0.2996 -0.1132 -0.2007
 1143loPI   C1B18285   4.304   5.095   5.698  0.1212  0.0362  0.1799
 1143loPI   C2B18286   4.182   5.487   5.894  0.2123  0.2122 -0.0861
 1143loPI   C3B18287   4.084   5.697   6.206 -0.2272  0.0738 -0.4056
 1143loPI   C4B18288   3.785   5.778   6.424  0.3816 -0.1517  0.1205
 1144loPI    C118289   8.496  12.728   4.750  0.0476  0.0745 -0.0887
 1144loPI    C218290   8.359  12.366   4.649 -0.1014  0.0946  0.0376
 1144loPI    C318291   8.730  12.476   4.546 -0.0711 -0.0769 -0.0390
 1144loPI   PO418292   8.418  12.695   5.075  0.0810  0.0468  0.1620
 1144loPI   GL118293   8.316  12.876   5.469  0.1390 -0.2532  0.1695
 1144loPI   GL218294   8.107  12.720   5.445 -0.3007  0.3076 -0.0557
 1144loPI   C1A18295   8.323  12.602   5.882 -0.0979 -0.4241 -0.0195
 1144loPI   C2A18296   8.456  12.518   6.274 -0.4639  0.2236  0.5610
 1144loPI   C3A18297   8.584  12.322   6.393  0.2376  0.3586  0.0576
 1144loPI   C4A18298   8.819  11.981   6.635  0.0738 -0.2025 -0.1681
 1144loPI   C5A18299   9.192  11.715   6.926 -0.0702 -0.1075 -0.0627
 1144loPI   C6A18300   9.110  11.265   7.059 -0.0269  0.2336 -0.2443
 1144loPI   C1B18301   7.802  12.709   5.723 -0.0913  0.1221  0.1124
 1144loPI   C2B18302   7.885  12.739   6.182  0.0403 -0.0076 -0.0116
 1144loPI   C3B18303   8.068  12.678   6.585  0.2810  0.0994 -0.2645
 1144loPI   C4B18304   8.411  12.806   6.854  0.1162 -0.0102  0.1106
 1145loPI    C118305  16.400   9.811   3.947  0.0605 -0.3166 -0.1546
 1145loPI    C218306  16.114   9.867   3.673 -0.2713 -0.0752  0.2289
 1145loPI    C318307  16.351  10.171   3.780 -0.0176 -0.2169  0.0780
 1145loPI   PO418308  16.264   9.636   4.107 -0.4976  0.1429 -0.0116
 1145loPI   GL118309  16.340   9.730   4.466  0.2001  0.2189 -0.0084
 1145loPI   GL218310  16.186   9.981   4.636  0.3214  0.0477  0.1308
 1145loPI   C1A18311  16.516   9.551   4.849  0.1597 -0.2096 -0.0955
 1145loPI   C2A18312  16.572   9.680   5.319  0.0896  0.0352 -0.0460
 1145loPI   C3A18313  16.468   9.951   5.526 -0.0089  0.2236 -0.2058
 1145loPI   C4A18314  16.605  10.079   5.859 -0.0406 -0.1388  0.1175
 1145loPI   C5A18315  16.656  10.276   6.292 -0.3250  0.0159 -0.2842
 1145loPI   C6A18316  16.472  10.516   6.602  0.2290  0.1352 -0.2894
 1145loPI   C1B18317  16.126  10.016   5.069 -0.2412 -0.2446  0.1315
 1145loPI   C2B18318  16.066  10.308   5.508  0.1115  0.2421  0.0646
 1145loPI   C3B18319  16.319  10.498   5.865 -0.0990 -0.2232 -0.2522
 1145loPI   C4B18320  16.532  10.737   6.174 -0.1116  0.4750 -0.1854
 1146loPI    C118321   9.485   3.032   4.948  0.1550  0.0546  0.2490
 1146loPI    C218322   9.217   3.003   5.244 -0.0895  0.0103  0.0271
 1146loPI    C318323   9.591   2.869   5.298 -0.1197  0.0402  0.3277
 1146loPI   PO418324   9.512   3.265   4.907  0.2587 -0.0496  0.0839
 1146loPI   GL118325   9.489   3.524   5.317 -0.1962  0.1801  0.3398
 1146loPI   GL218326   9.345   3.399   5.538 -0.0695 -0.2134  0.1610
 1146loPI   C1A18327   9.811   3.739   5.613  0.3604  0.2311 -0.0290
 1146loPI   C2A18328   9.951   3.761   6.024  0.0996 -0.2075  0.0490
 1146loPI   C3A18329   9.889   3.797   6.447  0.0698  0.3334 -0.2374
 1146loPI   C4A18330   9.509   3.893   6.797  0.1567  0.0545  0.2211
 1146loPI   C5A18331   9.287   4.077   7.029  0.2528  0.2446  0.2193
 1146loPI   C6A18332   9.026   4.449   6.926 -0.1935  0.3925 -0.0904
 1146loPI   C1B18333   9.479   3.480   5.936 -0.3674 -0.1252 -0.0526
 1146loPI   C2B18334   9.421   3.628   6.299  0.2090  0.2175  0.0321
 1146loPI   C3B18335   9.185   3.568   6.512 -0.3117 -0.2203  0.0298
 1146loPI   C4B18336   8.848   3.744   6.717 -0.1804  0.1795  0.2171
 1147loPI    C118337   3.995  17.938   4.681  0.1008  0.2848  0.2748
 1147loPI    C218338   4.152  18.108   4.355 -0.2220  0.1729  0.0556
 1147loPI    C318339   4.051  17.721   4.350 -0.0566  0.1222  0.3531
 1147loPI   PO418340   4.140  18.010   4.893 -0.1687 -0.0414  0.0363
 1147loPI   GL118341   4.294  18.104   5.290  0.0364 -0.2141 -0.2012
 1147loPI   GL218342   4.047  17.738   5.274  0.0349  0.1096  0.0186
 1147loPI   C1A18343   4.208  18.135   5.719  0.0575  0.4038  0.2134
 1147loPI   C2A18344   4.427  18.110   6.103  0.0120  0.0721 -0.2887
 1147loPI   C3A18345   4.481  18.282   6.559 -0.2563  0.2034 -0.0367
 1147loPI   C4A18346   4.531  18.707   6.790  0.2052 -0.1402 -0.1032
 1147loPI   C5A18347   4.369  19.077   6.956 -0.1150  0.0593 -0.2467
 1147loPI   C6A18348   4.248  19.372   7.348  0.2541  0.2032  0.0120
 1147loPI   C1B18349   4.295  17.613   5.567  0.1333  0.3079  0.1319
 1147loPI   C2B18350   4.310  17.382   5.935  0.0801  0.0471  0.2528
 1147loPI   C3B18351   4.485  17.028   6.256  0.1999  0.1069  0.0222
 1147loPI   C4B18352   4.969  16.905   6.365  0.3151  0.1109 -0.1957
 1148loPI    C118353  18.028   1.725   3.946  0.0697 -0.0362 -0.2746
 1148loPI    C218354  17.786   1.997   3.781  0.0762  0.1785  0.0607
 1148loPI    C318355  18.027   1.777   3.549 -0.1265  0.2641 -0.2377
 1148loPI   PO418356  18.065   1.806   4.151 -0.0857  0.3715 -0.0683
 1148loPI   GL118357  17.854   1.614   4.538  0.1567 -0.1253  0.0372
 1148loPI   GL218358  17.752   1.316   4.664  0.0230  0.2151  0.1895
 1148loPI   C1A18359  17.945   1.705   4.995 -0.2524  0.0509 -0.0608
 1148loPI   C2A18360  18.205   1.714   5.415  0.0007 -0.1456  0.2255
 1148loPI   C3A18361  18.277   1.743   5.875 -0.3089  0.0440 -0.1047
 1148loPI   C4A18362  18.231   1.679   6.303  0.1165 -0.2886  0.1512
 1148loPI   C5A18363  18.322   1.536   6.615 -0.2304  0.0684  0.1820
 1148loPI   C6A18364  18.101   1.422   7.006  0.3127 -0.0818 -0.0637
 1148loPI   C1B18365  17.915   1.244   5.083  0.1497 -0.0474 -0.1967
 1148loPI   C2B18366  18.104   1.297   5.503 -0.1329 -0.0477  0.0347
 1148loPI   C3B18367  17.937   1.264   5.954  0.3528  0.3030  0.0453
 1148loPI   C4B18368  17.861   1.293   6.403  0.0291  0.2142  0.4544
 1149loPI    C118369   5.934   7.544   4.541 -0.0409  0.0632  0.0839
 1149loPI    C218370   5.557   7.428   4.476 -0.0629  0.0342  0.2580
 1149loPI    C318371   5.784   7.553   4.171 -0.1779 -0.0524  0.1361
 1149loPI   PO418372   5.930   7.435   4.809  0.1055  0.0581 -0.2368
 1149loPI   GL118373   5.862   7.578   5.090  0.3381 -0.2930  0.0916
 1149loPI   GL218374   5.899   7.797   5.232  0.1852 -0.1991 -0.0151
 1149loPI   C1A18375   5.646   7.473   5.474  0.2498 -0.2351 -0.0746
 1149loPI   C2A18376   5.667   7.617   5.848  0.0593  0.2050  0.0791
 1149loPI   C3A18377   5.707   7.421   6.317 -0.2161 -0.1315  0.0688
 1149loPI   C4A18378   5.810   7.286   6.750 -0.0718  0.0184 -0.2818
 1149loPI   C5A18379   5.875   6.960   7.053  0.1781 -0.3761  0.0734
 1149loPI   C6A18380   6.087   6.838   7.501 -0.0860 -0.0844  0.0863
 1149loPI   C1B18381   6.126   7.807   5.551 -0.0077  0.0141  0.2700
 1149loPI   C2B18382   6.164   7.969   5.957  0.2539  0.0979 -0.0513
 1149loPI   C3B18383   5.999   7.850   6.277 -0.0909 -0.1136 -0.2047
 1149loPI   C4B18384   5.757   7.759   6.635  0.2636 -0.0985 -0.1887
 1150loPI    C118385  12.078  11.852   4.242  0.2184 -0.2812  0.2340
 1150loPI    C218386  11.970  11.571   3.977 -0.1793 -0.0755  0.1697
 1150loPI    C318387  11.691  11.791   4.161  0.1284  0.3756  0.1146
 1150loPI   PO418388  12.222  11.687   4.423 -0.0260 -0.2520 -0.0541
 1150loPI   GL118389  12.536  11.737   4.808  0.0722  0.0199 -0.2248
 1150loPI   GL218390  12.835  11.833   4.741 -0.3406  0.0776 -0.1515
 1150loPI   C1A18391  12.336  11.631   5.162 -0.3285 -0.1318  0.7456
 1150loPI   C2A18392  12.278  11.712   5.556  0.2167  0.0874  0.2257
 1150loPI   C3A18393  12.365  11.437   5.875  0.4495 -0.1629 -0.0408
 1150loPI   C4A18394  12.527  11.289   6.209  0.3814 -0.1801  0.0950
 1150loPI   C5A18395  12.308  10.991   6.513 -0.0128 -0.1048 -0.0662
 1150loPI   C6A18396  11.878  10.851   6.627  0.0907 -0.0048  0.0926
 1150loPI   C1B18397  12.976  12.074   5.008  0.1490 -0.2523  0.0609
 1150loPI   C2B18398  13.292  12.037   5.396 -0.0524  0.0792 -0.3259
 1150loPI   C3B18399  13.389  12.168   5.836 -0.0596 -0.1425  0.2937
 1150loPI   C4B18400  13.532  12.242   6.291  0.1912 -0.0828  0.2508
 1151loPI    C118401   9.103  17.486   4.606  0.1016 -0.2110  0.1025
 1151loPI    C218402   9.480  17.390   4.512  0.1283  0.1631 -0.1980
 1151loPI    C318403   9.246  17.571   4.242 -0.2278  0.0520  0.0288
 1151loPI   PO418404   9.107  17.619   4.742 -0.1524  0.1278 -0.3665
 1151loPI   GL118405   9.156  17.729   5.150  0.0581  0.2387  0.2528
 1151loPI   GL218406   8.884  17.616   5.275 -0.1009  0.1995 -0.1885
 1151loPI   C1A18407   9.463  18.012   5.367  0.0936  0.3928  0.0674
 1151loPI   C2A18408   9.489  18.358   5.670  0.1782  0.3208 -0.1781
 1151loPI   C3A18409   9.513  18.643   5.958  0.2046  0.1023  0.1284
 1151loPI   C4A18410   9.479  18.634   6.334 -0.0770 -0.3899  0.1136
 1151loPI   C5A18411   9.470  18.815   6.743  0.1298  0.0109  0.2227
 1151loPI   C6A18412   9.640  18.927   7.129 -0.1565  0.2625  0.2015
 1151loPI   C1B18413   9.125  17.648   5.671 -0.0331 -0.0600 -0.0108
 1151loPI   C2B18414   9.208  17.730   6.059 -0.0539 -0.2203 -0.0664
 1151loPI   C3B18415   8.870  17.648   6.453 -0.0043  0.3505 -0.2359
 1151loPI   C4B18416   9.112  17.650   6.894  0.1167 -0.1378  0.1370
 1152loPI    C118417  14.986   3.522   4.309 -0.0868 -0.1159  0.1126
 1152loPI    C218418  15.211   3.852   4.300 -0.1260 -0.0886  0.1266
 1152loPI    C318419  15.150   3.642   3.965  0.0756 -0.2020  0.1591
 1152loPI   PO418420  15.022   3.275   4.393 -0.2951  0.2105 -0.1432
 1152loPI   GL118421  15.134   3.287   4.927  0.1480  0.0789  0.1380
 1152loPI   GL218422  14.811   3.318   4.847  0.0322  0.0387  0.1070
 1152loPI   C1A18423  15.168   3.560   5.209 -0.0976 -0.0925  0.1070
 1152loPI   C2A18424  14.922   3.694   5.617 -0.1730  0.0790 -0.2743
 1152loPI   C3A18425  14.992   3.842   6.072  0.2289  0.1654 -0.0526
 1152loPI   C4A18426  14.715   4.025   6.449  0.2821 -0.0612  0.0266
 1152loPI   C5A18427  14.412   4.179   6.729 -0.1383 -0.0875 -0.1372
 1152loPI   C6A18428  14.104   4.397   6.965  0.1208  0.0477 -0.1914
 1152loPI   C1B18429  14.693   3.691   5.105  0.0029  0.0893 -0.2553
 1152loPI   C2B18430  14.539   4.120   5.303 -0.0080 -0.0435  0.3148
 1152loPI   C3B18431  14.219   4.260   5.567 -0.0258 -0.1043  0.1470
 1152loPI   C4B18432  13.884   4.128   5.885  0.1043 -0.1600 -0.1468
 1153loPI    C118433  14.931   2.124   4.164 -0.0049 -0.2224 -0.1048
 1153loPI    C218434  15.175   2.076   3.851  0.1850  0.1463 -0.0195
 1153loPI    C318435  14.862   2.323   3.824  0.1310  0.0850  0.0430
 1153loPI   PO418436  15.031   1.923   4.292 -0.3335 -0.0996  0.0103
 1153loPI   GL118437  15.300   1.911   4.605 -0.0458 -0.0233 -0.2558
 1153loPI   GL218438  15.620   1.948   4.605 -0.0813  0.1573 -0.1901
 1153loPI   C1A18439  15.126   1.874   5.033 -0.1051  0.0129 -0.1224
 1153loPI   C2A18440  14.724   2.050   5.105  0.0911  0.1388  0.1267
 1153loPI   C3A18441  14.502   2.329   5.384 -0.1059  0.0514 -0.0346
 1153loPI   C4A18442  14.540   2.349   5.886 -0.1228 -0.0722  0.0621
 1153loPI   C5A18443  14.360   2.160   6.299 -0.0135 -0.0385 -0.1163
 1153loPI   C6A18444  14.032   2.262   6.550  0.0089  0.0840  0.2085
 1153loPI   C1B18445  15.869   1.985   4.981  0.0541  0.1752  0.1296
 1153loPI   C2B18446  15.795   1.928   5.501 -0.1600 -0.2246 -0.2086
 1153loPI   C3B18447  15.662   1.815   5.910  0.0684 -0.2200 -0.2911
 1153loPI   C4B18448  15.298   1.711   6.289 -0.0997  0.1725  0.0800
 1154loPI    C118449  17.012  12.612   3.828  0.1612  0.1022 -0.0218
 1154loPI    C218450  16.720  12.468   3.595  0.2141  0.0996 -0.0869
 1154loPI    C318451  16.912  12.803   3.492  0.0571  0.2464  0.0898
 1154loPI   PO418452  16.914  12.562   4.099  0.2368 -0.1482  0.1116
 1154loPI   GL118453  17.089  12.696   4.486  0.0552  0.0289  0.3528
 1154loPI   GL218454  17.099  12.322   4.559 -0.1126 -0.1648  0.3577
 1154loPI   C1A18455  17.305  12.709   4.830  0.3340  0.2220  0.2980
 1154loPI   C2A18456  17.215  12.771   5.272 -0.0253 -0.3084  0.1123
 1154loPI   C3A18457  17.046  12.474   5.564 -0.1591 -0.1721  0.1531
 1154loPI   C4A18458  17.146  12.324   5.958 -0.0607  0.0918  0.1674
 1154loPI   C5A18459  16.973  11.963   6.154  0.0029 -0.0389  0.0138
 1154loPI   C6A18460  16.943  11.667   6.525  0.0073  0.1203  0.2174
 1154loPI   C1B18461  16.745  12.078   4.692  0.0752 -0.1047  0.1308
 1154loPI   C2B18462  16.732  11.699   4.649  0.0452  0.1462  0.1694
 1154loPI   C3B18463  16.808  11.429   5.067  0.5098 -0.1639  0.1257
 1154loPI   C4B18464  16.563  11.447   5.345  0.1472  0.0436 -0.2982
 1155loPI    C118465   1.180   6.734   4.490 -0.0457 -0.1188 -0.0332
 1155loPI    C218466   0.920   6.722   4.187  0.0381  0.1139 -0.1169
 1155loPI    C318467   1.253   6.501   4.173  0.0573  0.1479 -0.2097
 1155loPI   PO418468   1.188   7.064   4.522 -0.1350 -0.1828 -0.5637
 1155loPI   GL118469   1.142   7.187   4.862 -0.1672  0.2027  0.1221
 1155loPI   GL218470   1.381   6.866   4.924  0.0806  0.0058  0.0051
 1155loPI   C1A18471   1.370   7.292   5.214 -0.0436  0.0580  0.0001
 1155loPI   C2A18472   1.422   7.372   5.702  0.0818 -0.1797  0.1037
 1155loPI   C3A18473   1.520   7.420   6.172  0.2720 -0.1478  0.0635
 1155loPI   C4A18474   1.726   7.727   6.371  0.1366  0.1704 -0.4535
 1155loPI   C5A18475   1.878   7.861   6.763  0.0218  0.4026 -0.5182
 1155loPI   C6A18476   1.686   8.243   6.806 -0.0734 -0.3351 -0.2824
 1155loPI   C1B18477   1.128   6.798   5.330 -0.0071  0.2487  0.0113
 1155loPI   C2B18478   1.029   7.052   5.615  0.1014 -0.2303  0.3802
 1155loPI   C3B18479   0.715   7.072   6.028 -0.1681 -0.0551 -0.0882
 1155loPI   C4B18480   0.755   7.185   6.474  0.4917 -0.0011  0.1519
 1156loPI    C118481   6.046  17.506   4.769  0.0366  0.0518  0.0054
 1156loPI    C218482   6.000  17.900   4.716  0.3425  0.0972  0.0631
 1156loPI    C318483   6.070  17.663   4.401 -0.2446  0.0279 -0.0254
 1156loPI   PO418484   6.000  17.527   5.040  0.3539  0.1933 -0.1057
 1156loPI   GL118485   6.140  17.658   5.358  0.0712 -0.1847  0.1433
 1156loPI   GL218486   6.172  17.265   5.418 -0.2255 -0.3441  0.1244
 1156loPI   C1A18487   6.096  17.708   5.841  0.1031 -0.1797  0.1648
 1156loPI   C2A18488   5.872  18.081   6.186 -0.0515  0.3432  0.2067
 1156loPI   C3A18489   5.992  18.279   6.592  0.1484  0.4682  0.0715
 1156loPI   C4A18490   6.235  18.564   6.814  0.0060 -0.1370 -0.0806
 1156loPI   C5A18491   6.303  19.020   7.021 -0.0374  0.1893 -0.1089
 1156loPI   C6A18492   6.254  19.456   6.837 -0.0248 -0.0390 -0.0303
 1156loPI   C1B18493   6.296  17.203   5.829  0.1214  0.1239  0.0672
 1156loPI   C2B18494   6.410  17.372   6.227 -0.2863 -0.2687 -0.1171
 1156loPI   C3B18495   6.438  17.572   6.652 -0.1127 -0.0668 -0.2832
 1156loPI   C4B18496   6.342  17.975   6.750 -0.0713 -0.1346  0.2066
 1157loPI    C118497   1.117   5.651   4.296 -0.1642  0.0544 -0.0126
 1157loPI    C218498   1.189   5.288   4.142 -0.0964  0.0743 -0.0280
 1157loPI    C318499   1.129   5.601   3.900 -0.2481  0.0558 -0.0155
 1157loPI   PO418500   1.315   5.665   4.535  0.0139 -0.4663 -0.2559
 1157loPI   GL118501   1.303   5.672   4.933 -0.0989 -0.0884  0.0288
 1157loPI   GL218502   1.330   5.921   4.927  0.2126 -0.0405 -0.1502
 1157loPI   C1A18503   1.186   5.738   5.456  0.0566 -0.1487  0.0804
 1157loPI   C2A18504   1.107   5.647   5.972  0.0072  0.0444  0.0431
 1157loPI   C3A18505   1.160   5.728   6.411  0.2189  0.0345 -0.2238
 1157loPI   C4A18506   1.171   6.128   6.472 -0.0876  0.1215 -0.4626
 1157loPI   C5A18507   1.267   6.448   6.696 -0.1773 -0.0356 -0.1386
 1157loPI   C6A18508   1.348   6.844   6.912 -0.0479  0.0418  0.0679
 1157loPI   C1B18509   1.602   5.959   5.274 -0.0016 -0.2398  0.1173
 1157loPI   C2B18510   1.949   5.994   5.610 -0.2172  0.2504  0.2797
 1157loPI   C3B18511   2.028   6.143   6.033 -0.2821 -0.0750  0.0944
 1157loPI   C4B18512   2.351   5.954   6.472  0.0048  0.0482  0.0167
 1158loPI    C118513   5.394  14.868   4.573 -0.1897  0.2380  0.0477
 1158loPI    C218514   5.187  15.157   4.388  0.0228  0.1427 -0.3512
 1158loPI    C318515   5.580  15.118   4.321  0.0514 -0.0641 -0.0802
 1158loPI   PO418516   5.353  15.011   4.897  0.0036  0.0849 -0.1835
 1158loPI   GL118517   5.151  15.202   5.280  0.1621  0.0879  0.5197
 1158loPI   GL218518   5.421  14.952   5.398  0.0647  0.0947 -0.0489
 1158loPI   C1A18519   5.130  15.150   5.774 -0.0713  0.1057 -0.0732
 1158loPI   C2A18520   5.343  15.146   6.217  0.3281 -0.1632 -0.0762
 1158loPI   C3A18521   5.597  14.881   6.345  0.1934 -0.1546 -0.3759
 1158loPI   C4A18522   5.861  14.798   6.628  0.0802  0.1647 -0.0523
 1158loPI   C5A18523   6.277  14.851   6.807  0.0632  0.1632  0.1002
 1158loPI   C6A18524   6.695  14.749   6.973 -0.1776 -0.0284  0.2653
 1158loPI   C1B18525   5.747  15.020   5.760  0.1240  0.0597 -0.1448
 1158loPI   C2B18526   6.036  15.015   5.981  0.1183 -0.1059 -0.4171
 1158loPI   C3B18527   6.200  14.667   6.276  0.0517  0.0397 -0.0557
 1158loPI   C4B18528   6.645  14.622   6.288  0.1241 -0.0563  0.0703
 1159loPI    C118529   9.496   7.667   5.031  0.2120 -0.1792  0.0971
 1159loPI    C218530   9.152   7.766   4.853  0.2294  0.2669  0.2959
 1159loPI    C318531   9.393   7.493   4.686 -0.0201  0.2582 -0.0621
 1159loPI   PO418532   9.571   7.863   5.149  0.1374  0.1136  0.2865
 1159loPI   GL118533   9.569   7.970   5.451  0.2081 -0.1227 -0.1819
 1159loPI   GL218534   9.180   7.668   5.520  0.1652 -0.1362  0.1551
 1159loPI   C1A18535   9.648   8.402   5.685  0.0597  0.2644 -0.0257
 1159loPI   C2A18536   9.659   8.632   6.119 -0.0625 -0.4421  0.3290
 1159loPI   C3A18537   9.832   8.756   6.519  0.0403 -0.0463 -0.0362
 1159loPI   C4A18538   9.745   8.822   7.003 -0.0279  0.1493  0.1782
 1159loPI   C5A18539   9.926   9.198   7.289 -0.1248  0.0547 -0.2134
 1159loPI   C6A18540  10.030   9.654   7.350 -0.1912 -0.0595  0.1429
 1159loPI   C1B18541   9.280   8.127   5.835  0.2271 -0.1297 -0.2582
 1159loPI   C2B18542   9.384   8.205   6.297 -0.4901  0.2306  0.1416
 1159loPI   C3B18543   9.419   8.366   6.727 -0.0788 -0.0929 -0.1322
 1159loPI   C4B18544   9.698   8.269   7.023  0.1622  0.0439  0.1521
 1160loPI    C118545   7.961   8.722   4.394 -0.0331 -0.1428 -0.0245
 1160loPI    C218546   8.236   8.727   4.104 -0.1218  0.0149 -0.1072
 1160loPI    C318547   7.882   8.905   4.047 -0.1991 -0.0897  0.0401
 1160loPI   PO418548   8.051   8.626   4.623 -0.1796  0.2066  0.1908
 1160loPI   GL118549   8.325   8.720   4.936  0.2089  0.2545  0.0946
 1160loPI   GL218550   8.356   8.422   4.994 -0.1275 -0.1229 -0.1480
 1160loPI   C1A18551   8.153   8.762   5.292 -0.3690  0.1635  0.0600
 1160loPI   C2A18552   8.096   9.093   5.640  0.1567 -0.3292  0.0729
 1160loPI   C3A18553   8.142   9.437   5.935  0.3898 -0.1275  0.0470
 1160loPI   C4A18554   8.185   9.578   6.329 -0.2046 -0.2622 -0.0405
 1160loPI   C5A18555   7.987   9.463   6.666 -0.1872 -0.2607 -0.3063
 1160loPI   C6A18556   8.025   9.558   7.093  0.3427 -0.0944 -0.1790
 1160loPI   C1B18557   8.514   8.456   5.483 -0.2083  0.1869  0.2548
 1160loPI   C2B18558   8.494   8.481   5.909  0.1934  0.0414  0.1049
 1160loPI   C3B18559   8.541   8.337   6.321 -0.1275 -0.0640  0.2384
 1160loPI   C4B18560   8.465   8.187   6.623  0.0962  0.0938  0.0266
 1161loPI    C118561   7.879   9.681   4.845  0.2273 -0.1774  0.2371
 1161loPI    C218562   8.014   9.826   4.497  0.1332 -0.0096  0.2694
 1161loPI    C318563   7.740   9.534   4.500  0.1869 -0.0609  0.2034
 1161loPI   PO418564   8.118   9.722   5.006 -0.1039 -0.2078 -0.1731
 1161loPI   GL118565   7.943   9.919   5.420 -0.0387 -0.1541 -0.0664
 1161loPI   GL218566   7.656   9.965   5.210  0.6075 -0.0171  0.1974
 1161loPI   C1A18567   8.262   9.910   5.825 -0.2064  0.2429 -0.1389
 1161loPI   C2A18568   8.580   9.905   6.169 -0.0986  0.0468 -0.2728
 1161loPI   C3A18569   8.788   9.905   6.573  0.0494  0.2279  0.2456
 1161loPI   C4A18570   9.099  10.098   6.696  0.0143 -0.0508  0.2325
 1161loPI   C5A18571   9.419  10.008   6.935  0.0628  0.1490 -0.5768
 1161loPI   C6A18572   9.748  10.080   7.214  0.0853 -0.0048 -0.3654
 1161loPI   C1B18573   7.568  10.110   5.663 -0.1071 -0.4577  0.0431
 1161loPI   C2B18574   7.595  10.273   6.057  0.0445 -0.2646  0.4903
 1161loPI   C3B18575   7.773  10.404   6.463  0.0076 -0.1262  0.4086
 1161loPI   C4B18576   8.147  10.482   6.713  0.0833 -0.0906 -0.0941
 1162loPI    C118577  17.405   9.567   3.809  0.1028  0.4273  0.1231
 1162loPI    C218578  17.195   9.868   3.651  0.0369  0.0818 -0.4761
 1162loPI    C318579  17.365   9.596   3.412  0.0476 -0.3932  0.0521
 1162loPI   PO418580  17.331   9.567   4.026 -0.3544  0.3765 -0.1812
 1162loPI   GL118581  17.231   9.545   4.438  0.2883 -0.0015  0.0085
 1162loPI   GL218582  17.527   9.731   4.484  0.0612 -0.0351 -0.0518
 1162loPI   C1A18583  17.347   9.242   4.764 -0.0727 -0.1208 -0.1775
 1162loPI   C2A18584  17.009   9.164   5.118  0.1151  0.1134 -0.0387
 1162loPI   C3A18585  16.757   9.112   5.568 -0.0265 -0.0404 -0.0780
 1162loPI   C4A18586  16.681   8.978   5.973 -0.0171 -0.0007 -0.0530
 1162loPI   C5A18587  16.479   8.665   6.196  0.1064 -0.3591  0.0066
 1162loPI   C6A18588  16.044   8.724   6.209 -0.0084 -0.1955  0.3053
 1162loPI   C1B18589  17.593   9.658   4.866 -0.1561 -0.2453 -0.0521
 1162loPI   C2B18590  17.544   9.631   5.196 -0.0428  0.0391 -0.0730
 1162loPI   C3B18591  17.618   9.731   5.563 -0.5528 -0.3903 -0.0764
 1162loPI   C4B18592  17.358   9.628   5.996 -0.4188  0.0770 -0.1700
 1163loPI    C118593  11.263  17.874   4.525 -0.2151 -0.0451  0.1162
 1163loPI    C218594  11.588  18.098   4.593 -0.1452 -0.1456  0.1145
 1163loPI    C318595  11.488  17.998   4.219 -0.1805 -0.1115  0.1147
 1163loPI   PO418596  11.251  17.655   4.698  0.2796  0.0582  0.1157
 1163loPI   GL118597  11.136  17.507   5.104  0.0670  0.0173  0.1320
 1163loPI   GL218598  11.029  17.778   5.137  0.2329  0.0247  0.0109
 1163loPI   C1A18599  11.309  17.691   5.556  0.0878 -0.0687  0.1813
 1163loPI   C2A18600  11.250  17.834   5.906 -0.1149 -0.3035  0.1839
 1163loPI   C3A18601  11.269  17.974   6.334  0.0554  0.1198 -0.0262
 1163loPI   C4A18602  11.164  17.867   6.697  0.5261 -0.0695 -0.2271
 1163loPI   C5A18603  11.035  18.052   7.120  0.0224 -0.1155  0.1094
 1163loPI   C6A18604  10.768  18.439   7.297  0.2426 -0.0157 -0.2900
 1163loPI   C1B18605  10.885  17.901   5.567 -0.0791  0.0640 -0.3768
 1163loPI   C2B18606  10.804  18.070   5.973  0.1845  0.3505 -0.0584
 1163loPI   C3B18607  10.711  18.039   6.381 -0.1381  0.0615  0.1164
 1163loPI   C4B18608  10.664  18.204   6.671 -0.2751  0.0817  0.0115
 1164loPI    C118609  19.474   6.223   4.460  0.1950 -0.0444 -0.0401
 1164loPI    C218610  19.359   6.221   4.843  0.1599  0.1113 -0.0493
 1164loPI    C318611  19.743   6.163   4.750  0.1164 -0.2634 -0.0104
 1164loPI   PO418612  19.325   6.412   4.361  0.1666  0.0333 -0.0028
 1164loPI   GL118613  19.314   6.771   4.647 -0.2066  0.0335 -0.1047
 1164loPI   GL218614  19.112   6.945   4.757  0.0069 -0.0175  0.0478
 1164loPI   C1A18615  19.332   6.573   5.117  0.0796  0.0013 -0.1734
 1164loPI   C2A18616  19.467   6.289   5.503  0.0740 -0.0013  0.2296
 1164loPI   C3A18617  19.493   6.223   5.979  0.0250 -0.0023 -0.1767
 1164loPI   C4A18618  19.306   6.270   6.361 -0.0113 -0.0459 -0.0895
 1164loPI   C5A18619  19.176   6.265   6.791  0.0450 -0.0739  0.1993
 1164loPI   C6A18620  18.909   6.067   7.085  0.0458  0.1565  0.2102
 1164loPI   C1B18621  19.008   7.070   5.125  0.1279 -0.2349  0.0696
 1164loPI   C2B18622  18.964   7.078   5.524  0.1639  0.1360 -0.3458
 1164loPI   C3B18623  18.993   7.049   5.921  0.1414  0.1264 -0.0151
 1164loPI   C4B18624  19.073   6.982   6.452 -0.3969 -0.1866  0.3292
 1165loPI    C118625  17.770   9.023   3.758  0.1150  0.0969  0.0856
 1165loPI    C218626  17.832   9.381   3.591  0.2253  0.0368 -0.0034
 1165loPI    C318627  17.979   9.051   3.419 -0.2155 -0.0955 -0.1400
 1165loPI   PO418628  17.880   9.108   3.979 -0.0536 -0.1018  0.1217
 1165loPI   GL118629  17.724   9.287   4.438  0.2573 -0.1115  0.1563
 1165loPI   GL218630  17.519   9.079   4.300 -0.2115 -0.1532  0.0700
 1165loPI   C1A18631  17.844   9.206   4.768 -0.0078 -0.0973  0.2408
 1165loPI   C2A18632  17.990   9.317   5.133  0.4166 -0.2965  0.0311
 1165loPI   C3A18633  17.989   9.132   5.501 -0.2339  0.2713  0.1643
 1165loPI   C4A18634  17.796   9.058   5.950  0.0192  0.2292 -0.0122
 1165loPI   C5A18635  17.762   8.996   6.476  0.1839  0.5802 -0.1072
 1165loPI   C6A18636  17.554   8.868   6.821  0.0300 -0.0943 -0.0050
 1165loPI   C1B18637  17.622   8.719   4.577 -0.3368 -0.0230  0.2458
 1165loPI   C2B18638  17.681   8.534   4.954 -0.0782  0.2264  0.0124
 1165loPI   C3B18639  17.948   8.422   5.336 -0.2266 -0.0362  0.0184
 1165loPI   C4B18640  18.214   8.290   5.750 -0.1152 -0.0870  0.2568
 1166loPI    C118641  10.325  14.816   4.443 -0.0457  0.2260 -0.1277
 1166loPI    C218642  10.267  14.421   4.418  0.0898  0.2034 -0.0929
 1166loPI    C318643  10.426  14.620   4.109 -0.0196  0.2386 -0.1271
 1166loPI   PO418644  10.504  14.783   4.740  0.1432 -0.1434  0.0456
 1166loPI   GL118645  10.492  14.856   5.183  0.1113 -0.1548  0.3154
 1166loPI   GL218646  10.858  15.086   5.230 -0.1280 -0.0314 -0.0375
 1166loPI   C1A18647  10.328  14.709   5.519 -0.0859  0.1045  0.0819
 1166loPI   C2A18648  10.164  14.547   5.854  0.1765 -0.2177 -0.1457
 1166loPI   C3A18649  10.070  14.306   6.239 -0.0965  0.1510  0.0489
 1166loPI   C4A18650  10.185  14.189   6.649  0.0114  0.3997 -0.2499
 1166loPI   C5A18651  10.587  14.220   6.815  0.1700 -0.1569 -0.1473
 1166loPI   C6A18652  10.716  14.048   7.226 -0.0775  0.2665 -0.0585
 1166loPI   C1B18653  10.658  15.049   5.621 -0.1789 -0.0704 -0.0757
 1166loPI   C2B18654  10.470  15.250   5.926 -0.0967 -0.2604 -0.1338
 1166loPI   C3B18655  10.288  15.241   6.338 -0.1550  0.0892  0.1617
 1166loPI   C4B18656  10.422  15.223   6.764  0.2689 -0.1271 -0.0715
 1167loPI    C118657   9.975   1.566   4.334 -0.2318 -0.1333  0.1926
 1167loPI    C218658   9.663   1.351   4.204 -0.2739 -0.1055  0.2470
 1167loPI    C318659  10.006   1.352   3.998 -0.4077  0.1067  0.0193
 1167loPI   PO418660   9.996   1.650   4.670 -0.0432  0.0528  0.2903
 1167loPI   GL118661   9.992   1.509   5.175 -0.0864  0.1007  0.0713
 1167loPI   GL218662   9.670   1.220   5.193  0.1900 -0.0613 -0.4036
 1167loPI   C1A18663  10.072   1.749   5.505  0.2562  0.1690  0.1932
 1167loPI   C2A18664   9.833   1.835   5.888  0.1275 -0.0224 -0.0750
 1167loPI   C3A18665   9.823   1.580   6.168  0.2035 -0.2518 -0.0891
 1167loPI   C4A18666   9.768   1.357   6.633 -0.0163 -0.0495 -0.1321
 1167loPI   C5A18667  10.136   1.093   6.907 -0.1653 -0.1100  0.2201
 1167loPI   C6A18668  10.396   0.961   7.240  0.0387  0.1930  0.0982
 1167loPI   C1B18669   9.635   0.838   5.361 -0.2328  0.1063 -0.2098
 1167loPI   C2B18670   9.747   0.754   5.783 -0.1025 -0.0263 -0.0488
 1167loPI   C3B18671   9.529   0.449   6.153  0.0726  0.2811  0.1538
 1167loPI   C4B18672   9.329   0.088   6.321  0.0848  0.0817 -0.1512
 1168loPI    C118673   0.902   8.395   4.461 -0.1411  0.0584  0.0999
 1168loPI    C218674   1.238   8.559   4.318 -0.0745  0.1600  0.3663
 1168loPI    C318675   0.885   8.652   4.155  0.0351 -0.0475 -0.0004
 1168loPI   PO418676   0.940   8.084   4.463 -0.1387 -0.2490 -0.1988
 1168loPI   GL118677   0.978   7.859   4.801  0.0820 -0.0414 -0.0408
 1168loPI   GL218678   0.799   7.634   4.914 -0.0789 -0.0374 -0.2929
 1168loPI   C1A18679   0.944   8.100   5.192 -0.0534 -0.1513  0.4486
 1168loPI   C2A18680   0.819   8.008   5.579 -0.0729  0.0672 -0.0123
 1168loPI   C3A18681   0.719   7.923   6.034 -0.0794  0.4302 -0.0660
 1168loPI   C4A18682   0.526   7.870   6.387  0.0744 -0.1482  0.1358
 1168loPI   C5A18683   0.173   7.993   6.643 -0.1827  0.1251  0.0311
 1168loPI   C6A18684   0.095   8.326   6.936  0.1396 -0.0798 -0.3166
 1168loPI   C1B18685   0.943   7.566   5.341 -0.3648 -0.0071 -0.1871
 1168loPI   C2B18686   0.920   7.564   5.793  0.1938  0.1269 -0.1038
 1168loPI   C3B18687   1.028   7.496   6.176 -0.2244  0.0321 -0.4097
 1168loPI   C4B18688   1.079   7.744   6.557  0.2010  0.0844 -0.1067
 1169loPI    C118689   0.588   6.285   4.240 -0.2475 -0.0485 -0.0547
 1169loPI    C218690   0.837   6.043   4.041  0.0268  0.0378  0.1770
 1169loPI    C318691   0.458   5.931   4.105 -0.0073 -0.0811 -0.2067
 1169loPI   PO418692   0.738   6.411   4.549 -0.0328  0.2653 -0.0163
 1169loPI   GL118693   0.738   6.652   4.962 -0.1016 -0.2576 -0.0980
 1169loPI   GL218694   0.702   6.950   4.825 -0.0926  0.2475 -0.0128
 1169loPI   C1A18695   0.688   6.726   5.422  0.0656  0.2530  0.1297
 1169loPI   C2A18696   0.933   6.659   5.887 -0.0665 -0.0903  0.0600
 1169loPI   C3A18697   0.879   6.573   6.360  0.0785  0.4069 -0.2109
 1169loPI   C4A18698   0.867   6.784   6.758 -0.1248  0.0708 -0.1593
 1169loPI   C5A18699   0.823   6.807   7.182 -0.0606 -0.0468  0.0308
 1169loPI   C6A18700   0.797   6.406   7.497 -0.0560  0.0811 -0.2481
 1169loPI   C1B18701   0.726   7.189   5.159 -0.1815  0.3773 -0.0044
 1169loPI   C2B18702   0.518   7.250   5.596  0.0328 -0.1165 -0.2310
 1169loPI   C3B18703   0.410   7.497   6.053 -0.1276 -0.1170  0.0941
 1169loPI   C4B18704   0.102   7.463   6.516  0.0956  0.0961  0.1090
 1170loPI    C118705   2.472  13.684   4.487  0.0682  0.0826 -0.0773
 1170loPI    C218706   2.267  14.017   4.570 -0.1697 -0.0645 -0.0642
 1170loPI    C318707   2.315  13.901   4.190  0.3399  0.2467 -0.1041
 1170loPI   PO418708   2.506  13.633   4.750 -0.0797 -0.0379 -0.3646
 1170loPI   GL118709   2.323  13.440   5.133  0.2592 -0.1467  0.0193
 1170loPI   GL218710   2.588  13.436   5.340 -0.0610  0.1394 -0.1417
 1170loPI   C1A18711   1.851  13.511   5.143 -0.0888  0.0760  0.5891
 1170loPI   C2A18712   1.627  13.458   5.557 -0.1388 -0.0329 -0.2961
 1170loPI   C3A18713   1.560  13.283   5.993 -0.0417  0.0825  0.1789
 1170loPI   C4A18714   1.311  13.229   6.390  0.2481  0.3802  0.2852
 1170loPI   C5A18715   0.851  13.318   6.583  0.0789 -0.1296 -0.0016
 1170loPI   C6A18716   0.560  12.934   6.772 -0.0024  0.1511 -0.2561
 1170loPI   C1B18717   2.475  13.339   5.712  0.4690  0.0740 -0.3249
 1170loPI   C2B18718   2.522  13.206   6.085 -0.1913 -0.0750 -0.1481
 1170loPI   C3B18719   2.464  13.146   6.492 -0.3451 -0.0266  0.0193
 1170loPI   C4B18720   2.626  12.937   6.866  0.0938 -0.1295  0.1148
 1171loPI    C118721  10.522  15.287   4.897 -0.0548  0.4307 -0.2421
 1171loPI    C218722  10.548  15.288   4.498 -0.3048 -0.0482 -0.2671
 1171loPI    C318723  10.189  15.286   4.674 -0.1954  0.0766 -0.0390
 1171loPI   PO418724  10.713  15.454   4.995 -0.1490  0.0852  0.1948
 1171loPI   GL118725  11.103  15.697   5.146  0.0475  0.1147 -0.3825
 1171loPI   GL218726  10.726  15.857   5.385 -0.4759  0.2193 -0.0944
 1171loPI   C1A18727  11.176  15.759   5.556 -0.1169  0.0568  0.2288
 1171loPI   C2A18728  11.359  15.586   5.910 -0.2802 -0.1025  0.1497
 1171loPI   C3A18729  11.458  15.592   6.351 -0.3117 -0.2333  0.0636
 1171loPI   C4A18730  11.621  15.820   6.692 -0.0167  0.1549  0.1786
 1171loPI   C5A18731  11.390  15.886   6.966 -0.0351  0.3473 -0.1218
 1171loPI   C6A18732  11.244  15.751   7.444  0.1038  0.2636  0.2620
 1171loPI   C1B18733  10.742  16.102   5.732  0.0295 -0.0942 -0.2233
 1171loPI   C2B18734  10.681  16.177   6.251  0.1120 -0.1276  0.0071
 1171loPI   C3B18735  10.648  16.443   6.644  0.4442  0.0640 -0.0226
 1171loPI   C4B18736  10.431  16.602   6.984  0.0594  0.0312  0.1376
 1172loPI    C118737  14.626   7.794   4.363 -0.1114  0.3543  0.1083
 1172loPI    C218738  14.899   8.053   4.498  0.0215  0.2354  0.0690
 1172loPI    C318739  14.958   7.862   4.151  0.0945 -0.1124  0.2674
 1172loPI   PO418740  14.602   7.667   4.595 -0.0012  0.0167 -0.0616
 1172loPI   GL118741  14.788   7.799   4.928 -0.0911 -0.1915 -0.0450
 1172loPI   GL218742  15.191   7.738   5.010 -0.0230  0.0055 -0.1481
 1172loPI   C1A18743  14.712   7.505   5.332  0.3978 -0.2735  0.0212
 1172loPI   C2A18744  14.558   7.349   5.645  0.0190 -0.1365 -0.0018
 1172loPI   C3A18745  14.333   7.503   5.931  0.0058  0.1894  0.2411
 1172loPI   C4A18746  14.177   7.727   6.333 -0.0792  0.1390 -0.1244
 1172loPI   C5A18747  14.094   8.079   6.646  0.1017  0.1867  0.1522
 1172loPI   C6A18748  13.946   8.165   7.130  0.1649  0.3636 -0.0032
 1172loPI   C1B18749  14.982   7.920   5.350  0.2183 -0.3114 -0.0775
 1172loPI   C2B18750  15.080   7.937   5.796  0.1514 -0.0688  0.1799
 1172loPI   C3B18751  15.104   7.938   6.266  0.2953 -0.0259 -0.0375
 1172loPI   C4B18752  14.888   8.188   6.545  0.0294  0.1193 -0.0304
 1173loPI    C118753   3.320   1.616   4.519 -0.1879  0.0223  0.0267
 1173loPI    C218754   3.690   1.658   4.373 -0.1247  0.2533  0.2463
 1173loPI    C318755   3.412   1.464   4.161  0.1499 -0.0173  0.1268
 1173loPI   PO418756   3.332   1.552   4.718 -0.2699 -0.0351  0.3062
 1173loPI   GL118757   3.425   1.458   5.119 -0.0456  0.0028  0.4213
 1173loPI   GL218758   3.488   1.763   5.215 -0.1161  0.3003  0.1189
 1173loPI   C1A18759   3.410   1.088   5.408 -0.1724  0.1049  0.0569
 1173loPI   C2A18760   3.461   0.948   5.811 -0.0185  0.0913 -0.1766
 1173loPI   C3A18761   3.295   1.007   6.289 -0.1341  0.0213  0.3038
 1173loPI   C4A18762   3.321   1.127   6.814  0.0036  0.2149  0.1638
 1173loPI   C5A18763   3.339   0.725   7.126 -0.2282  0.1913 -0.1513
 1173loPI   C6A18764   3.584   0.729   7.486 -0.3175  0.0065  0.4033
 1173loPI   C1B18765   3.717   1.877   5.554  0.0922 -0.0289  0.1648
 1173loPI   C2B18766   3.781   1.857   6.006  0.2021  0.1058  0.0725
 1173loPI   C3B18767   3.951   1.776   6.475  0.1891  0.1042 -0.2176
 1173loPI   C4B18768   3.991   1.855   6.929 -0.0914 -0.1578  0.1187
 1174loPI    C118769  10.272  11.025   4.622 -0.0655  0.1764  0.0284
 1174loPI    C218770  10.526  10.916   4.332  0.0032  0.0691  0.1281
 1174loPI    C318771  10.308  11.249   4.292  0.2596  0.2369  0.1017
 1174loPI   PO418772  10.349  10.986   4.806  0.4635  0.1965  0.1595
 1174loPI   GL118773  10.253  10.914   5.212  0.0870 -0.1451  0.1838
 1174loPI   GL218774  10.549  10.811   5.255 -0.2962 -0.1281 -0.0044
 1174loPI   C1A18775  10.320  11.010   5.666  0.2448 -0.2787 -0.0476
 1174loPI   C2A18776  10.695  11.009   5.947 -0.1273  0.3751  0.1910
 1174loPI   C3A18777  10.715  11.160   6.391  0.1358 -0.2573 -0.1102
 1174loPI   C4A18778  10.575  11.396   6.721 -0.1877 -0.2397 -0.0596
 1174loPI   C5A18779  10.564  11.343   7.154  0.1339  0.0425 -0.2423
 1174loPI   C6A18780  10.682  10.982   7.396 -0.0851 -0.1802  0.1295
 1174loPI   C1B18781  10.732  10.648   5.588 -0.0760 -0.1397 -0.0238
 1174loPI   C2B18782  11.018  10.590   5.931 -0.3184 -0.1029  0.3735
 1174loPI   C3B18783  11.151  10.328   6.396 -0.3523 -0.2927 -0.1419
 1174loPI   C4B18784  11.486  10.001   6.631  0.2761  0.0959 -0.0044
 1175loPI    C118785   1.483   8.077   4.110 -0.1755 -0.1384 -0.2038
 1175loPI    C218786   1.218   8.302   3.912 -0.1000  0.1578  0.0254
 1175loPI    C318787   1.605   8.403   3.914 -0.0691  0.0410  0.1525
 1175loPI   PO418788   1.424   8.079   4.359 -0.0988  0.1338 -0.2944
 1175loPI   GL118789   1.455   8.064   4.720  0.2004  0.2232 -0.0255
 1175loPI   GL218790   1.264   8.345   4.792  0.1217  0.0971  0.0037
 1175loPI   C1A18791   1.431   7.863   5.216  0.1493  0.0765  0.2947
 1175loPI   C2A18792   1.281   7.905   5.619 -0.0260  0.3671 -0.3064
 1175loPI   C3A18793   1.328   7.860   5.996  0.2189  0.1501 -0.3167
 1175loPI   C4A18794   1.451   8.166   6.366 -0.1250  0.1048 -0.0926
 1175loPI   C5A18795   1.751   8.588   6.371  0.0708  0.2437 -0.0022
 1175loPI   C6A18796   2.203   8.545   6.301 -0.1838 -0.0756 -0.0659
 1175loPI   C1B18797   1.421   8.341   5.138 -0.3908  0.1252  0.2454
 1175loPI   C2B18798   1.483   8.426   5.594 -0.0104  0.0859 -0.0423
 1175loPI   C3B18799   1.423   8.560   5.913  0.3712  0.1666 -0.0568
 1175loPI   C4B18800   1.260   8.610   6.353  0.1729 -0.1627  0.1950
 1176loPI    C118801  16.129  13.327   3.979  0.1566  0.0080 -0.0831
 1176loPI    C218802  16.270  13.690   3.887  0.0527  0.0302 -0.1568
 1176loPI    C318803  16.428  13.364   3.716  0.0808  0.0475 -0.1641
 1176loPI   PO418804  15.811  13.366   4.085  0.1585  0.4527 -0.2564
 1176loPI   GL118805  15.588  13.330   4.530 -0.0837  0.1904 -0.4184
 1176loPI   GL218806  15.721  13.016   4.469 -0.0596 -0.1467 -0.1812
 1176loPI   C1A18807  15.515  13.057   4.917  0.0622 -0.0289 -0.2286
 1176loPI   C2A18808  15.546  12.627   5.239 -0.1100 -0.0480  0.0152
 1176loPI   C3A18809  15.632  12.219   5.424 -0.0534 -0.3578  0.1418
 1176loPI   C4A18810  15.418  12.068   5.737 -0.2140  0.0603 -0.0176
 1176loPI   C5A18811  15.236  12.196   6.137  0.0559  0.2274 -0.2446
 1176loPI   C6A18812  14.839  12.288   6.282  0.2319  0.1576 -0.0183
 1176loPI   C1B18813  15.680  12.589   4.639 -0.1851  0.1501  0.0027
 1176loPI   C2B18814  15.837  12.300   4.972  0.0039 -0.1153  0.2239
 1176loPI   C3B18815  16.102  12.266   5.224  0.1046 -0.0664  0.0867
 1176loPI   C4B18816  16.477  12.501   5.478 -0.4015 -0.0810 -0.0536
 1177loPI    C118817   0.277   1.423   4.117  0.0749 -0.1015 -0.0655
 1177loPI    C218818   0.070   1.520   3.788  0.0956  0.2390  0.0173
 1177loPI    C318819   0.469   1.491   3.773  0.0799  0.0316 -0.0371
 1177loPI   PO418820   0.067   1.554   4.363  0.1330 -0.1413  0.0924
 1177loPI   GL118821   0.006   1.612   4.788 -0.1726 -0.0868 -0.0518
 1177loPI   GL218822   0.286   1.762   4.853  0.2147  0.2435 -0.2082
 1177loPI   C1A18823  -0.060   1.495   5.299 -0.1803 -0.2374 -0.0634
 1177loPI   C2A18824   0.064   1.343   5.705 -0.5110  0.1093  0.1084
 1177loPI   C3A18825   0.015   1.161   6.183 -0.2164 -0.1566 -0.0968
 1177loPI   C4A18826   0.201   1.321   6.632  0.0595 -0.1620 -0.1045
 1177loPI   C5A18827   0.305   1.502   7.051  0.2652  0.1137  0.0808
 1177loPI   C6A18828   0.343   1.747   7.427 -0.3269 -0.1344 -0.3893
 1177loPI   C1B18829   0.288   1.859   5.232 -0.1891  0.1693 -0.1562
 1177loPI   C2B18830   0.026   1.855   5.588  0.0776 -0.1111 -0.4463
 1177loPI   C3B18831  -0.199   2.024   5.937  0.3837  0.0739 -0.0576
 1177loPI   C4B18832  -0.409   2.250   6.394 -0.3562 -0.0269 -0.0054
 1178loPI    C118833   2.516  18.479   4.652 -0.2741 -0.0900 -0.1076
 1178loPI    C218834   2.388  18.853   4.584 -0.0336 -0.0059 -0.1063
 1178loPI    C318835   2.610  18.664   4.310  0.4574  0.1231  0.1885
 1178loPI   PO418836   2.310  18.338   4.735 -0.1594 -0.3797  0.2594
 1178loPI   GL118837   2.122  18.265   5.113  0.2421  0.2685  0.2536
 1178loPI   GL218838   2.193  18.052   5.300 -0.5115  0.2227 -0.0918
 1178loPI   C1A18839   2.147  18.543   5.487 -0.1307 -0.0655 -0.1287
 1178loPI   C2A18840   2.430  18.454   5.941 -0.1535 -0.1356  0.1377
 1178loPI   C3A18841   2.561  18.524   6.287 -0.0799  0.2519 -0.0282
 1178loPI   C4A18842   2.498  18.592   6.672  0.1296  0.0032  0.0186
 1178loPI   C5A18843   2.202  18.629   7.042 -0.2973 -0.2159  0.0839
 1178loPI   C6A18844   1.727  18.631   7.115  0.2196 -0.1336 -0.0139
 1178loPI   C1B18845   2.290  18.059   5.720  0.0924  0.2587 -0.1931
 1178loPI   C2B18846   2.220  18.013   6.148 -0.0274 -0.1253  0.1129
 1178loPI   C3B18847   2.219  17.845   6.497 -0.1767 -0.0255  0.0179
 1178loPI   C4B18848   1.882  17.614   6.803 -0.0433  0.0846  0.4707
 1179loPI    C118849  10.894  11.216   4.488 -0.1067 -0.1714  0.2414
 1179loPI    C218850  11.064  10.861   4.417 -0.1926 -0.1807  0.0770
 1179loPI    C318851  11.026  11.127   4.121  0.2951  0.1513  0.3004
 1179loPI   PO418852  10.792  11.214   4.691 -0.2685  0.1390 -0.0424
 1179loPI   GL118853  10.869  11.213   5.063 -0.0929  0.0178 -0.0699
 1179loPI   GL218854  10.575  11.339   5.155  0.3942  0.0539  0.0620
 1179loPI   C1A18855  11.011  11.019   5.399 -0.1670 -0.2108  0.1953
 1179loPI   C2A18856  11.132  10.567   5.371 -0.3018  0.1242  0.1666
 1179loPI   C3A18857  11.443  10.428   5.664 -0.0139  0.2677  0.2481
 1179loPI   C4A18858  11.610  10.420   6.061 -0.0774  0.0031  0.0779
 1179loPI   C5A18859  11.690  10.409   6.511 -0.0574  0.3611  0.0955
 1179loPI   C6A18860  11.637  10.478   6.972  0.0595 -0.1212 -0.0644
 1179loPI   C1B18861  10.737  11.457   5.571  0.1315  0.0313 -0.1871
 1179loPI   C2B18862  10.935  11.512   6.018  0.0232 -0.2807 -0.1117
 1179loPI   C3B18863  11.099  11.405   6.426 -0.1082 -0.0981  0.4320
 1179loPI   C4B18864  11.031  11.151   6.750 -0.0659 -0.1349  0.2166
 1180loPI    C118865  13.161   5.053   4.249  0.0179 -0.2258 -0.0051
 1180loPI    C218866  13.500   5.018   4.040  0.1484 -0.0716  0.1769
 1180loPI    C318867  13.227   5.289   3.934  0.1224 -0.1333  0.0849
 1180loPI   PO418868  13.278   5.129   4.468 -0.1265 -0.0579 -0.1100
 1180loPI   GL118869  13.229   5.283   4.848  0.2124 -0.0320  0.0509
 1180loPI   GL218870  12.953   5.105   4.892  0.0648  0.0737  0.1476
 1180loPI   C1A18871  13.100   5.581   5.081  0.0903 -0.0630 -0.0106
 1180loPI   C2A18872  12.919   5.646   5.482  0.2485  0.0881  0.0861
 1180loPI   C3A18873  12.754   5.552   5.870  0.0147  0.0098  0.0057
 1180loPI   C4A18874  12.740   5.292   6.204  0.0065 -0.5190 -0.3046
 1180loPI   C5A18875  12.980   5.088   6.465  0.2460  0.2488 -0.2325
 1180loPI   C6A18876  13.091   5.030   6.880  0.0094  0.1653 -0.3628
 1180loPI   C1B18877  12.819   5.171   5.277  0.0945 -0.0288 -0.2466
 1180loPI   C2B18878  12.731   5.003   5.729 -0.0831 -0.1211 -0.3663
 1180loPI   C3B18879  12.449   4.908   6.071 -0.2005  0.0226  0.3310
 1180loPI   C4B18880  12.529   4.793   6.448  0.0791  0.0153 -0.2760
 1181loPI    C118881   0.386   6.975   4.281  0.0101 -0.3290 -0.0036
 1181loPI    C218882   0.513   6.969   3.902 -0.2066  0.3531 -0.1014
 1181loPI    C318883   0.122   6.949   3.982 -0.1679  0.3138  0.0819
 1181loPI   PO418884   0.423   6.805   4.379 -0.1681 -0.0866  0.0973
 1181loPI   GL118885   0.113   6.610   4.682  0.1480 -0.1581 -0.1602
 1181loPI   GL218886  -0.196   6.632   4.874  0.3142 -0.1162 -0.1670
 1181loPI   C1A18887   0.264   6.246   4.936 -0.1713  0.3241 -0.5254
 1181loPI   C2A18888   0.373   6.319   5.379  0.1083  0.0780  0.0572
 1181loPI   C3A18889   0.508   6.380   5.804 -0.0248  0.0239 -0.2237
 1181loPI   C4A18890   0.450   6.634   6.152  0.0575  0.0404 -0.0365
 1181loPI   C5A18891   0.402   6.814   6.541  0.1645 -0.2470  0.1048
 1181loPI   C6A18892  -0.009   6.894   6.715  0.1622  0.1378 -0.1187
 1181loPI   C1B18893  -0.099   6.490   5.296  0.3166 -0.0619 -0.0577
 1181loPI   C2B18894  -0.011   6.387   5.780  0.2844 -0.1195 -0.1704
 1181loPI   C3B18895  -0.013   6.673   6.119 -0.1764 -0.3837 -0.1782
 1181loPI   C4B18896   0.190   7.086   6.208  0.1205 -0.0506  0.0987
 1182loPI    C118897   6.361   4.307   4.493  0.0704  0.1967  0.1490
 1182loPI    C218898   6.065   4.202   4.245  0.1888 -0.3769  0.2347
 1182loPI    C318899   6.350   4.455   4.122  0.0312 -0.3461 -0.0758
 1182loPI   PO418900   6.248   4.301   4.782 -0.0292  0.0957 -0.2895
 1182loPI   GL118901   6.262   4.467   5.181 -0.1616 -0.0092  0.1722
 1182loPI   GL218902   6.332   4.772   5.252 -0.0404 -0.2850  0.2197
 1182loPI   C1A18903   6.339   4.286   5.515  0.0235  0.0728 -0.3207
 1182loPI   C2A18904   6.412   4.135   6.011 -0.0970  0.2969 -0.0699
 1182loPI   C3A18905   6.245   4.299   6.417  0.0783 -0.0252  0.0260
 1182loPI   C4A18906   6.130   4.736   6.532  0.1085 -0.0132  0.2000
 1182loPI   C5A18907   6.233   4.957   6.875 -0.2620  0.2487 -0.3649
 1182loPI   C6A18908   6.446   5.417   7.036 -0.2019  0.1072  0.0518
 1182loPI   C1B18909   6.322   4.742   5.624 -0.1250 -0.0679  0.0468
 1182loPI   C2B18910   6.150   4.598   5.990  0.3401  0.1657  0.2386
 1182loPI   C3B18911   5.776   4.432   6.164  0.0756  0.1040  0.1730
 1182loPI   C4B18912   5.727   4.102   6.391 -0.0979 -0.0786  0.0771
 1183loPI    C118913   2.861  16.189   4.530  0.0457  0.0386 -0.1933
 1183loPI    C218914   2.516  16.052   4.678 -0.1011  0.4525 -0.1374
 1183loPI    C318915   2.713  15.840   4.403 -0.1595 -0.0105  0.1652
 1183loPI   PO418916   2.864  16.408   4.778 -0.1207 -0.0133 -0.0397
 1183loPI   GL118917   2.877  16.243   5.191  0.0413 -0.1046  0.2386
 1183loPI   GL218918   2.537  16.293   5.104 -0.0160  0.1364 -0.2808
 1183loPI   C1A18919   3.026  16.272   5.652  0.3864  0.1817  0.4341
 1183loPI   C2A18920   3.271  16.466   5.938 -0.0201 -0.0038 -0.0443
 1183loPI   C3A18921   3.594  16.557   6.169 -0.1101  0.2854 -0.0305
 1183loPI   C4A18922   3.743  16.420   6.525 -0.0245 -0.0067  0.0194
 1183loPI   C5A18923   4.099  16.202   6.740  0.1246  0.1670  0.2613
 1183loPI   C6A18924   4.469  15.921   6.624 -0.0066  0.0439 -0.0685
 1183loPI   C1B18925   2.500  16.087   5.490  0.0106  0.3158 -0.0502
 1183loPI   C2B18926   2.665  16.029   5.838 -0.3544 -0.1493  0.1387
 1183loPI   C3B18927   2.720  15.976   6.339  0.3045 -0.0394  0.2630
 1183loPI   C4B18928   2.898  15.928   6.725  0.0970  0.1447 -0.2966
 1184loPI    C118929  13.998  16.061   4.419  0.1723 -0.0634 -0.0371
 1184loPI    C218930  14.058  16.305   4.108 -0.0618  0.1481  0.0802
 1184loPI    C318931  13.772  16.387   4.375  0.0623 -0.0913  0.2919
 1184loPI   PO418932  14.203  15.944   4.432 -0.1292  0.0035  0.1175
 1184loPI   GL118933  14.326  15.680   4.721  0.0165 -0.0418  0.0512
 1184loPI   GL218934  14.677  15.814   4.776  0.0348 -0.0378  0.0222
 1184loPI   C1A18935  14.209  15.753   5.047  0.0419  0.1667 -0.2263
 1184loPI   C2A18936  14.106  15.719   5.459  0.1804  0.2127  0.2406
 1184loPI   C3A18937  14.271  15.672   5.931 -0.0756  0.3256  0.0250
 1184loPI   C4A18938  14.159  15.799   6.293 -0.1451  0.3699 -0.3186
 1184loPI   C5A18939  14.028  15.523   6.666 -0.2092  0.1935 -0.0566
 1184loPI   C6A18940  14.294  15.551   7.051 -0.2739  0.0037  0.0716
 1184loPI   C1B18941  14.777  15.982   5.194  0.0370  0.0563 -0.1780
 1184loPI   C2B18942  14.949  15.978   5.590  0.1573  0.2088 -0.1935
 1184loPI   C3B18943  15.211  15.724   5.862 -0.0455  0.0197 -0.0884
 1184loPI   C4B18944  15.225  15.480   6.136  0.1539 -0.1881 -0.0758
 1185loPI    C118945  19.090  17.621   4.289 -0.0412  0.0312  0.0005
 1185loPI    C218946  19.131  17.273   4.095  0.1173  0.0819 -0.0588
 1185loPI    C318947  19.425  17.544   4.083  0.0457  0.1674  0.0894
 1185loPI   PO418948  18.777  17.560   4.390 -0.1361 -0.0520  0.1727
 1185loPI   GL118949  18.642  17.398   4.778  0.1702 -0.0565  0.2271
 1185loPI   GL218950  18.967  17.225   4.730  0.1484  0.0209  0.1768
 1185loPI   C1A18951  18.733  17.415   5.279  0.2844  0.3355  0.2381
 1185loPI   C2A18952  18.845  17.253   5.653  0.2670 -0.0957 -0.1491
 1185loPI   C3A18953  18.826  16.981   6.020 -0.1309  0.3302 -0.1505
 1185loPI   C4A18954  18.714  16.931   6.544 -0.2338 -0.1183  0.1342
 1185loPI   C5A18955  18.958  17.050   6.849  0.2890 -0.2676 -0.1155
 1185loPI   C6A18956  19.302  16.889   7.122  0.0352  0.0790 -0.0522
 1185loPI   C1B18957  19.196  17.332   5.009  0.2598  0.0367 -0.0727
 1185loPI   C2B18958  19.288  17.212   5.432  0.1241  0.0342  0.2332
 1185loPI   C3B18959  19.305  17.196   5.825 -0.0183  0.0115 -0.0531
 1185loPI   C4B18960  19.458  17.179   6.189 -0.0281  0.0278  0.1466
 1186loPI    C118961  19.516   3.429   4.497  0.1160 -0.1216 -0.1314
 1186loPI    C218962  19.569   3.453   4.893 -0.2394 -0.1282 -0.0802
 1186loPI    C318963  19.842   3.270   4.666  0.1059  0.1191  0.1241
 1186loPI   PO418964  19.205   3.379   4.513  0.1180 -0.0975 -0.0222
 1186loPI   GL118965  19.047   3.340   4.783 -0.1492 -0.0764 -0.2784
 1186loPI   GL218966  19.152   3.533   5.117  0.2288  0.3728 -0.0864
 1186loPI   C1A18967  18.846   2.972   4.943 -0.0578 -0.1128 -0.0490
 1186loPI   C2A18968  18.570   3.002   5.272 -0.1791  0.0785  0.0795
 1186loPI   C3A18969  18.508   2.982   5.709 -0.2000 -0.3009  0.1438
 1186loPI   C4A18970  18.477   3.115   6.239 -0.1297  0.0232 -0.0551
 1186loPI   C5A18971  18.164   3.022   6.580 -0.2667 -0.2123  0.0646
 1186loPI   C6A18972  18.175   2.755   6.875  0.0730  0.0395  0.0413
 1186loPI   C1B18973  18.960   3.342   5.479 -0.0818 -0.3667  0.2424
 1186loPI   C2B18974  18.839   3.227   5.970 -0.2780 -0.2973  0.2432
 1186loPI   C3B18975  18.956   3.210   6.452 -0.0746 -0.1465 -0.2401
 1186loPI   C4B18976  19.097   3.446   6.806  0.0519 -0.3934 -0.1176
 1187loPI    C118977   2.565  10.654   4.118 -0.2337  0.0485 -0.1795
 1187loPI    C218978   2.879  10.424   4.211 -0.1755  0.1425 -0.1415
 1187loPI    C318979   2.616  10.302   3.936 -0.0959  0.0714 -0.1865
 1187loPI   PO418980   2.452  10.731   4.317  0.1724 -0.1142  0.1127
 1187loPI   GL118981   2.285  10.684   4.716 -0.1030 -0.1245 -0.2372
 1187loPI   GL218982   1.994  10.628   4.620 -0.0293 -0.0684  0.0270
 1187loPI   C1A18983   2.459  10.789   5.165 -0.0281  0.3141 -0.2544
 1187loPI   C2A18984   2.364  10.680   5.500  0.1665 -0.0742 -0.0440
 1187loPI   C3A18985   2.500  10.345   5.857  0.1349  0.0649 -0.0121
 1187loPI   C4A18986   2.355  10.365   6.254 -0.0809  0.1884  0.1453
 1187loPI   C5A18987   2.297  10.248   6.654 -0.2824  0.0339  0.0199
 1187loPI   C6A18988   2.062  10.091   6.944 -0.0581 -0.0429  0.1223
 1187loPI   C1B18989   1.840  10.776   4.952 -0.2127 -0.1996  0.0165
 1187loPI   C2B18990   1.984  11.036   5.273 -0.1835 -0.3465  0.2136
 1187loPI   C3B18991   1.987  10.973   5.707  0.1149 -0.1345 -0.0402
 1187loPI   C4B18992   2.175  10.810   6.039 -0.1112 -0.0964  0.5450
 1188loPI    C118993   5.988   1.908   4.759 -0.2778  0.1186 -0.1462
 1188loPI    C218994   5.945   1.753   5.126 -0.0216  0.0852 -0.1285
 1188loPI    C318995   5.626   1.796   4.888 -0.1803  0.0525  0.0756
 1188loPI   PO418996   6.135   2.076   4.779 -0.0817 -0.3800  0.3015
 1188loPI   GL118997   6.361   2.341   5.098  0.0179  0.2178 -0.0359
 1188loPI   GL218998   6.387   1.990   5.217 -0.0828  0.2189 -0.3204
 1188loPI   C1A18999   6.843   2.302   5.294  0.0714 -0.0343 -0.1896
 1188loPI   C2A19000   7.020   2.590   5.642  0.1560  0.1557 -0.0505
 1188loPI   C3A19001   7.095   2.823   5.994 -0.1437 -0.0532  0.0146
 1188loPI   C4A19002   7.236   2.767   6.433  0.2461  0.0533  0.0900
 1188loPI   C5A19003   7.524   2.646   6.592 -0.0363  0.1261  0.0359
 1188loPI   C6A19004   7.306   2.362   6.768 -0.0312  0.0942  0.0268
 1188loPI   C1B19005   6.457   1.982   5.592 -0.0722 -0.1551  0.3351
 1188loPI   C2B19006   6.296   2.138   5.938 -0.2824  0.5811 -0.0624
 1188loPI   C3B19007   6.272   2.362   6.354 -0.1373  0.0254  0.0392
 1188loPI   C4B19008   6.241   2.576   6.758  0.3295 -0.2205  0.4797
 1189loPI    C119009   7.419   6.998   4.222 -0.0037  0.1360 -0.0080
 1189loPI    C219010   7.270   7.330   4.055  0.0547  0.0510 -0.2328
 1189loPI    C319011   7.381   7.023   3.825  0.2546 -0.0207 -0.0442
 1189loPI   PO419012   7.307   6.937   4.593  0.1119  0.0282  0.0254
 1189loPI   GL119013   7.118   6.643   5.026  0.1561 -0.0706 -0.1548
 1189loPI   GL219014   7.138   6.397   5.308  0.1499  0.0983  0.1601
 1189loPI   C1A19015   6.882   6.851   5.323  0.0084  0.0460  0.0956
 1189loPI   C2A19016   6.659   6.990   5.741 -0.1762 -0.1158 -0.1885
 1189loPI   C3A19017   6.640   7.024   6.179  0.2094  0.0943 -0.0619
 1189loPI   C4A19018   6.634   6.750   6.517  0.0001 -0.2286 -0.1089
 1189loPI   C5A19019   6.507   6.360   6.733  0.1305  0.3678  0.0513
 1189loPI   C6A19020   6.452   5.870   6.838 -0.1268  0.0133  0.1712
 1189loPI   C1B19021   6.890   6.394   5.583 -0.1797  0.4251  0.1868
 1189loPI   C2B19022   6.545   6.457   5.927 -0.2444  0.1813 -0.2882
 1189loPI   C3B19023   6.268   6.501   6.205  0.0961 -0.1505  0.1097
 1189loPI   C4B19024   6.184   6.103   6.492 -0.1058 -0.0590  0.0190
 1190loPI    C119025  17.645  -0.031   4.179 -0.1242  0.1842  0.1413
 1190loPI    C219026  18.040   0.001   4.233 -0.0934 -0.0414  0.0609
 1190loPI    C319027  17.883   0.050   3.868 -0.0982 -0.2995  0.0262
 1190loPI   PO419028  17.583  -0.139   4.519  0.2658  0.0336 -0.2411
 1190loPI   GL119029  17.871  -0.048   4.825 -0.0291  0.2746 -0.1642
 1190loPI   GL219030  18.124  -0.146   4.815 -0.3247  0.0883 -0.2850
 1190loPI   C1A19031  17.823   0.132   5.086  0.2030  0.4064  0.0324
 1190loPI   C2A19032  17.747   0.268   5.476 -0.3293 -0.1071 -0.1569
 1190loPI   C3A19033  17.626   0.256   5.912 -0.0481  0.0975  0.0079
 1190loPI   C4A19034  17.542   0.098   6.299  0.5901 -0.0391  0.1244
 1190loPI   C5A19035  17.674   0.018   6.585  0.1776 -0.2852 -0.4479
 1190loPI   C6A19036  17.653  -0.298   6.894  0.0214 -0.2559  0.0938
 1190loPI   C1B19037  18.091  -0.177   5.339  0.0159  0.2594 -0.4320
 1190loPI   C2B19038  18.024  -0.105   5.747  0.0971 -0.1782 -0.0063
 1190loPI   C3B19039  17.888  -0.221   6.159 -0.1267  0.1844  0.2642
 1190loPI   C4B19040  17.550  -0.458   6.425 -0.0416  0.0389  0.0152
 1191loPI    C119041  19.771  17.330   4.488 -0.0210  0.0629 -0.1533
 1191loPI    C219042  19.377  17.275   4.529 -0.0108  0.0880 -0.0190
 1191loPI    C319043  19.599  16.998   4.346 -0.0505 -0.0481  0.1356
 1191loPI   PO419044  19.874  17.351   4.758 -0.0333 -0.2611 -0.0229
 1191loPI   GL119045  20.057  17.652   5.073 -0.0551 -0.4482 -0.0098
 1191loPI   GL219046  20.121  17.960   5.031  0.0863 -0.0274  0.0458
 1191loPI   C1A19047  19.768  17.700   5.434 -0.0810 -0.2512 -0.0745
 1191loPI   C2A19048  19.721  17.528   5.862  0.0452 -0.1449 -0.2315
 1191loPI   C3A19049  19.518  17.720   6.208  0.2887  0.1348 -0.0665
 1191loPI   C4A19050  19.255  17.791   6.605  0.1061 -0.0142 -0.2220
 1191loPI   C5A19051  19.289  18.262   6.778 -0.2513 -0.0665  0.3907
 1191loPI   C6A19052  19.051  18.605   6.800  0.2100  0.0910  0.0427
 1191loPI   C1B19053  20.163  18.028   5.439 -0.1408 -0.1071 -0.0640
 1191loPI   C2B19054  20.010  17.962   5.879 -0.3869 -0.0019  0.0909
 1191loPI   C3B19055  19.877  18.091   6.287  0.0449  0.1417 -0.2039
 1191loPI   C4B19056  19.694  18.019   6.614  0.1071 -0.1360  0.2377
 1192loPI    C119057   4.693   9.270   4.715 -0.1819  0.3887 -0.0505
 1192loPI    C219058   4.659   9.228   4.319 -0.1701 -0.0769 -0.0075
 1192loPI    C319059   5.013   9.172   4.496 -0.1600  0.1998  0.0634
 1192loPI   PO419060   4.469   9.156   4.773  0.1183 -0.2204 -0.1671
 1192loPI   GL119061   4.417   9.030   5.148  0.2574 -0.0874 -0.0975
 1192loPI   GL219062   4.317   8.786   5.215  0.1027  0.3071  0.0097
 1192loPI   C1A19063   4.291   9.376   5.518  0.2483  0.0241  0.2564
 1192loPI   C2A19064   4.115   9.512   5.816  0.3194  0.1103  0.0106
 1192loPI   C3A19065   4.081   9.580   6.216 -0.0753  0.3328 -0.1812
 1192loPI   C4A19066   4.230   9.481   6.722 -0.1809  0.2165 -0.1499
 1192loPI   C5A19067   4.123   9.586   7.216 -0.0082  0.2809 -0.2859
 1192loPI   C6A19068   4.186   9.523   7.731  0.0095 -0.1119  0.0628
 1192loPI   C1B19069   4.310   8.936   5.621 -0.2947  0.0018  0.3884
 1192loPI   C2B19070   4.273   9.024   6.036  0.0528 -0.0624  0.1752
 1192loPI   C3B19071   4.015   9.074   6.394 -0.0593  0.1191 -0.1662
 1192loPI   C4B19072   4.167   8.899   6.939 -0.1557  0.1788  0.0115
 1193loPI    C119073   2.217   7.670   4.224 -0.0593  0.2837 -0.1409
 1193loPI    C219074   1.889   7.684   4.452 -0.0913 -0.2837 -0.1372
 1193loPI    C319075   1.856   7.618   4.059  0.0026  0.0199 -0.1987
 1193loPI   PO419076   2.454   7.690   4.361 -0.0341  0.2101 -0.1702
 1193loPI   GL119077   2.723   7.617   4.642 -0.0743 -0.2582 -0.0945
 1193loPI   GL219078   2.814   8.006   4.616  0.2279  0.0937 -0.1232
 1193loPI   C1A19079   2.742   7.435   5.094 -0.3869  0.0428 -0.0618
 1193loPI   C2A19080   2.621   7.270   5.467 -0.0663 -0.3122 -0.0917
 1193loPI   C3A19081   2.489   7.303   5.880  0.0240 -0.0508 -0.3390
 1193loPI   C4A19082   2.526   7.345   6.289 -0.1617  0.0276 -0.3262
 1193loPI   C5A19083   2.443   7.472   6.759 -0.0825  0.0518  0.2140
 1193loPI   C6A19084   2.549   7.334   7.095 -0.1420  0.1476 -0.1327
 1193loPI   C1B19085   2.569   7.907   4.981 -0.2194 -0.1638  0.0296
 1193loPI   C2B19086   2.292   7.686   5.232 -0.0763 -0.3096 -0.2384
 1193loPI   C3B19087   2.244   7.685   5.651 -0.2567 -0.0122  0.1164
 1193loPI   C4B19088   1.948   7.606   5.962 -0.3126  0.0451 -0.0874
 1194loPI    C119089   7.120  17.248   4.828 -0.2000  0.0661 -0.0956
 1194loPI    C219090   7.191  17.396   4.464  0.1586 -0.0781 -0.0882
 1194loPI    C319091   7.104  17.008   4.508  0.2167 -0.0823 -0.0108
 1194loPI   PO419092   6.982  17.440   4.910 -0.1406 -0.0385  0.1400
 1194loPI   GL119093   6.936  17.591   5.304 -0.1774  0.1357 -0.1566
 1194loPI   GL219094   7.112  17.384   5.644  0.2770  0.1049 -0.1169
 1194loPI   C1A19095   7.077  17.902   5.755 -0.3927  0.0221 -0.1550
 1194loPI   C2A19096   6.822  18.162   6.057  0.0720  0.0215 -0.1540
 1194loPI   C3A19097   6.746  18.188   6.479  0.2827  0.1707 -0.0403
 1194loPI   C4A19098   6.774  18.302   6.893 -0.1337 -0.2840 -0.1049
 1194loPI   C5A19099   7.112  18.383   7.106  0.0740 -0.1793  0.2446
 1194loPI   C6A19100   7.463  18.467   6.985  0.2864  0.4050 -0.1991
 1194loPI   C1B19101   7.096  17.191   5.946 -0.1149  0.0384 -0.0441
 1194loPI   C2B19102   7.070  17.181   6.372 -0.2990  0.4742 -0.0803
 1194loPI   C3B19103   6.786  17.247   6.618  0.1795  0.2907  0.0223
 1194loPI   C4B19104   6.608  17.257   7.051  0.1960  0.1785 -0.2402
 1195loPI    C119105  14.161   1.626   4.090 -0.1885 -0.3203 -0.0263
 1195loPI    C219106  13.854   1.803   3.905 -0.1054 -0.0734  0.0681
 1195loPI    C319107  14.209   1.773   3.722 -0.1143 -0.1260  0.0594
 1195loPI   PO419108  14.152   1.724   4.348 -0.2624 -0.0406 -0.2626
 1195loPI   GL119109  14.420   1.580   4.753  0.2449  0.0126  0.1527
 1195loPI   GL219110  14.681   1.638   4.747  0.0397  0.2319 -0.1891
 1195loPI   C1A19111  14.376   1.675   5.158 -0.1995  0.1121 -0.0185
 1195loPI   C2A19112  14.391   1.424   5.526  0.1668 -0.0234  0.1229
 1195loPI   C3A19113  14.539   1.459   5.878 -0.0040 -0.2556  0.1909
 1195loPI   C4A19114  14.662   1.802   6.099  0.3272  0.1865 -0.0832
 1195loPI   C5A19115  15.049   2.097   5.943 -0.2936 -0.2009  0.2672
 1195loPI   C6A19116  14.976   2.237   5.461  0.4656  0.2091  0.1104
 1195loPI   C1B19117  14.824   1.494   5.054  0.1056 -0.0370 -0.1483
 1195loPI   C2B19118  15.139   1.320   5.208 -0.3035  0.2277 -0.0454
 1195loPI   C3B19119  14.966   1.324   5.677 -0.2757  0.2870  0.1577
 1195loPI   C4B19120  15.016   1.409   5.999 -0.2214  0.1512 -0.0978
 1196loPI    C119121  17.095   3.921   4.252  0.1999 -0.0662 -0.0946
 1196loPI    C219122  16.802   3.661   4.169  0.0864  0.0413 -0.0327
 1196loPI    C319123  17.057   3.773   3.882 -0.0101  0.0434 -0.1181
 1196loPI   PO419124  17.112   3.810   4.545  0.1878  0.1279 -0.0253
 1196loPI   GL119125  16.938   3.996   4.910  0.0495  0.0229  0.0376
 1196loPI   GL219126  17.251   4.191   4.866  0.2835  0.1043  0.1654
 1196loPI   C1A19127  16.729   4.120   5.317 -0.0954 -0.1578 -0.3576
 1196loPI   C2A19128  16.444   4.020   5.548  0.1486  0.0949 -0.0284
 1196loPI   C3A19129  15.956   3.891   5.537 -0.0764 -0.1379 -0.1904
 1196loPI   C4A19130  15.702   3.599   5.713 -0.0470 -0.0366  0.1350
 1196loPI   C5A19131  15.755   3.322   6.036 -0.1509  0.0719  0.1087
 1196loPI   C6A19132  15.750   3.195   6.450  0.0040 -0.1548 -0.4399
 1196loPI   C1B19133  17.190   4.413   5.238 -0.4080 -0.0223 -0.1221
 1196loPI   C2B19134  17.086   4.251   5.635  0.0404 -0.1954 -0.1588
 1196loPI   C3B19135  16.715   4.227   5.928 -0.0841  0.0548  0.0872
 1196loPI   C4B19136  16.410   4.343   6.293 -0.2134  0.0118 -0.0236
 1197loPI    C119137   8.413  10.501   4.936  0.0112 -0.1702 -0.0179
 1197loPI    C219138   8.659  10.810   4.878  0.1417 -0.2638  0.0340
 1197loPI    C319139   8.445  10.666   4.573 -0.2091  0.1198  0.0911
 1197loPI   PO419140   8.319  10.549   5.140 -0.1669  0.0739  0.1940
 1197loPI   GL119141   8.425  10.545   5.456 -0.0510 -0.0733 -0.6029
 1197loPI   GL219142   8.697  10.394   5.458  0.1307 -0.1167 -0.1213
 1197loPI   C1A19143   8.437  10.837   5.836 -0.3731  0.0290 -0.3143
 1197loPI   C2A19144   8.372  10.840   6.318 -0.0581 -0.4741  0.2830
 1197loPI   C3A19145   8.408  10.950   6.659  0.1295  0.0810  0.1565
 1197loPI   C4A19146   8.576  11.047   7.064  0.2223  0.0039 -0.2798
 1197loPI   C5A19147   8.526  10.986   7.476  0.5010  0.1199 -0.0382
 1197loPI   C6A19148   8.543  10.613   7.734  0.1497  0.1812 -0.0009
 1197loPI   C1B19149   8.619  10.342   5.937  0.2022  0.0432  0.0100
 1197loPI   C2B19150   8.667  10.408   6.417  0.0244  0.0668 -0.1740
 1197loPI   C3B19151   8.571  10.342   6.901 -0.1362  0.0373  0.1701
 1197loPI   C4B19152   8.549  10.513   7.245 -0.1685 -0.0376  0.3416
 1198loPI    C119153  14.453   0.187   4.023 -0.0419  0.0157  0.0570
 1198loPI    C219154  14.157   0.452   3.983  0.0040  0.0427 -0.1106
 1198loPI    C319155  14.485   0.483   3.756  0.2169  0.1223  0.2021
 1198loPI   PO419156  14.580   0.240   4.267 -0.0350 -0.3064 -0.2360
 1198loPI   GL119157  14.426   0.404   4.752  0.1785  0.1009 -0.3190
 1198loPI   GL219158  14.719   0.509   4.628 -0.1781 -0.0648 -0.1006
 1198loPI   C1A19159  14.555   0.526   5.236 -0.2128  0.3048  0.0453
 1198loPI   C2A19160  14.642   0.386   5.655 -0.5671  0.1383 -0.0101
 1198loPI   C3A19161  14.793   0.257   6.092  0.1346 -0.0094 -0.1151
 1198loPI   C4A19162  14.757   0.529   6.364  0.1274 -0.0782 -0.0256
 1198loPI   C5A19163  15.111   0.556   6.621 -0.2599 -0.0322  0.1787
 1198loPI   C6A19164  15.302   0.831   6.734  0.3243 -0.0917 -0.0819
 1198loPI   C1B19165  14.929   0.388   4.873 -0.0303 -0.0975 -0.0338
 1198loPI   C2B19166  15.094   0.443   5.217 -0.0058  0.1512  0.3481
 1198loPI   C3B19167  15.192   0.448   5.622  0.1470 -0.2447 -0.0994
 1198loPI   C4B19168  15.280   0.412   6.035  0.0987 -0.0009 -0.4519
 1199loPI    C119169  13.665  14.395   4.227  0.0502 -0.2579  0.0590
 1199loPI    C219170  13.559  14.661   3.949  0.0496  0.1274  0.4175
 1199loPI    C319171  13.928  14.670   4.104  0.1096 -0.2032  0.3017
 1199loPI   PO419172  13.412  14.349   4.513  0.2732 -0.2865 -0.2325
 1199loPI   GL119173  13.280  14.547   5.002  0.0484 -0.0702 -0.1136
 1199loPI   GL219174  13.550  14.749   4.877  0.0794 -0.2122 -0.0926
 1199loPI   C1A19175  13.223  14.517   5.405 -0.0802 -0.1047 -0.3520
 1199loPI   C2A19176  13.228  14.703   5.838  0.1658  0.0391  0.2703
 1199loPI   C3A19177  13.522  14.719   6.191  0.1854  0.2009  0.2843
 1199loPI   C4A19178  13.584  15.071   6.461  0.0114  0.1120 -0.2150
 1199loPI   C5A19179  13.553  15.112   6.940  0.3181 -0.1101  0.2236
 1199loPI   C6A19180  13.534  14.945   7.384  0.3209 -0.3712  0.1830
 1199loPI   C1B19181  13.823  14.536   5.304 -0.2568  0.0942  0.1634
 1199loPI   C2B19182  14.152  14.248   5.467  0.1458  0.0570  0.3208
 1199loPI   C3B19183  14.490  14.181   5.718  0.1116 -0.0179  0.2080
 1199loPI   C4B19184  14.849  13.987   5.869  0.2513 -0.3105  0.0940
 1200loPI    C119185   9.005  19.297   4.026  0.0705 -0.2072 -0.0107
 1200loPI    C219186   9.400  19.361   4.033  0.0340  0.0739 -0.2817
 1200loPI    C319187   9.239  19.135   3.744 -0.0228  0.0992 -0.2700
 1200loPI   PO419188   8.926  19.246   4.321  0.0841  0.1269 -0.1640
 1200loPI   GL119189   8.852  19.209   4.835  0.1642  0.0065  0.3104
 1200loPI   GL219190   8.892  19.515   4.810  0.0668 -0.0126 -0.0146
 1200loPI   C1A19191   8.890  19.076   5.223  0.1845 -0.0295 -0.1073
 1200loPI   C2A19192   9.093  19.009   5.470 -0.2839 -0.2704 -0.0767
 1200loPI   C3A19193   9.333  19.054   5.853  0.0618 -0.1009  0.0119
 1200loPI   C4A19194   9.310  19.101   6.304  0.3519 -0.0569 -0.3719
 1200loPI   C5A19195   8.977  19.084   6.565 -0.0532 -0.2595 -0.1715
 1200loPI   C6A19196   8.605  18.771   6.764 -0.1205 -0.0326 -0.0542
 1200loPI   C1B19197   9.299  19.371   4.987 -0.0446 -0.0893 -0.0589
 1200loPI   C2B19198   9.443  19.476   5.382 -0.0407  0.0682  0.1121
 1200loPI   C3B19199   9.637  19.578   5.645  0.1086  0.1225  0.1452
 1200loPI   C4B19200   9.552  19.439   6.084 -0.1057 -0.0467 -0.2383
 1201loPI    C119201  14.537  16.538   4.185  0.0254 -0.2882 -0.0455
 1201loPI    C219202  14.433  16.459   3.807  0.0721 -0.3378 -0.0481
 1201loPI    C319203  14.697  16.749   3.885  0.0419 -0.3092 -0.0514
 1201loPI   PO419204  14.580  16.295   4.261  0.1464  0.1728  0.0773
 1201loPI   GL119205  14.526  16.263   4.707 -0.1651 -0.1522 -0.2991
 1201loPI   GL219206  14.714  16.578   4.700  0.0400 -0.0216 -0.2091
 1201loPI   C1A19207  14.391  16.376   5.093  0.0107 -0.0928  0.2325
 1201loPI   C2A19208  14.619  16.470   5.420  0.1170  0.1105  0.0741
 1201loPI   C3A19209  14.708  16.606   5.852  0.0224  0.0451 -0.2550
 1201loPI   C4A19210  14.806  16.819   6.203  0.0058 -0.1445 -0.0584
 1201loPI   C5A19211  14.816  16.712   6.727 -0.0586  0.1214 -0.1181
 1201loPI   C6A19212  14.971  16.615   7.109 -0.3855 -0.1831  0.2819
 1201loPI   C1B19213  15.035  16.565   5.001  0.0392 -0.1712  0.0012
 1201loPI   C2B19214  15.133  16.440   5.416 -0.4710  0.1101  0.0259
 1201loPI   C3B19215  15.192  16.331   5.893  0.2359 -0.2210 -0.0431
 1201loPI   C4B19216  15.393  16.078   6.215  0.3278 -0.0691 -0.2498
 1202loPI    C119217  14.203   4.630   4.345  0.0849 -0.1070 -0.2040
 1202loPI    C219218  14.242   4.236   4.403  0.0826 -0.1021 -0.1684
 1202loPI    C319219  14.479   4.424   4.141 -0.0117 -0.1519 -0.2902
 1202loPI   PO419220  14.230   4.713   4.591  0.1370 -0.0316  0.0358
 1202loPI   GL119221  14.411   4.572   4.904 -0.0838 -0.2237 -0.0470
 1202loPI   GL219222  14.044   4.723   5.039 -0.2065 -0.0733  0.1441
 1202loPI   C1A19223  14.883   4.528   5.171  0.2803 -0.1520  0.3647
 1202loPI   C2A19224  15.102   4.764   5.498  0.0740 -0.2359  0.0327
 1202loPI   C3A19225  14.815   5.130   5.708  0.1860 -0.7820 -0.2333
 1202loPI   C4A19226  14.783   5.472   6.033 -0.3042 -0.0107 -0.1560
 1202loPI   C5A19227  14.992   5.617   6.322 -0.1349  0.0074  0.1324
 1202loPI   C6A19228  15.215   5.806   6.577 -0.1128 -0.1254  0.2697
 1202loPI   C1B19229  14.053   4.724   5.412  0.1303 -0.3467  0.4697
 1202loPI   C2B19230  14.047   4.650   5.824  0.0550 -0.1659  0.0173
 1202loPI   C3B19231  13.954   4.819   6.220  0.0927  0.2335  0.3640
 1202loPI   C4B19232  14.023   4.767   6.665 -0.0308  0.1923 -0.4683
 1203loPI    C119233   1.301  17.987   4.468  0.0080  0.2582 -0.0077
 1203loPI    C219234   0.975  18.119   4.278 -0.1687 -0.0776  0.0538
 1203loPI    C319235   1.096  17.741   4.228 -0.0360 -0.0791  0.3649
 1203loPI   PO419236   1.267  18.098   4.707  0.0345 -0.1915 -0.0283
 1203loPI   GL119237   1.241  18.004   5.188 -0.0484 -0.0565 -0.4986
 1203loPI   GL219238   1.093  17.897   5.425 -0.2503 -0.2209 -0.0608
 1203loPI   C1A19239   1.492  18.214   5.503 -0.1084 -0.0742 -0.0803
 1203loPI   C2A19240   1.815  18.297   5.716 -0.1387 -0.1343 -0.1552
 1203loPI   C3A19241   1.863  18.416   6.036 -0.2804  0.1318 -0.1891
 1203loPI   C4A19242   2.070  18.366   6.511  0.1248  0.1986  0.1194
 1203loPI   C5A19243   2.167  18.138   6.914 -0.1388  0.3857 -0.4110
 1203loPI   C6A19244   2.407  17.789   6.996  0.1380  0.1422 -0.2501
 1203loPI   C1B19245   0.710  17.821   5.658  0.0975 -0.1970  0.2476
 1203loPI   C2B19246   0.468  18.000   6.149  0.0222 -0.1573  0.1908
 1203loPI   C3B19247   0.414  18.239   6.551 -0.3220 -0.0050  0.0790
 1203loPI   C4B19248   0.120  18.354   6.713 -0.5019 -0.0856  0.3315
 1204loPI    C119249  12.468  15.938   4.411  0.2682 -0.1566 -0.2576
 1204loPI    C219250  12.152  15.807   4.203  0.0643 -0.0318 -0.0316
 1204loPI    C319251  12.458  15.980   4.013 -0.2031  0.2533 -0.2129
 1204loPI   PO419252  12.507  15.977   4.593  0.0140  0.1354  0.0734
 1204loPI   GL119253  12.479  15.923   5.017  0.0160 -0.0914 -0.0985
 1204loPI   GL219254  12.502  16.189   5.216 -0.3472 -0.2468  0.1148
 1204loPI   C1A19255  12.437  15.782   5.455 -0.2867 -0.0868 -0.2953
 1204loPI   C2A19256  12.469  15.850   5.992 -0.0988  0.1270 -0.1186
 1204loPI   C3A19257  12.921  15.896   6.197 -0.0748  0.2160  0.2621
 1204loPI   C4A19258  13.224  15.888   6.423 -0.2444 -0.0024  0.0760
 1204loPI   C5A19259  13.686  15.929   6.594  0.2184 -0.0734  0.0550
 1204loPI   C6A19260  13.968  16.202   6.480  0.4055 -0.0730  0.0656
 1204loPI   C1B19261  12.545  16.309   5.524 -0.3373  0.1709  0.0683
 1204loPI   C2B19262  12.596  16.312   5.796  0.1473 -0.1122 -0.4056
 1204loPI   C3B19263  12.627  16.385   6.221 -0.1297  0.2485 -0.1579
 1204loPI   C4B19264  12.845  16.225   6.563 -0.2197  0.1261 -0.1144
 1205loPI    C119265  15.398   4.778   4.319 -0.3017 -0.3981  0.1650
 1205loPI    C219266  15.394   5.088   4.066 -0.1859 -0.1959  0.4064
 1205loPI    C319267  15.317   4.719   3.932 -0.2193 -0.0790  0.0962
 1205loPI   PO419268  15.275   4.815   4.490  0.4498 -0.0370  0.0033
 1205loPI   GL119269  15.274   4.909   4.907  0.0345  0.0763  0.0503
 1205loPI   GL219270  14.985   5.036   5.073 -0.3578 -0.0500  0.2137
 1205loPI   C1A19271  15.355   4.510   5.078  0.2389  0.3035  0.2429
 1205loPI   C2A19272  15.399   4.362   5.435  0.1354  0.1901 -0.1865
 1205loPI   C3A19273  15.649   4.393   5.781  0.0499 -0.1701 -0.0393
 1205loPI   C4A19274  15.638   4.518   6.133 -0.1782 -0.0625 -0.2587
 1205loPI   C5A19275  15.506   4.587   6.466  0.2507 -0.0795 -0.0582
 1205loPI   C6A19276  15.243   4.763   6.540  0.2809 -0.4078  0.0065
 1205loPI   C1B19277  15.269   5.220   5.273 -0.0764  0.2172  0.2802
 1205loPI   C2B19278  15.690   5.287   5.606 -0.0659 -0.2710  0.1637
 1205loPI   C3B19279  15.877   5.424   5.956 -0.0385  0.2365  0.1137
 1205loPI   C4B19280  16.257   5.449   6.286  0.0300  0.0878  0.0114
 1206loPI    C119281  19.932   9.949   4.347 -0.0210 -0.0657 -0.0248
 1206loPI    C219282  19.930   9.730   4.682  0.1183  0.1093  0.0923
 1206loPI    C319283  19.585   9.831   4.507  0.0520 -0.1721  0.0567
 1206loPI   PO419284  20.028  10.159   4.379  0.0608  0.0331  0.1666
 1206loPI   GL119285  20.012  10.244   4.787  0.0575  0.1723  0.0545
 1206loPI   GL219286  20.314  10.071   4.783  0.0481  0.2940 -0.1488
 1206loPI   C1A19287  19.974  10.437   5.240 -0.1495 -0.0124 -0.3822
 1206loPI   C2A19288  19.810  10.269   5.658 -0.0782 -0.0439 -0.0607
 1206loPI   C3A19289  19.817  10.097   6.060 -0.1369 -0.0087  0.2145
 1206loPI   C4A19290  20.074   9.962   6.392 -0.3591  0.2423 -0.1254
 1206loPI   C5A19291  20.343  10.263   6.565 -0.2617  0.2400 -0.1338
 1206loPI   C6A19292  20.666  10.688   6.437  0.3302 -0.0156 -0.2357
 1206loPI   C1B19293  20.101   9.928   5.213 -0.1301 -0.0134  0.2006
 1206loPI   C2B19294  19.957   9.774   5.549 -0.1924  0.2187 -0.1218
 1206loPI   C3B19295  19.846   9.396   5.617 -0.0634  0.0115  0.1088
 1206loPI   C4B19296  19.405   9.309   5.589  0.0630 -0.1866 -0.1268
 1207loPI    C119297  17.301  13.762   3.765 -0.1717 -0.1688  0.1229
 1207loPI    C219298  17.550  13.536   3.549 -0.0017  0.1384 -0.0093
 1207loPI    C319299  17.571  13.531   3.949 -0.1761 -0.2730 -0.0001
 1207loPI   PO419300  17.197  14.020   3.867 -0.1391 -0.0257 -0.0906
 1207loPI   GL119301  17.232  14.006   4.210 -0.3841 -0.1240 -0.0768
 1207loPI   GL219302  17.621  13.973   4.295  0.1049  0.0849  0.0106
 1207loPI   C1A19303  17.176  14.068   4.685  0.2502 -0.2425 -0.2762
 1207loPI   C2A19304  17.080  14.121   5.086 -0.0768 -0.2372  0.0550
 1207loPI   C3A19305  17.169  14.180   5.596  0.1124 -0.1660 -0.0558
 1207loPI   C4A19306  17.420  14.127   5.965 -0.0403  0.0262 -0.0182
 1207loPI   C5A19307  17.695  13.891   6.345 -0.2698 -0.0561  0.1692
 1207loPI   C6A19308  18.030  13.790   6.553 -0.3371 -0.1801  0.0656
 1207loPI   C1B19309  17.827  14.008   4.726 -0.1605  0.0653 -0.3371
 1207loPI   C2B19310  17.910  13.712   5.106 -0.0930 -0.0380 -0.0158
 1207loPI   C3B19311  17.643  13.501   5.417 -0.1666 -0.0118  0.1330
 1207loPI   C4B19312  17.587  13.574   5.869  0.1010  0.0020  0.3188
 1208loPI    C119313   2.770  19.842   4.591 -0.0577  0.0760  0.0075
 1208loPI    C219314   2.978  19.957   4.269  0.0119 -0.0593  0.0035
 1208loPI    C319315   2.841  19.582   4.296  0.0020 -0.0471  0.1289
 1208loPI   PO419316   2.615  20.104   4.649  0.3439 -0.0220  0.1097
 1208loPI   GL119317   2.485  20.260   5.014  0.3141 -0.0925  0.2129
 1208loPI   GL219318   2.764  20.260   5.163  0.1936  0.0318 -0.0457
 1208loPI   C1A19319   2.314  20.088   5.405  0.5359 -0.0347 -0.2817
 1208loPI   C2A19320   2.393  19.854   5.784  0.2054 -0.1052 -0.0583
 1208loPI   C3A19321   2.497  20.069   6.087  0.2159 -0.0270  0.2063
 1208loPI   C4A19322   2.623  20.030   6.465 -0.0726 -0.1028 -0.0296
 1208loPI   C5A19323   2.749  20.131   6.901  0.0388  0.2620  0.0471
 1208loPI   C6A19324   2.877  20.409   7.241  0.0507 -0.2288 -0.1048
 1208loPI   C1B19325   2.812  20.332   5.567  0.0996 -0.0396 -0.2395
 1208loPI   C2B19326   2.516  20.528   5.818 -0.0320 -0.3088 -0.4198
 1208loPI   C3B19327   2.425  20.545   6.277  0.2657 -0.0119  0.1832
 1208loPI   C4B19328   2.436  20.493   6.778  0.4249  0.2954  0.0044
 1209loPI    C119329  15.295  16.885   4.655 -0.3428 -0.1098  0.0159
 1209loPI    C219330  14.945  17.067   4.595 -0.1541  0.2028 -0.1648
 1209loPI    C319331  15.086  16.811   4.322 -0.1877  0.1646 -0.1462
 1209loPI   PO419332  15.453  17.107   4.688 -0.0895  0.0878  0.2817
 1209loPI   GL119333  15.772  17.051   4.899  0.0354 -0.3064  0.1147
 1209loPI   GL219334  15.926  17.326   5.009  0.1003  0.1087  0.0703
 1209loPI   C1A19335  16.100  16.972   5.257  0.1095  0.1076  0.1998
 1209loPI   C2A19336  16.338  17.161   5.578  0.0011 -0.1164 -0.3623
 1209loPI   C3A19337  16.502  16.910   5.899  0.0376 -0.2166  0.0016
 1209loPI   C4A19338  16.836  16.979   6.197 -0.2122  0.0685  0.1366
 1209loPI   C5A19339  17.130  16.635   6.314 -0.1631  0.0219  0.1323
 1209loPI   C6A19340  17.263  16.259   6.499 -0.0871 -0.3965  0.0561
 1209loPI   C1B19341  15.713  17.252   5.395 -0.0895  0.0797  0.0555
 1209loPI   C2B19342  15.422  17.202   5.617  0.2527 -0.0930 -0.0288
 1209loPI   C3B19343  15.301  17.588   5.744  0.2863 -0.3157 -0.1483
 1209loPI   C4B19344  15.163  17.805   6.111 -0.1163  0.0894  0.0410
 1210loPI    C119345  11.216  15.162   4.405  0.0662  0.1716  0.0910
 1210loPI    C219346  10.995  15.425   4.200 -0.0928 -0.1957 -0.2194
 1210loPI    C319347  11.350  15.308   4.058 -0.1689 -0.3932 -0.2509
 1210loPI   PO419348  11.046  15.016   4.733  0.0635  0.1143 -0.3241
 1210loPI   GL119349  11.206  14.739   5.124  0.2684 -0.1953 -0.3817
 1210loPI   GL219350  10.917  14.490   5.057 -0.1678  0.0722  0.0932
 1210loPI   C1A19351  11.332  14.734   5.493  0.1640 -0.2853 -0.0111
 1210loPI   C2A19352  11.582  15.032   5.757  0.0149  0.0481 -0.0353
 1210loPI   C3A19353  11.768  15.243   6.201 -0.3166 -0.1352 -0.3110
 1210loPI   C4A19354  12.169  15.121   6.561  0.1830  0.2504  0.1023
 1210loPI   C5A19355  12.387  15.036   6.852 -0.0517 -0.0964 -0.0234
 1210loPI   C6A19356  12.766  14.659   6.950 -0.0800  0.2493  0.0001
 1210loPI   C1B19357  10.838  14.660   5.495 -0.4157  0.1623 -0.3930
 1210loPI   C2B19358  10.668  14.625   5.866 -0.1858  0.2206 -0.1792
 1210loPI   C3B19359  10.557  14.819   6.256  0.0418  0.1691 -0.2460
 1210loPI   C4B19360  10.451  14.714   6.677 -0.1267 -0.2108 -0.4430
 1211loPI    C119361   7.155   0.709   4.334 -0.1722  0.0944  0.3919
 1211loPI    C219362   6.785   0.836   4.251 -0.1310  0.0490  0.1323
 1211loPI    C319363   7.048   0.779   3.955  0.0352 -0.0706  0.3010
 1211loPI   PO419364   7.219   0.828   4.636 -0.1126  0.0907  0.1668
 1211loPI   GL119365   7.383   0.701   4.919 -0.0941  0.0715  0.2163
 1211loPI   GL219366   7.632   0.931   5.111  0.0803 -0.0582  0.3087
 1211loPI   C1A19367   7.225   0.811   5.346  0.2662 -0.1940 -0.0809
 1211loPI   C2A19368   7.122   0.885   5.789  0.1216  0.3045  0.3818
 1211loPI   C3A19369   7.283   0.776   6.137 -0.1696  0.0782 -0.1532
 1211loPI   C4A19370   7.655   0.687   6.216 -0.0554  0.0836  0.1731
 1211loPI   C5A19371   8.076   0.614   6.539  0.3110 -0.0398  0.3800
 1211loPI   C6A19372   8.517   0.578   6.411 -0.1970 -0.1965 -0.3179
 1211loPI   C1B19373   7.558   1.200   5.363  0.0783 -0.0743  0.1129
 1211loPI   C2B19374   7.546   1.166   5.841  0.0669 -0.0746  0.1641
 1211loPI   C3B19375   7.600   1.186   6.157 -0.2387  0.2660 -0.3081
 1211loPI   C4B19376   7.569   1.431   6.549 -0.1364 -0.1267 -0.1062
 1212loPI    C119377   9.243   8.431   4.526  0.3814  0.0872 -0.0370
 1212loPI    C219378   9.185   8.048   4.424  0.0492  0.1469 -0.0831
 1212loPI    C319379   9.504   8.246   4.286  0.2864 -0.1452  0.0358
 1212loPI   PO419380   9.300   8.433   4.760 -0.2930  0.3179  0.0353
 1212loPI   GL119381   9.110   8.112   5.191  0.0567  0.2105 -0.2168
 1212loPI   GL219382   9.304   8.470   5.257 -0.0228  0.4804 -0.1100
 1212loPI   C1A19383   8.769   8.002   5.256  0.0032  0.0093  0.4240
 1212loPI   C2A19384   8.768   8.062   5.706  0.1236  0.2172 -0.1147
 1212loPI   C3A19385   8.921   8.062   6.137  0.2403 -0.1352 -0.2203
 1212loPI   C4A19386   8.884   7.945   6.507  0.2019  0.1777 -0.0816
 1212loPI   C5A19387   8.737   7.722   6.874 -0.4127 -0.1613 -0.2326
 1212loPI   C6A19388   8.611   7.530   7.200  0.0634 -0.1357  0.0355
 1212loPI   C1B19389   9.002   8.531   5.590 -0.1777  0.4598 -0.3199
 1212loPI   C2B19390   8.998   8.559   6.006 -0.1044  0.2667  0.0541
 1212loPI   C3B19391   9.040   8.560   6.416 -0.3734 -0.0470 -0.0076
 1212loPI   C4B19392   8.900   8.431   6.727 -0.0509  0.2495  0.6224
 1213loPI    C119393  15.792  17.354   4.302 -0.1549  0.0987  0.1684
 1213loPI    C219394  15.814  16.959   4.356 -0.2000  0.1046  0.2304
 1213loPI    C319395  15.491  17.119   4.183 -0.1750  0.1128  0.1912
 1213loPI   PO419396  15.815  17.539   4.584 -0.0616  0.1429 -0.0148
 1213loPI   GL119397  15.831  17.870   4.936  0.0245  0.0253 -0.0350
 1213loPI   GL219398  15.551  17.714   4.956  0.3577  0.0990  0.0364
 1213loPI   C1A19399  16.109  17.688   5.236  0.5534  0.0558  0.0243
 1213loPI   C2A19400  16.033  17.538   5.631  0.1268  0.2436  0.0165
 1213loPI   C3A19401  16.333  17.417   5.983  0.0986 -0.0959  0.0234
 1213loPI   C4A19402  16.643  17.648   6.195 -0.1404 -0.0873 -0.3480
 1213loPI   C5A19403  16.849  17.748   6.644  0.0163  0.1816 -0.0381
 1213loPI   C6A19404  17.206  18.039   6.800  0.2256  0.2803 -0.1765
 1213loPI   C1B19405  15.224  17.496   5.199  0.1532 -0.2645  0.1487
 1213loPI   C2B19406  14.879  17.441   5.552 -0.4972 -0.2244  0.0133
 1213loPI   C3B19407  14.724  17.579   5.979 -0.1234 -0.0770 -0.0442
 1213loPI   C4B19408  14.608  17.899   6.199  0.2362 -0.0982  0.1145
 1214loPI    C119409   9.077  11.147   4.740  0.0020  0.3156 -0.0008
 1214loPI    C219410   9.410  10.998   4.577 -0.2608 -0.2667 -0.0297
 1214loPI    C319411   9.162  11.221   4.356 -0.0097 -0.0223 -0.0711
 1214loPI   PO419412   9.053  11.072   4.971  0.1503 -0.1496 -0.0783
 1214loPI   GL119413   8.857  10.810   5.319  0.2936  0.0518  0.3877
 1214loPI   GL219414   8.506  11.071   5.364 -0.1121 -0.0390 -0.0571
 1214loPI   C1A19415   8.925  10.711   5.746  0.2712  0.1184  0.2112
 1214loPI   C2A19416   8.999  10.904   6.173  0.1591 -0.1557 -0.2177
 1214loPI   C3A19417   8.874  10.893   6.572  0.2626  0.1193 -0.2196
 1214loPI   C4A19418   9.004  10.721   7.051  0.0900 -0.1145 -0.1294
 1214loPI   C5A19419   8.954  10.791   7.451 -0.3030 -0.1529  0.2680
 1214loPI   C6A19420   8.931  11.037   7.879 -0.1975  0.0129 -0.1952
 1214loPI   C1B19421   8.793  11.234   5.697  0.2715 -0.4048  0.0389
 1214loPI   C2B19422   8.997  11.469   6.029 -0.0260 -0.1577  0.0986
 1214loPI   C3B19423   9.229  11.413   6.135 -0.2989  0.4753 -0.3933
 1214loPI   C4B19424   9.698  11.393   6.293 -0.2549 -0.0074  0.0246
 1215loPI    C119425  13.109  14.769   4.081  0.3642  0.2667 -0.1313
 1215loPI    C219426  12.966  15.143   4.086 -0.0316  0.1210 -0.1552
 1215loPI    C319427  12.935  14.922   3.755 -0.1009 -0.0454 -0.0389
 1215loPI   PO419428  13.002  14.619   4.361  0.2365 -0.4108 -0.0643
 1215loPI   GL119429  12.842  14.475   4.731  0.0613 -0.2130 -0.1505
 1215loPI   GL219430  12.493  14.609   4.906  0.1563 -0.0366 -0.1636
 1215loPI   C1A19431  12.850  14.289   5.158  0.1817  0.2757 -0.0796
 1215loPI   C2A19432  12.742  14.303   5.544  0.2506  0.2586 -0.0506
 1215loPI   C3A19433  13.006  14.273   5.871 -0.2138  0.0046  0.3209
 1215loPI   C4A19434  13.056  14.430   6.213 -0.1073 -0.2659  0.1218
 1215loPI   C5A19435  13.182  14.646   6.584 -0.2531  0.1259  0.0301
 1215loPI   C6A19436  13.314  14.607   7.043 -0.0512 -0.0365  0.0880
 1215loPI   C1B19437  12.427  14.786   5.301 -0.1557 -0.1502  0.0760
 1215loPI   C2B19438  12.629  14.919   5.622  0.0294  0.2778  0.1860
 1215loPI   C3B19439  12.802  14.944   5.992  0.2669  0.1045  0.0977
 1215loPI   C4B19440  12.758  14.911   6.358 -0.0942 -0.1356 -0.0855
 1216loPI    C119441   7.239   8.976   4.440  0.2064 -0.0169 -0.2705
 1216loPI    C219442   7.176   9.004   4.046 -0.0691  0.0524 -0.2231
 1216loPI    C319443   6.891   9.116   4.303  0.0841 -0.0549 -0.0035
 1216loPI   PO419444   7.475   9.090   4.479  0.2073  0.1918 -0.1007
 1216loPI   GL119445   7.787   9.029   4.837 -0.4328  0.0739 -0.0449
 1216loPI   GL219446   7.595   9.286   4.990  0.0573 -0.2116 -0.3029
 1216loPI   C1A19447   7.646   8.849   5.251  0.1183  0.0379 -0.1527
 1216loPI   C2A19448   7.823   8.401   5.453  0.2692 -0.0338 -0.0023
 1216loPI   C3A19449   7.866   8.003   5.656 -0.0428  0.0306 -0.0129
 1216loPI   C4A19450   7.891   7.784   5.996 -0.0547 -0.0992 -0.2416
 1216loPI   C5A19451   7.943   7.648   6.409  0.0595  0.1110  0.0285
 1216loPI   C6A19452   7.874   7.350   6.842 -0.0219  0.0233 -0.0880
 1216loPI   C1B19453   7.763   9.368   5.425 -0.1952 -0.1337  0.1454
 1216loPI   C2B19454   7.727   9.636   5.856 -0.1859 -0.0305 -0.0016
 1216loPI   C3B19455   7.813   9.884   6.312 -0.0466 -0.0720  0.0875
 1216loPI   C4B19456   7.868   9.944   6.788  0.1121 -0.4782  0.0402
 1217loPI    C119457  14.008  19.503   3.991 -0.2804 -0.1237 -0.2028
 1217loPI    C219458  14.068  19.868   3.838  0.0147 -0.0330  0.1159
 1217loPI    C319459  14.198  19.545   3.642 -0.0486  0.0470 -0.0595
 1217loPI   PO419460  13.893  19.639   4.257  0.0178  0.0027 -0.4148
 1217loPI   GL119461  13.844  19.579   4.654 -0.2776 -0.5166  0.0558
 1217loPI   GL219462  14.142  19.640   4.682  0.0408  0.2809  0.1331
 1217loPI   C1A19463  13.677  19.687   4.992 -0.0043  0.1013 -0.2436
 1217loPI   C2A19464  13.426  19.698   5.225 -0.0107  0.0909  0.0340
 1217loPI   C3A19465  13.349  19.884   5.542  0.1052 -0.0330  0.1398
 1217loPI   C4A19466  13.557  19.982   5.919 -0.1284  0.1540  0.1532
 1217loPI   C5A19467  13.534  20.135   6.374 -0.2577  0.2060  0.2124
 1217loPI   C6A19468  13.791  20.285   6.669  0.0734  0.0209 -0.1888
 1217loPI   C1B19469  14.116  19.912   4.943  0.1349  0.1938  0.0730
 1217loPI   C2B19470  14.145  20.237   5.251  0.2207  0.1085  0.4019
 1217loPI   C3B19471  14.036  20.692   5.280 -0.1553 -0.3094 -0.0678
 1217loPI   C4B19472  13.720  20.752   5.044  0.0946  0.0004  0.1032
 1218loPI    C119473   9.735  12.231   4.837 -0.1397 -0.1779  0.0823
 1218loPI    C219474   9.780  12.514   5.115 -0.1079 -0.2395  0.1399
 1218loPI    C319475  10.030  12.499   4.803 -0.3267  0.0146 -0.0525
 1218loPI   PO419476   9.599  12.008   5.068 -0.0220 -0.2631 -0.1994
 1218loPI   GL119477   9.491  12.165   5.462  0.0476  0.0057  0.0500
 1218loPI   GL219478   9.808  12.125   5.544  0.3853 -0.0757  0.0466
 1218loPI   C1A19479   9.428  12.248   5.903 -0.0574 -0.0605  0.0940
 1218loPI   C2A19480   9.731  12.206   6.175  0.0572 -0.2389 -0.4838
 1218loPI   C3A19481  10.000  12.281   6.646  0.3143  0.1357 -0.0435
 1218loPI   C4A19482  10.308  12.284   6.986  0.1712 -0.3418 -0.1248
 1218loPI   C5A19483  10.644  12.245   7.285 -0.1330  0.4157  0.3222
 1218loPI   C6A19484  11.062  12.287   7.267 -0.2877  0.1516  0.2932
 1218loPI   C1B19485  10.160  12.258   5.834 -0.1010  0.0927 -0.0146
 1218loPI   C2B19486  10.344  12.336   6.228  0.2153  0.2999 -0.0910
 1218loPI   C3B19487  10.547  12.381   6.551  0.3447 -0.2815  0.2268
 1218loPI   C4B19488  10.873  12.251   6.786 -0.2137  0.0288  0.0216
 1219loPI    C119489   6.006   6.914   4.752  0.2769  0.1194  0.0542
 1219loPI    C219490   6.019   6.692   4.420 -0.1256  0.1900 -0.0130
 1219loPI    C319491   6.052   7.090   4.396  0.0974  0.1772  0.0590
 1219loPI   PO419492   5.910   6.745   4.903  0.0915  0.1045 -0.0642
 1219loPI   GL119493   5.836   6.723   5.305  0.3405  0.1365  0.3775
 1219loPI   GL219494   5.860   6.573   5.655  0.0966 -0.1714 -0.0511
 1219loPI   C1A19495   5.650   6.972   5.489 -0.1393 -0.0809  0.1897
 1219loPI   C2A19496   5.571   7.142   5.890  0.2217  0.0017 -0.0780
 1219loPI   C3A19497   5.318   7.025   6.252 -0.1384  0.0186  0.1104
 1219loPI   C4A19498   5.271   7.255   6.528 -0.2527 -0.0168  0.2225
 1219loPI   C5A19499   4.990   7.293   6.881 -0.0405  0.0849  0.1066
 1219loPI   C6A19500   4.758   7.290   7.249  0.1051 -0.0951  0.2340
 1219loPI   C1B19501   5.727   6.730   6.083 -0.1642  0.3278 -0.0163
 1219loPI   C2B19502   5.731   6.836   6.557  0.0717  0.0278  0.2963
 1219loPI   C3B19503   5.400   6.840   6.813 -0.0755  0.0662  0.2073
 1219loPI   C4B19504   5.385   7.134   7.120  0.2109  0.4566  0.0070
 1220loPI    C119505   8.601   9.183   4.681  0.1195 -0.0827 -0.0484
 1220loPI    C219506   8.228   9.080   4.580  0.0146  0.1018  0.1434
 1220loPI    C319507   8.317   9.463   4.653  0.2238  0.0481  0.1757
 1220loPI   PO419508   8.710   9.054   4.885  0.0652  0.0414 -0.0455
 1220loPI   GL119509   8.666   9.049   5.374 -0.1021 -0.1091  0.1989
 1220loPI   GL219510   8.985   9.126   5.370 -0.2741 -0.1316  0.3025
 1220loPI   C1A19511   8.659   8.965   5.791 -0.0845 -0.0634 -0.0687
 1220loPI   C2A19512   8.340   8.920   6.074  0.1986 -0.1972 -0.2783
 1220loPI   C3A19513   8.188   8.693   6.448  0.3589  0.0160 -0.3568
 1220loPI   C4A19514   7.997   8.891   6.830  0.2596 -0.4035 -0.3922
 1220loPI   C5A19515   7.957   8.996   7.317 -0.1566 -0.2444  0.2635
 1220loPI   C6A19516   8.195   9.248   7.585  0.0029  0.0791 -0.0300
 1220loPI   C1B19517   9.076   9.460   5.757 -0.2283  0.0048 -0.1785
 1220loPI   C2B19518   9.331   9.590   6.064 -0.1530 -0.0142 -0.4202
 1220loPI   C3B19519   9.651   9.680   6.459  0.0654  0.0141  0.2755
 1220loPI   C4B19520   9.885   9.752   6.858  0.1895  0.0135 -0.0886
 1221loPI    C119521  18.107   9.920   3.729  0.1153  0.1569 -0.1005
 1221loPI    C219522  17.755   9.942   3.539  0.0435 -0.0185  0.0096
 1221loPI    C319523  18.088   9.863   3.333  0.0171  0.1307 -0.0923
 1221loPI   PO419524  18.092  10.136   3.953  0.1851  0.0631  0.2807
 1221loPI   GL119525  17.887  10.116   4.469 -0.0741  0.0996 -0.1304
 1221loPI   GL219526  18.084   9.860   4.436  0.1737 -0.0179 -0.4439
 1221loPI   C1A19527  17.767  10.108   4.796 -0.0732 -0.0138 -0.0295
 1221loPI   C2A19528  17.869   9.974   5.211  0.0029  0.2240  0.2135
 1221loPI   C3A19529  17.981  10.087   5.641  0.0102  0.0656  0.2839
 1221loPI   C4A19530  17.950  10.063   6.025  0.0358 -0.0162 -0.0509
 1221loPI   C5A19531  18.169  10.006   6.397 -0.2777  0.2798  0.0588
 1221loPI   C6A19532  18.467   9.712   6.628 -0.2284 -0.0198  0.0602
 1221loPI   C1B19533  18.188   9.691   4.884  0.0815 -0.2010  0.3007
 1221loPI   C2B19534  18.124   9.650   5.452 -0.1759  0.1732 -0.0123
 1221loPI   C3B19535  17.994   9.574   5.879  0.0879  0.2983  0.1166
 1221loPI   C4B19536  17.817   9.593   6.256  0.1603 -0.2046 -0.1048
 1222loPI    C119537   0.404  17.239   4.639 -0.0513  0.1116 -0.1772
 1222loPI    C219538   0.640  17.299   4.321  0.1374  0.0033 -0.0587
 1222loPI    C319539   0.249  17.230   4.270  0.1929 -0.1597 -0.2766
 1222loPI   PO419540   0.565  17.447   4.809 -0.1761  0.1255 -0.0173
 1222loPI   GL119541   0.579  17.414   5.235 -0.1127  0.0502 -0.0801
 1222loPI   GL219542   0.825  17.322   5.562 -0.3684  0.0517  0.0132
 1222loPI   C1A19543   0.303  17.552   5.503 -0.0239 -0.0023 -0.0201
 1222loPI   C2A19544   0.347  17.558   5.908  0.3356  0.1463 -0.1375
 1222loPI   C3A19545   0.149  17.594   6.290 -0.1543  0.1064  0.1969
 1222loPI   C4A19546  -0.139  17.465   6.613 -0.0720 -0.1195  0.0009
 1222loPI   C5A19547  -0.152  17.509   7.159  0.0509 -0.1583  0.2257
 1222loPI   C6A19548  -0.277  17.183   7.484 -0.0892 -0.0551  0.1573
 1222loPI   C1B19549   0.570  17.123   5.931 -0.1179  0.5712  0.0285
 1222loPI   C2B19550   0.543  17.306   6.376 -0.4168  0.1480  0.0069
 1222loPI   C3B19551   0.271  17.208   6.757  0.0793  0.2539 -0.1123
 1222loPI   C4B19552  -0.053  16.984   7.104  0.1050 -0.0260 -0.2627
 1223loPI    C119553  11.784   8.132   3.907 -0.0843 -0.0920 -0.0224
 1223loPI    C219554  12.064   8.027   4.172  0.0149 -0.2544 -0.1894
 1223loPI    C319555  12.168   8.124   3.798 -0.1176  0.0386 -0.1530
 1223loPI   PO419556  11.604   8.301   4.178 -0.0200  0.0539  0.1773
 1223loPI   GL119557  11.364   8.389   4.551 -0.2063 -0.1737  0.1203
 1223loPI   GL219558  11.603   8.328   4.741 -0.0896 -0.0431 -0.0355
 1223loPI   C1A19559  11.439   8.704   4.913  0.0562 -0.2439 -0.0720
 1223loPI   C2A19560  11.364   8.747   5.368  0.0186  0.0392 -0.1595
 1223loPI   C3A19561  11.548   8.485   5.744 -0.2915 -0.1000  0.0766
 1223loPI   C4A19562  11.778   8.662   6.145 -0.0300  0.0838  0.0838
 1223loPI   C5A19563  11.786   8.592   6.542 -0.0373  0.0119  0.1207
 1223loPI   C6A19564  11.702   8.713   7.001  0.2088  0.0158 -0.0267
 1223loPI   C1B19565  11.680   8.347   5.228 -0.0187 -0.1813  0.3711
 1223loPI   C2B19566  11.750   8.096   5.533  0.3650  0.1293 -0.2042
 1223loPI   C3B19567  11.677   7.761   5.779 -0.0872 -0.1647  0.0625
 1223loPI   C4B19568  11.663   7.562   6.135  0.0419 -0.0374  0.0738
 1224loPI    C119569   1.897  11.582   4.414  0.1405 -0.2122 -0.0376
 1224loPI    C219570   1.989  11.791   4.085 -0.1616  0.1834  0.1207
 1224loPI    C319571   1.881  11.407   4.055  0.1717  0.1088 -0.1997
 1224loPI   PO419572   1.738  11.714   4.568 -0.1323 -0.0990  0.0249
 1224loPI   GL119573   1.687  12.009   4.917  0.0570 -0.1341 -0.1542
 1224loPI   GL219574   1.743  11.803   5.085  0.1730  0.2469  0.0213
 1224loPI   C1A19575   1.547  12.239   5.298 -0.0085  0.5972 -0.0290
 1224loPI   C2A19576   1.384  12.289   5.644 -0.2224 -0.0230 -0.0042
 1224loPI   C3A19577   1.049  12.371   5.937 -0.1646 -0.1673  0.1437
 1224loPI   C4A19578   0.669  12.333   6.249 -0.1864  0.0529  0.1556
 1224loPI   C5A19579   0.382  12.565   6.441  0.1280  0.0706 -0.0651
 1224loPI   C6A19580   0.264  13.023   6.425 -0.0441 -0.2527  0.1586
 1224loPI   C1B19581   1.844  11.962   5.581 -0.0132 -0.0943 -0.0116
 1224loPI   C2B19582   1.907  11.876   6.002 -0.1758 -0.1748 -0.0047
 1224loPI   C3B19583   1.795  11.707   6.510  0.2376 -0.1964  0.2789
 1224loPI   C4B19584   1.757  11.303   6.627  0.1530 -0.1904  0.0651
 1225loPI    C119585  10.344   5.921   4.625  0.0215 -0.0102  0.0411
 1225loPI    C219586  10.036   5.745   4.812  0.1827 -0.3046  0.0353
 1225loPI    C319587  10.153   5.615   4.452  0.1055  0.0233 -0.1127
 1225loPI   PO419588  10.486   5.952   4.880 -0.3187  0.3404 -0.0935
 1225loPI   GL119589  10.413   5.819   5.219 -0.0299 -0.0753  0.1970
 1225loPI   GL219590  10.461   5.577   5.213  0.0303 -0.0383  0.0361
 1225loPI   C1A19591  10.415   6.005   5.532  0.0065 -0.0784  0.3175
 1225loPI   C2A19592  10.624   6.146   5.877 -0.1531 -0.0824  0.0706
 1225loPI   C3A19593  10.631   6.196   6.298 -0.1823  0.2099  0.1685
 1225loPI   C4A19594  10.609   6.084   6.720  0.0062  0.0926  0.0858
 1225loPI   C5A19595  10.682   6.073   7.106 -0.0351 -0.0895 -0.3824
 1225loPI   C6A19596  10.582   6.325   7.416  0.0562 -0.2036  0.1015
 1225loPI   C1B19597  10.466   5.524   5.630 -0.0514  0.1371 -0.2207
 1225loPI   C2B19598  10.362   5.746   6.056  0.0002 -0.1389  0.2737
 1225loPI   C3B19599  10.321   5.679   6.519  0.2147  0.0578  0.0680
 1225loPI   C4B19600  10.144   5.914   6.966  0.0817 -0.1699  0.0552
 1226loPI    C119601  12.983   9.095   4.324 -0.0478  0.1359 -0.0531
 1226loPI    C219602  13.008   9.235   4.698 -0.1622  0.1177 -0.0383
 1226loPI    C319603  13.189   9.430   4.399 -0.3404  0.3123 -0.0218
 1226loPI   PO419604  12.792   8.844   4.394  0.0918  0.0724 -0.0411
 1226loPI   GL119605  12.822   8.772   4.796 -0.2075 -0.1026 -0.2657
 1226loPI   GL219606  12.408   8.752   4.715  0.2475 -0.3814 -0.2339
 1226loPI   C1A19607  12.873   8.990   5.050  0.4458  0.0814 -0.3259
 1226loPI   C2A19608  12.999   9.132   5.455 -0.2319  0.1816 -0.0334
 1226loPI   C3A19609  13.105   9.070   5.892 -0.2973  0.2535 -0.2200
 1226loPI   C4A19610  13.011   9.302   6.309  0.3577  0.5173  0.0723
 1226loPI   C5A19611  12.938   9.209   6.770 -0.1871 -0.0467  0.0472
 1226loPI   C6A19612  12.881   8.872   7.100 -0.0259 -0.1980 -0.0312
 1226loPI   C1B19613  12.513   8.594   5.078 -0.2837  0.0072  0.1708
 1226loPI   C2B19614  12.700   8.718   5.571  0.1282 -0.0800  0.0898
 1226loPI   C3B19615  12.699   8.826   6.020  0.0113 -0.0719 -0.0907
 1226loPI   C4B19616  12.501   9.168   6.360 -0.1108 -0.2226 -0.0953
 1227loPI    C119617  12.534   6.220   4.214 -0.1700 -0.1230 -0.2968
 1227loPI    C219618  12.154   6.199   4.337 -0.0196 -0.0588  0.2026
 1227loPI    C319619  12.244   6.130   3.953 -0.5076 -0.2777  0.1191
 1227loPI   PO419620  12.678   6.494   4.309  0.1130  0.2462 -0.3216
 1227loPI   GL119621  12.755   6.584   4.704  0.0382  0.2770 -0.1216
 1227loPI   GL219622  12.681   6.870   4.918  0.0615 -0.0521 -0.0862
 1227loPI   C1A19623  13.098   6.703   5.035 -0.1508  0.4512  0.2798
 1227loPI   C2A19624  13.189   6.627   5.456 -0.0524  0.3420 -0.0590
 1227loPI   C3A19625  13.243   6.662   5.839  0.2205 -0.1012  0.0116
 1227loPI   C4A19626  13.277   6.612   6.289 -0.2321  0.1246 -0.2664
 1227loPI   C5A19627  13.110   6.516   6.545 -0.1203 -0.2067 -0.0100
 1227loPI   C6A19628  12.927   6.452   7.035  0.4533  0.2690  0.2565
 1227loPI   C1B19629  12.645   6.616   5.281  0.0781 -0.0160  0.1336
 1227loPI   C2B19630  12.685   6.548   5.708 -0.0390  0.1802 -0.2035
 1227loPI   C3B19631  12.794   6.528   6.047 -0.1102 -0.3132  0.0665
 1227loPI   C4B19632  12.733   6.789   6.405 -0.4712  0.3826  0.0509
 1228loPI    C119633  19.438  17.979   4.383 -0.1202 -0.0630  0.1147
 1228loPI    C219634  19.389  18.365   4.475  0.0810 -0.1385  0.5681
 1228loPI    C319635  19.082  18.153   4.332  0.0460  0.2584  0.0214
 1228loPI   PO419636  19.547  17.795   4.580  0.2583  0.0619 -0.0416
 1228loPI   GL119637  19.615  17.903   4.968  0.1188  0.1000  0.0391
 1228loPI   GL219638  19.375  18.074   4.930  0.3336  0.0079  0.0182
 1228loPI   C1A19639  19.268  17.706   5.300 -0.0324  0.1884  0.2445
 1228loPI   C2A19640  19.252  17.750   5.738  0.2157  0.1146  0.0456
 1228loPI   C3A19641  19.031  17.617   6.066 -0.1600 -0.0434 -0.0644
 1228loPI   C4A19642  19.024  17.325   6.348 -0.0602  0.1366  0.0745
 1228loPI   C5A19643  18.835  17.519   6.743  0.1143 -0.0160  0.1740
 1228loPI   C6A19644  18.985  17.868   7.149 -0.1851 -0.2145  0.1941
 1228loPI   C1B19645  19.139  18.197   5.350 -0.2785  0.1105 -0.1231
 1228loPI   C2B19646  18.951  18.411   5.709 -0.0722 -0.1860 -0.0944
 1228loPI   C3B19647  19.201  18.654   5.984  0.0349  0.2327  0.0606
 1228loPI   C4B19648  19.238  18.813   6.416 -0.1225 -0.2915 -0.0099
 1229loPI    C119649  19.090  13.294   3.867 -0.0083 -0.0439 -0.0335
 1229loPI    C219650  18.952  13.647   3.739  0.1315 -0.0676 -0.2551
 1229loPI    C319651  19.232  13.454   3.529  0.0348 -0.3253 -0.1513
 1229loPI   PO419652  19.070  13.361   4.153  0.1548  0.1718 -0.1065
 1229loPI   GL119653  19.357  13.530   4.365 -0.0736 -0.2676 -0.0912
 1229loPI   GL219654  19.587  13.601   4.340 -0.1841  0.1112  0.0195
 1229loPI   C1A19655  19.255  13.500   4.798 -0.0519  0.0243 -0.2080
 1229loPI   C2A19656  19.335  13.490   5.196 -0.1683  0.0178 -0.0692
 1229loPI   C3A19657  19.515  13.697   5.623 -0.3214 -0.0410  0.0321
 1229loPI   C4A19658  19.579  13.761   6.049 -0.0328  0.3453 -0.1206
 1229loPI   C5A19659  19.268  13.791   6.398  0.1851  0.3750  0.1553
 1229loPI   C6A19660  18.824  13.620   6.325 -0.1405 -0.0340  0.1992
 1229loPI   C1B19661  19.668  13.735   4.840  0.2112  0.4700  0.3418
 1229loPI   C2B19662  19.752  13.859   5.160 -0.0776  0.0658  0.0254
 1229loPI   C3B19663  19.781  14.110   5.466  0.4037  0.0177 -0.3033
 1229loPI   C4B19664  19.767  14.261   5.890 -0.1411  0.1243  0.1898
 1230loPI    C119665  16.236  10.809   3.786 -0.1699  0.2503 -0.0280
 1230loPI    C219666  16.480  10.983   3.521  0.2685  0.0539  0.2348
 1230loPI    C319667  16.326  10.622   3.444  0.2821  0.0584  0.1868
 1230loPI   PO419668  16.395  10.702   4.074 -0.1274 -0.1917 -0.0010
 1230loPI   GL119669  16.270  10.645   4.565 -0.1575  0.3454  0.0097
 1230loPI   GL219670  15.975  10.441   4.488 -0.1721 -0.0670  0.0201
 1230loPI   C1A19671  16.369  10.442   5.049  0.0964 -0.0647 -0.2727
 1230loPI   C2A19672  16.595  10.435   5.344 -0.2001  0.1826 -0.0201
 1230loPI   C3A19673  16.766  10.643   5.712 -0.0404  0.2155  0.1859
 1230loPI   C4A19674  17.017  10.590   6.031 -0.2389  0.2216  0.0325
 1230loPI   C5A19675  16.917  10.719   6.479 -0.0473  0.1913  0.0292
 1230loPI   C6A19676  17.157  10.887   6.756 -0.1664  0.1144 -0.0935
 1230loPI   C1B19677  15.795  10.412   4.924  0.1928 -0.4244  0.3120
 1230loPI   C2B19678  15.656  10.648   5.290 -0.0375 -0.0722  0.4459
 1230loPI   C3B19679  15.840  10.686   5.781  0.1358 -0.0620 -0.0776
 1230loPI   C4B19680  16.120  11.022   5.968  0.1733 -0.0832  0.0504
 1231loPI    C119681   2.332   1.688   4.293  0.0510  0.1956 -0.1942
 1231loPI    C219682   2.060   1.404   4.222  0.1260  0.0841 -0.0415
 1231loPI    C319683   2.214   1.613   3.918  0.1140 -0.0789 -0.1615
 1231loPI   PO419684   2.258   1.735   4.558  0.1327 -0.0520 -0.1291
 1231loPI   GL119685   1.850   1.704   4.674 -0.0165  0.0146  0.3062
 1231loPI   GL219686   1.611   1.828   4.901  0.0499 -0.0532 -0.3805
 1231loPI   C1A19687   1.657   1.420   5.152 -0.1579  0.3295  0.0008
 1231loPI   C2A19688   1.822   1.427   5.519 -0.1295  0.4772 -0.2377
 1231loPI   C3A19689   1.832   1.393   5.999 -0.1350 -0.4499  0.1982
 1231loPI   C4A19690   1.663   1.445   6.379 -0.0423 -0.0923  0.1060
 1231loPI   C5A19691   1.590   1.252   6.756 -0.1341  0.0916 -0.1726
 1231loPI   C6A19692   1.799   1.253   7.170  0.2528  0.1741 -0.0876
 1231loPI   C1B19693   1.406   1.837   5.309  0.2345  0.0027  0.1823
 1231loPI   C2B19694   1.356   1.580   5.680  0.0509  0.1659  0.0581
 1231loPI   C3B19695   1.233   1.530   6.145 -0.1984 -0.3400  0.1283
 1231loPI   C4B19696   1.260   1.660   6.633 -0.1198 -0.1740 -0.1157
 1232loPI    C119697   8.459   3.648   4.711 -0.0476 -0.0529  0.1284
 1232loPI    C219698   8.482   3.478   4.350  0.1247  0.2544 -0.0089
 1232loPI    C319699   8.814   3.542   4.563  0.0239  0.0741  0.2071
 1232loPI   PO419700   8.237   3.511   4.856  0.1621  0.0967 -0.0084
 1232loPI   GL119701   8.242   3.348   5.216  0.2223  0.3437 -0.0942
 1232loPI   GL219702   8.107   3.027   5.131  0.1574  0.1195 -0.0334
 1232loPI   C1A19703   8.399   3.316   5.623  0.0290  0.0689 -0.1475
 1232loPI   C2A19704   8.510   3.217   6.119 -0.0570 -0.0085  0.0625
 1232loPI   C3A19705   8.582   3.333   6.568  0.0401  0.5053  0.0477
 1232loPI   C4A19706   8.335   3.108   6.826 -0.1923 -0.4025 -0.1764
 1232loPI   C5A19707   8.170   3.108   7.141  0.1310  0.0309 -0.1655
 1232loPI   C6A19708   8.114   3.211   7.515 -0.1050  0.0720 -0.4559
 1232loPI   C1B19709   8.219   2.828   5.565 -0.1274  0.1632  0.1153
 1232loPI   C2B19710   8.336   2.759   5.942 -0.4352  0.0993  0.1062
 1232loPI   C3B19711   8.485   2.460   6.205  0.4032 -0.2213 -0.0025
 1232loPI   C4B19712   8.785   2.330   6.498  0.1209 -0.0158 -0.1718
 1233loPI    C119713   6.056   8.189   4.685 -0.1919 -0.1355  0.2113
 1233loPI    C219714   5.710   8.308   4.521 -0.1760 -0.1066  0.1984
 1233loPI    C319715   5.962   8.077   4.313  0.0337  0.2698  0.0254
 1233loPI   PO419716   6.028   8.114   4.888 -0.0642  0.2244  0.0129
 1233loPI   GL119717   6.214   8.204   5.176  0.0526 -0.0041  0.1910
 1233loPI   GL219718   6.426   8.422   5.312 -0.3305 -0.1554 -0.0411
 1233loPI   C1A19719   5.901   8.340   5.558  0.1694  0.2007 -0.2059
 1233loPI   C2A19720   5.861   8.435   6.109  0.0279  0.1938 -0.0602
 1233loPI   C3A19721   6.055   8.300   6.615 -0.1067  0.1618  0.2466
 1233loPI   C4A19722   6.066   8.011   6.961  0.0380  0.1523 -0.0868
 1233loPI   C5A19723   6.177   7.578   6.980  0.0207 -0.3185 -0.0544
 1233loPI   C6A19724   6.333   7.223   7.198  0.1036  0.0024  0.3014
 1233loPI   C1B19725   6.541   8.195   5.638 -0.1898  0.1751  0.1861
 1233loPI   C2B19726   6.873   7.991   5.723  0.0555  0.1286  0.2459
 1233loPI   C3B19727   7.168   8.037   6.048 -0.1542 -0.2843  0.3426
 1233loPI   C4B19728   7.552   8.144   6.280 -0.1906  0.0888  0.1359
 1234loPI    C119729  17.887  13.214   3.739 -0.0135  0.1792 -0.1836
 1234loPI    C219730  17.822  13.160   3.348  0.0180  0.0235 -0.1681
 1234loPI    C319731  18.193  13.135   3.494 -0.0003  0.0305 -0.1202
 1234loPI   PO419732  17.734  13.105   3.895 -0.1289  0.0764  0.0262
 1234loPI   GL119733  17.783  13.058   4.344  0.2314 -0.3469 -0.1241
 1234loPI   GL219734  17.519  13.168   4.433 -0.0035 -0.3773 -0.0937
 1234loPI   C1A19735  17.761  12.805   4.852 -0.0555  0.1521 -0.0921
 1234loPI   C2A19736  17.688  12.943   5.291 -0.1796 -0.0197  0.0116
 1234loPI   C3A19737  17.477  13.069   5.622 -0.0565  0.0367  0.2746
 1234loPI   C4A19738  17.405  13.069   6.084 -0.0269  0.2205  0.0173
 1234loPI   C5A19739  17.333  12.987   6.549 -0.0179 -0.1172  0.1916
 1234loPI   C6A19740  17.357  13.321   6.837 -0.1235  0.0205  0.0272
 1234loPI   C1B19741  17.119  13.163   4.697 -0.2160 -0.1718  0.1203
 1234loPI   C2B19742  16.693  13.127   4.903  0.2102 -0.1336  0.3839
 1234loPI   C3B19743  16.516  12.890   5.159 -0.2566  0.0369  0.0017
 1234loPI   C4B19744  16.387  13.017   5.519 -0.0148 -0.0532 -0.0504
 1235loPI    C119745  15.435  10.306   3.867 -0.1195 -0.0443 -0.0359
 1235loPI    C219746  15.610   9.986   3.703 -0.3457 -0.1761 -0.0244
 1235loPI    C319747  15.511  10.298   3.474  0.1165  0.0013  0.0076
 1235loPI   PO419748  15.516  10.355   4.063  0.0904 -0.0015 -0.1843
 1235loPI   GL119749  15.449  10.521   4.446 -0.2859 -0.0848 -0.3541
 1235loPI   GL219750  15.618  10.772   4.552  0.0696 -0.2198 -0.1235
 1235loPI   C1A19751  15.336  10.458   4.883  0.2257 -0.3203 -0.2230
 1235loPI   C2A19752  14.845  10.410   5.156 -0.0213 -0.1241  0.0283
 1235loPI   C3A19753  14.642  10.146   5.513  0.0293  0.2914 -0.1605
 1235loPI   C4A19754  14.580  10.127   5.834 -0.3364  0.1426 -0.0214
 1235loPI   C5A19755  14.699   9.932   6.258 -0.2237 -0.1120 -0.0145
 1235loPI   C6A19756  14.765   9.835   6.708 -0.0845  0.0838 -0.1569
 1235loPI   C1B19757  15.915  10.958   4.778  0.2790  0.1355  0.2638
 1235loPI   C2B19758  16.015  10.926   5.076  0.2468 -0.1009 -0.1223
 1235loPI   C3B19759  16.332  10.939   5.530 -0.6529 -0.1219  0.3087
 1235loPI   C4B19760  16.554  11.145   5.828 -0.0703  0.1667 -0.2535
 1236loPI    C119761   4.135  13.672   4.639 -0.1455 -0.0925  0.0950
 1236loPI    C219762   4.082  13.765   4.254  0.0162  0.0830  0.1142
 1236loPI    C319763   4.446  13.667   4.388 -0.0706 -0.1434  0.1882
 1236loPI   PO419764   4.127  13.949   4.880  0.1344  0.0542  0.0347
 1236loPI   GL119765   4.108  14.065   5.188  0.0186  0.0110 -0.3318
 1236loPI   GL219766   4.227  14.310   5.343 -0.0975  0.1537 -0.1483
 1236loPI   C1A19767   3.987  13.857   5.618 -0.0210 -0.0989  0.1656
 1236loPI   C2A19768   3.878  13.799   6.017 -0.3187 -0.0570 -0.0564
 1236loPI   C3A19769   3.663  13.546   6.343  0.0532 -0.0378  0.0098
 1236loPI   C4A19770   3.379  13.487   6.580 -0.0296  0.1313 -0.5265
 1236loPI   C5A19771   3.147  13.390   6.920 -0.0432 -0.1617  0.0312
 1236loPI   C6A19772   3.021  13.421   7.375 -0.0352  0.1346 -0.0382
 1236loPI   C1B19773   4.281  14.522   5.701 -0.2111 -0.0248 -0.2420
 1236loPI   C2B19774   4.475  14.586   6.076  0.0232  0.0779  0.1519
 1236loPI   C3B19775   4.671  14.556   6.361 -0.2615 -0.0563 -0.2243
 1236loPI   C4B19776   4.707  14.822   6.761  0.1154  0.1031  0.1033
 1237loPI    C119777  12.672   8.056   4.319 -0.0250  0.1074  0.1892
 1237loPI    C219778  12.537   8.431   4.354  0.0663  0.1904 -0.2711
 1237loPI    C319779  12.930   8.361   4.343  0.0633  0.0238  0.3097
 1237loPI   PO419780  12.535   7.899   4.483  0.1710 -0.0886  0.3409
 1237loPI   GL119781  12.473   7.826   4.919 -0.0073 -0.3859 -0.1046
 1237loPI   GL219782  12.671   8.151   4.886 -0.4017  0.2237  0.0330
 1237loPI   C1A19783  12.565   7.563   5.340 -0.0835  0.0183  0.0817
 1237loPI   C2A19784  12.490   7.401   5.754 -0.0786  0.3502  0.0999
 1237loPI   C3A19785  12.117   7.599   6.121  0.1450  0.0272  0.1963
 1237loPI   C4A19786  12.054   7.536   6.464 -0.0190 -0.0472  0.2102
 1237loPI   C5A19787  11.951   7.731   6.931  0.2309 -0.0174  0.2149
 1237loPI   C6A19788  11.738   7.832   7.328 -0.0613 -0.1321 -0.1183
 1237loPI   C1B19789  12.683   8.036   5.326 -0.3044  0.2945 -0.0628
 1237loPI   C2B19790  12.778   7.909   5.693 -0.2618  0.0537  0.1436
 1237loPI   C3B19791  12.549   7.796   6.086  0.0779  0.0344 -0.1258
 1237loPI   C4B19792  12.515   7.828   6.533 -0.0814  0.2877 -0.2076
 1238loPI    C119793   4.782  15.765   4.904  0.1079  0.0475  0.0188
 1238loPI    C219794   4.771  16.155   4.991  0.3645  0.1132 -0.2283
 1238loPI    C319795   5.005  16.023   4.695  0.1405 -0.2070 -0.2677
 1238loPI   PO419796   4.820  15.637   5.136 -0.0189 -0.1542 -0.1339
 1238loPI   GL119797   4.645  15.623   5.504 -0.0147  0.4071 -0.2722
 1238loPI   GL219798   4.259  15.651   5.535  0.4449 -0.1578  0.1355
 1238loPI   C1A19799   4.586  15.300   5.818 -0.1505  0.3445  0.3378
 1238loPI   C2A19800   4.388  15.106   6.128  0.0965 -0.3079  0.0670
 1238loPI   C3A19801   4.375  14.898   6.433  0.1372 -0.0057  0.1114
 1238loPI   C4A19802   4.280  15.023   6.814 -0.3273 -0.0141 -0.0460
 1238loPI   C5A19803   4.139  15.288   7.130 -0.1070  0.2020 -0.3831
 1238loPI   C6A19804   3.998  15.463   7.521  0.0147  0.2481 -0.3334
 1238loPI   C1B19805   4.199  15.552   6.020 -0.0303 -0.0542 -0.2532
 1238loPI   C2B19806   4.249  15.483   6.443  0.1805  0.0115 -0.0684
 1238loPI   C3B19807   4.114  15.653   6.825  0.1552 -0.0375 -0.1250
 1238loPI   C4B19808   4.240  15.816   7.210  0.2131 -0.3099 -0.0730
 1239loPI    C119809  16.348   1.213   4.309  0.0898 -0.0650  0.1578
 1239loPI    C219810  16.702   1.107   4.463  0.0724 -0.0292  0.2233
 1239loPI    C319811  16.614   1.494   4.409  0.1560 -0.0473 -0.0626
 1239loPI   PO419812  16.124   1.113   4.473 -0.1068  0.1368  0.3216
 1239loPI   GL119813  16.153   0.880   4.809  0.2601  0.0905 -0.2562
 1239loPI   GL219814  15.894   0.728   4.766  0.1133  0.0177 -0.1787
 1239loPI   C1A19815  16.091   1.062   5.209 -0.0818  0.2005 -0.4693
 1239loPI   C2A19816  15.936   0.953   5.589 -0.0440 -0.0682  0.2179
 1239loPI   C3A19817  15.925   1.024   5.980  0.1176 -0.1419 -0.4247
 1239loPI   C4A19818  16.025   1.134   6.361 -0.0850 -0.0728  0.0241
 1239loPI   C5A19819  16.359   1.048   6.657 -0.0978  0.1608 -0.1332
 1239loPI   C6A19820  16.252   0.704   6.866 -0.2699  0.1753 -0.0007
 1239loPI   C1B19821  15.745   0.670   5.186  0.1464  0.0943  0.2594
 1239loPI   C2B19822  15.772   0.467   5.516  0.4022 -0.3810 -0.2117
 1239loPI   C3B19823  15.728   0.587   5.935  0.2533 -0.2606  0.1297
 1239loPI   C4B19824  15.639   0.719   6.271 -0.1327  0.2252 -0.1321
 1240loPI    C119825   3.477   2.476   4.448 -0.1886 -0.0290 -0.2901
 1240loPI    C219826   3.275   2.538   4.108 -0.0166 -0.1488 -0.4164
 1240loPI    C319827   3.669   2.472   4.097  0.0748  0.3033 -0.1563
 1240loPI   PO419828   3.314   2.565   4.727  0.0398  0.0347 -0.0295
 1240loPI   GL119829   3.066   2.756   5.052 -0.1581  0.0478  0.1502
 1240loPI   GL219830   2.852   2.537   4.911 -0.0101 -0.1805  0.0384
 1240loPI   C1A19831   3.247   2.568   5.445 -0.3285 -0.3051 -0.1649
 1240loPI   C2A19832   3.581   2.413   5.731  0.1900  0.0040 -0.0452
 1240loPI   C3A19833   3.704   2.337   6.163 -0.0851 -0.0450 -0.0655
 1240loPI   C4A19834   3.751   2.443   6.628 -0.0134  0.2145  0.2999
 1240loPI   C5A19835   3.902   2.404   7.003  0.2400  0.0058 -0.0188
 1240loPI   C6A19836   3.685   2.214   7.329  0.0876 -0.1364 -0.1148
 1240loPI   C1B19837   2.807   2.382   5.294 -0.0066 -0.1446 -0.1629
 1240loPI   C2B19838   2.827   2.353   5.691 -0.0814 -0.3008 -0.2775
 1240loPI   C3B19839   2.855   2.374   6.099  0.3268 -0.0317 -0.0542
 1240loPI   C4B19840   3.144   2.301   6.404 -0.0714  0.0544  0.3153
 1241loPI    C119841   9.809  14.785   4.479  0.0415 -0.0640 -0.3865
 1241loPI    C219842   9.476  14.597   4.365 -0.0423 -0.0722 -0.1341
 1241loPI    C319843   9.824  14.512   4.187 -0.1599 -0.1206 -0.3450
 1241loPI   PO419844   9.756  14.915   4.718  0.1140  0.0982 -0.1235
 1241loPI   GL119845  10.003  14.873   5.064  0.1610  0.3207  0.0761
 1241loPI   GL219846  10.039  15.181   5.140 -0.2369  0.1153 -0.2661
 1241loPI   C1A19847   9.809  14.720   5.522 -0.1315 -0.2458  0.0707
 1241loPI   C2A19848   9.695  14.434   5.653 -0.0509 -0.1055 -0.1019
 1241loPI   C3A19849   9.542  14.595   5.969  0.2887 -0.3059 -0.1016
 1241loPI   C4A19850   9.435  14.721   6.414 -0.0688  0.0225  0.0509
 1241loPI   C5A19851   8.986  14.678   6.643  0.0982  0.3147  0.0007
 1241loPI   C6A19852   8.479  14.603   6.577  0.0576  0.1015 -0.0409
 1241loPI   C1B19853   9.912  15.160   5.611 -0.4202 -0.0310 -0.0459
 1241loPI   C2B19854  10.025  14.990   5.993  0.1738  0.0025  0.0614
 1241loPI   C3B19855  10.041  14.760   6.392 -0.1130 -0.1197 -0.0329
 1241loPI   C4B19856   9.824  14.538   6.708  0.0859 -0.1018 -0.0768
 1242loPI    C119857  18.814   3.390   4.214 -0.1500 -0.0188 -0.1052
 1242loPI    C219858  18.618   3.355   3.867  0.1386  0.1006 -0.2834
 1242loPI    C319859  18.738   3.715   3.993  0.0799  0.0512 -0.0837
 1242loPI   PO419860  18.665   3.245   4.340  0.2672  0.0278 -0.0954
 1242loPI   GL119861  18.543   3.379   4.756  0.4478 -0.0617  0.0244
 1242loPI   GL219862  18.630   3.508   4.986 -0.0823  0.0079 -0.0105
 1242loPI   C1A19863  18.188   3.318   4.952 -0.3373  0.3788 -0.0246
 1242loPI   C2A19864  18.072   3.195   5.435  0.1517 -0.0233 -0.0019
 1242loPI   C3A19865  18.068   3.296   5.894 -0.0850 -0.0561  0.0139
 1242loPI   C4A19866  17.820   3.368   6.202 -0.3030 -0.1457  0.1086
 1242loPI   C5A19867  17.867   3.527   6.621 -0.1480 -0.4167  0.1734
 1242loPI   C6A19868  18.144   3.583   6.972  0.1430 -0.0013  0.1298
 1242loPI   C1B19869  18.479   3.584   5.484  0.1600 -0.4961  0.1805
 1242loPI   C2B19870  18.550   3.610   5.857  0.3337  0.2560 -0.2524
 1242loPI   C3B19871  18.710   3.607   6.276 -0.0540  0.1143 -0.3047
 1242loPI   C4B19872  18.637   3.522   6.618 -0.2959 -0.3743  0.0966
 1243loPI    C119873   8.558   0.731   4.126 -0.0949 -0.0096  0.0005
 1243loPI    C219874   8.434   1.048   3.914 -0.0331  0.0004 -0.0208
 1243loPI    C319875   8.263   0.690   3.858 -0.0359  0.0090 -0.0677
 1243loPI   PO419876   8.588   0.810   4.343 -0.1676 -0.1239 -0.0372
 1243loPI   GL119877   8.613   0.876   4.723 -0.1842 -0.2309 -0.1784
 1243loPI   GL219878   8.829   1.097   4.825 -0.5281  0.1157 -0.0452
 1243loPI   C1A19879   8.812   0.575   5.106 -0.1916 -0.2574 -0.1857
 1243loPI   C2A19880   9.072   0.445   5.304 -0.0580 -0.1469  0.0183
 1243loPI   C3A19881   9.235   0.549   5.652  0.0078 -0.1208  0.1044
 1243loPI   C4A19882   8.981   0.773   6.073 -0.2299 -0.0212  0.0500
 1243loPI   C5A19883   8.556   1.010   5.992 -0.1809 -0.1744 -0.0157
 1243loPI   C6A19884   8.139   0.991   6.188  0.1190  0.3608  0.1424
 1243loPI   C1B19885   8.651   1.051   5.149  0.1113 -0.0962  0.1659
 1243loPI   C2B19886   8.294   1.062   5.415  0.3525  0.0579 -0.3792
 1243loPI   C3B19887   8.002   0.953   5.576  0.2411  0.1487 -0.0263
 1243loPI   C4B19888   7.583   0.762   5.629  0.1828  0.1837  0.2749
 1244loPI    C119889  10.418  13.938   4.567 -0.3000 -0.0989 -0.0926
 1244loPI    C219890  10.302  13.556   4.577  0.1244 -0.2300  0.0335
 1244loPI    C319891  10.621  13.662   4.361  0.0808  0.0337  0.0956
 1244loPI   PO419892  10.460  13.996   4.816 -0.0535  0.2273 -0.2157
 1244loPI   GL119893  10.644  13.916   5.198 -0.0695 -0.3177  0.1685
 1244loPI   GL219894  10.770  14.090   5.330  0.0017 -0.0943 -0.1467
 1244loPI   C1A19895  10.550  13.592   5.630 -0.2918  0.0345  0.2726
 1244loPI   C2A19896  10.799  13.286   5.856  0.1176 -0.0567 -0.2726
 1244loPI   C3A19897  11.143  13.333   6.232 -0.0611 -0.1729 -0.1892
 1244loPI   C4A19898  11.012  13.452   6.637  0.0182  0.1537 -0.3309
 1244loPI   C5A19899  11.026  13.703   6.978 -0.2999 -0.1468  0.0796
 1244loPI   C6A19900  11.193  14.146   7.106 -0.2526 -0.4198 -0.0719
 1244loPI   C1B19901  10.832  14.137   5.698 -0.0872  0.1912  0.0968
 1244loPI   C2B19902  11.033  14.264   6.000 -0.1437  0.3122 -0.0120
 1244loPI   C3B19903  11.201  14.723   6.091 -0.0188  0.1640 -0.0344
 1244loPI   C4B19904  11.336  15.020   6.372 -0.0802  0.0463 -0.2500
 1245loPI    C119905  16.969   8.641   3.966 -0.0193  0.1270 -0.0935
 1245loPI    C219906  16.658   8.526   4.188 -0.0230 -0.0791 -0.2033
 1245loPI    C319907  16.613   8.581   3.794  0.0600 -0.0307 -0.2061
 1245loPI   PO419908  17.213   8.540   4.163  0.1789 -0.1726 -0.0259
 1245loPI   GL119909  17.360   8.304   4.526 -0.0233  0.0313 -0.1067
 1245loPI   GL219910  17.694   8.196   4.507  0.0657 -0.1696  0.0720
 1245loPI   C1A19911  17.348   8.190   4.956 -0.1008 -0.3877  0.0004
 1245loPI   C2A19912  17.470   8.149   5.368  0.1744  0.0550 -0.1323
 1245loPI   C3A19913  17.732   8.241   5.747 -0.0213 -0.1249  0.2944
 1245loPI   C4A19914  17.832   8.176   6.150 -0.1467 -0.1744  0.0310
 1245loPI   C5A19915  18.085   7.782   6.279  0.0685 -0.1109 -0.0031
 1245loPI   C6A19916  18.572   7.620   6.410 -0.0822  0.0417 -0.2687
 1245loPI   C1B19917  17.957   8.020   4.859  0.2809 -0.1643  0.1225
 1245loPI   C2B19918  17.999   7.933   5.326 -0.2758 -0.0036  0.0938
 1245loPI   C3B19919  18.068   7.786   5.753 -0.2107  0.1460  0.2487
 1245loPI   C4B19920  18.520   7.908   5.967  0.0699 -0.1863 -0.3153
 1246loPI    C119921   8.978   4.838   4.158  0.1308  0.1143  0.1121
 1246loPI    C219922   8.611   4.862   4.314  0.0636  0.0874 -0.0399
 1246loPI    C319923   8.657   4.805   3.921  0.2291 -0.1914  0.0176
 1246loPI   PO419924   9.125   4.675   4.325 -0.1947 -0.1516 -0.1354
 1246loPI   GL119925   9.312   4.668   4.805  0.0458 -0.0002 -0.4423
 1246loPI   GL219926   9.414   4.952   4.898  0.2106  0.4633 -0.2851
 1246loPI   C1A19927   9.335   4.647   5.306 -0.0312 -0.0360  0.1247
 1246loPI   C2A19928   9.376   4.521   5.665  0.2751 -0.0042 -0.0137
 1246loPI   C3A19929   9.160   4.321   6.067 -0.5261 -0.1143  0.4251
 1246loPI   C4A19930   9.428   4.197   6.409 -0.3077  0.2971  0.4428
 1246loPI   C5A19931   9.724   4.462   6.593 -0.0135  0.3814 -0.1028
 1246loPI   C6A19932  10.065   4.737   6.769  0.3720  0.2684  0.5306
 1246loPI   C1B19933   9.799   4.914   5.213 -0.1986  0.1466 -0.1050
 1246loPI   C2B19934   9.807   4.870   5.766 -0.0052  0.3134 -0.0362
 1246loPI   C3B19935   9.652   4.803   6.219  0.1805 -0.1226 -0.0433
 1246loPI   C4B19936   9.286   4.750   6.540  0.1492  0.3690 -0.1791
 1247loPI    C119937  16.081   7.078   4.125 -0.0591  0.1950 -0.1147
 1247loPI    C219938  16.074   7.245   3.761 -0.0771 -0.0168 -0.2135
 1247loPI    C319939  15.899   6.890   3.822 -0.0211 -0.0114 -0.0117
 1247loPI   PO419940  16.179   7.313   4.325 -0.1772  0.1114 -0.0114
 1247loPI   GL119941  16.426   7.224   4.691 -0.0301 -0.0371 -0.1895
 1247loPI   GL219942  16.231   7.389   4.798  0.2001 -0.0617 -0.2327
 1247loPI   C1A19943  16.674   7.349   5.039  0.1352  0.0153  0.0533
 1247loPI   C2A19944  16.663   7.544   5.363  0.2248 -0.1288  0.4922
 1247loPI   C3A19945  16.575   7.760   5.689 -0.0313  0.3027  0.2700
 1247loPI   C4A19946  16.504   8.031   6.009 -0.0234  0.1276 -0.3626
 1247loPI   C5A19947  16.873   8.231   6.178 -0.0245  0.2326  0.2010
 1247loPI   C6A19948  16.945   8.480   6.621  0.0433 -0.2300 -0.1408
 1247loPI   C1B19949  16.090   7.674   5.223  0.0101 -0.2239 -0.0350
 1247loPI   C2B19950  16.028   7.828   5.686  0.1002 -0.0505 -0.2367
 1247loPI   C3B19951  15.901   8.016   6.083 -0.1426 -0.2596  0.1378
 1247loPI   C4B19952  16.214   8.256   6.407 -0.0353  0.1231  0.0045
 1248loPI    C119953   2.652  11.456   4.320  0.0412 -0.0091 -0.1160
 1248loPI    C219954   2.330  11.223   4.271 -0.0718  0.1142  0.0303
 1248loPI    C319955   2.393  11.533   4.025  0.0420 -0.0281 -0.1216
 1248loPI   PO419956   2.680  11.409   4.696  0.3828  0.2252  0.0113
 1248loPI   GL119957   2.432  11.251   5.125 -0.1327 -0.3165  0.0345
 1248loPI   GL219958   2.822  11.181   5.145  0.0029  0.0067  0.3803
 1248loPI   C1A19959   2.483  11.147   5.580 -0.1952 -0.1420  0.2870
 1248loPI   C2A19960   2.614  11.244   5.978 -0.0708  0.3206  0.0046
 1248loPI   C3A19961   2.733  11.334   6.424 -0.3391  0.0078 -0.2730
 1248loPI   C4A19962   2.480  11.501   6.829  0.0360 -0.0432 -0.3238
 1248loPI   C5A19963   2.405  11.880   7.129  0.0769 -0.0580 -0.0178
 1248loPI   C6A19964   2.238  12.253   7.332 -0.1222 -0.0863 -0.2703
 1248loPI   C1B19965   3.003  11.197   5.535 -0.0327 -0.0967  0.1595
 1248loPI   C2B19966   3.065  11.484   5.793  0.0289 -0.2897  0.1776
 1248loPI   C3B19967   3.272  11.652   6.150  0.1599 -0.0603 -0.0436
 1248loPI   C4B19968   3.122  11.641   6.573  0.1281 -0.0650  0.2252
 1249loPI    C119969  10.346   2.715   4.211  0.0729 -0.1243  0.1532
 1249loPI    C219970  10.544   2.396   4.348 -0.0024 -0.2889 -0.1141
 1249loPI    C319971  10.204   2.347   4.145  0.0861 -0.0490 -0.3246
 1249loPI   PO419972  10.356   2.866   4.490 -0.0570 -0.0163  0.0558
 1249loPI   GL119973  10.378   2.941   4.927 -0.2411  0.2307  0.2335
 1249loPI   GL219974  10.586   3.225   4.903 -0.0701 -0.0380  0.0606
 1249loPI   C1A19975  10.369   2.996   5.400  0.0925 -0.1652  0.1910
 1249loPI   C2A19976  10.504   3.159   5.819  0.0082 -0.1243 -0.0353
 1249loPI   C3A19977  10.349   3.277   6.203 -0.1132  0.3516  0.2819
 1249loPI   C4A19978  10.254   3.393   6.637  0.0492 -0.0613 -0.0342
 1249loPI   C5A19979  10.008   3.621   7.025 -0.3294  0.0482 -0.0158
 1249loPI   C6A19980   9.714   3.729   7.243 -0.0401 -0.4521  0.0671
 1249loPI   C1B19981  10.701   3.401   5.316  0.0168 -0.0205 -0.0119
 1249loPI   C2B19982  10.945   3.436   5.718 -0.0144 -0.3098 -0.1220
 1249loPI   C3B19983  10.875   3.387   6.155  0.0615  0.0193 -0.0680
 1249loPI   C4B19984  10.725   3.332   6.570  0.3630  0.1046 -0.0125
 1250loPI    C119985  17.651  17.005   3.903 -0.2354  0.2356  0.0087
 1250loPI    C219986  17.502  16.640   3.837  0.4544 -0.0386 -0.1136
 1250loPI    C319987  17.448  16.930   3.567 -0.0776 -0.0469 -0.0263
 1250loPI   PO419988  17.549  17.058   4.085  0.2092 -0.0378 -0.0857
 1250loPI   GL119989  17.619  17.131   4.458 -0.0154 -0.1317  0.0343
 1250loPI   GL219990  17.795  16.995   4.603 -0.0645 -0.0178  0.0781
 1250loPI   C1A19991  17.484  17.285   4.826 -0.2829 -0.2706 -0.3765
 1250loPI   C2A19992  17.596  17.581   5.169 -0.1775  0.0851 -0.2016
 1250loPI   C3A19993  17.465  18.007   5.375 -0.0286 -0.1034  0.1130
 1250loPI   C4A19994  17.311  18.151   5.711  0.0383 -0.1128 -0.1740
 1250loPI   C5A19995  17.345  18.336   6.143  0.0491  0.3041  0.3116
 1250loPI   C6A19996  17.123  18.481   6.494 -0.4328 -0.3871  0.2649
 1250loPI   C1B19997  17.716  16.982   5.139 -0.2672  0.1804  0.2508
 1250loPI   C2B19998  17.888  17.024   5.618 -0.1290  0.2506 -0.1256
 1250loPI   C3B19999  17.791  16.856   6.058  0.2565  0.2522 -0.3960
 1250loPI   C4B20000  17.686  16.480   6.305 -0.1043 -0.0082  0.1344
 1251loPI    C120001  18.369  18.570   4.471  0.1112 -0.0428  0.1427
 1251loPI    C220002  18.145  18.289   4.295 -0.0612  0.1811 -0.0008
 1251loPI    C320003  18.167  18.656   4.136  0.2140  0.2316  0.1482
 1251loPI   PO420004  18.671  18.487   4.533 -0.1808  0.0240  0.2781
 1251loPI   GL120005  18.832  18.199   4.887 -0.1650 -0.2639  0.0826
 1251loPI   GL220006  19.167  18.484   4.884  0.0530  0.0230 -0.1961
 1251loPI   C1A20007  18.774  17.920   5.092 -0.3038  0.0537  0.2215
 1251loPI   C2A20008  18.794  17.826   5.560  0.4187  0.1477  0.0382
 1251loPI   C3A20009  18.713  18.014   5.957  0.0572 -0.4918 -0.0892
 1251loPI   C4A20010  18.766  17.886   6.361 -0.2203  0.2710  0.1142
 1251loPI   C5A20011  18.715  17.992   6.746  0.2751  0.1445 -0.0015
 1251loPI   C6A20012  18.475  17.772   7.163 -0.2672  0.0984  0.3052
 1251loPI   C1B20013  19.216  18.699   5.353 -0.0194  0.2825 -0.0469
 1251loPI   C2B20014  19.594  18.667   5.591  0.0153  0.0405  0.3100
 1251loPI   C3B20015  19.668  18.649   6.106 -0.0487 -0.2448 -0.1978
 1251loPI   C4B20016  19.697  18.572   6.541  0.1521 -0.1787  0.1207
 1252loPI    C120017   5.166   7.117   4.439 -0.1005 -0.0838  0.2108
 1252loPI    C220018   5.476   6.865   4.443 -0.1128 -0.1046 -0.0017
 1252loPI    C320019   5.119   6.740   4.314 -0.2120 -0.0814  0.2435
 1252loPI   PO420020   5.156   7.250   4.668 -0.0913 -0.1302  0.0058
 1252loPI   GL120021   4.926   7.214   4.996  0.0696  0.0294 -0.0468
 1252loPI   GL220022   5.117   7.175   5.285 -0.1799 -0.1363 -0.1476
 1252loPI   C1A20023   4.765   7.488   5.263 -0.1666 -0.0372 -0.3524
 1252loPI   C2A20024   4.653   7.607   5.616  0.0239  0.2821 -0.4287
 1252loPI   C3A20025   4.595   7.591   5.991  0.3243 -0.0632 -0.2735
 1252loPI   C4A20026   4.272   7.611   6.424 -0.0887 -0.2350 -0.0513
 1252loPI   C5A20027   4.196   7.409   6.762 -0.0374  0.4616  0.0095
 1252loPI   C6A20028   4.236   7.188   7.135 -0.0763  0.2791  0.2603
 1252loPI   C1B20029   5.110   7.309   5.637  0.0506  0.1330  0.3223
 1252loPI   C2B20030   5.008   7.379   6.104 -0.1258 -0.0224  0.1294
 1252loPI   C3B20031   4.777   7.555   6.470  0.0766 -0.0066 -0.1046
 1252loPI   C4B20032   4.711   7.673   6.836  0.4255 -0.1983  0.1586
 1253loPI    C120033   9.129  12.100   4.807 -0.1673 -0.0458  0.0996
 1253loPI    C220034   9.422  11.998   4.555 -0.1878  0.0122  0.0522
 1253loPI    C320035   9.302  12.379   4.579 -0.1318  0.0207  0.2072
 1253loPI   PO420036   9.100  11.917   5.014 -0.4347  0.2030 -0.1279
 1253loPI   GL120037   8.744  11.779   5.270  0.1303 -0.0453 -0.0034
 1253loPI   GL220038   9.021  11.505   5.309  0.1195 -0.0624 -0.1588
 1253loPI   C1A20039   8.775  11.778   5.681 -0.1361  0.1546  0.3202
 1253loPI   C2A20040   8.955  11.943   6.135  0.1760 -0.1249  0.0716
 1253loPI   C3A20041   9.280  11.925   6.381 -0.3931  0.2022  0.1328
 1253loPI   C4A20042   9.763  11.746   6.583 -0.1031  0.2154  0.1480
 1253loPI   C5A20043  10.149  11.836   6.861  0.0755  0.1826  0.4021
 1253loPI   C6A20044  10.568  11.834   7.002  0.1587 -0.0269 -0.0791
 1253loPI   C1B20045   9.259  11.735   5.651  0.2167 -0.0940  0.2705
 1253loPI   C2B20046   9.630  11.746   5.914 -0.1388  0.1068 -0.1070
 1253loPI   C3B20047  10.032  11.788   6.049 -0.2440  0.1722  0.0383
 1253loPI   C4B20048  10.325  11.894   6.428 -0.0577  0.2804 -0.0839
 1254loPI    C120049  12.241   4.823   4.249  0.0085 -0.0036 -0.0733
 1254loPI    C220050  12.087   4.494   4.082 -0.2045  0.0958 -0.0759
 1254loPI    C320051  12.336   4.727   3.873 -0.1241 -0.0148 -0.1042
 1254loPI   PO420052  12.269   4.859   4.519 -0.1059  0.0916  0.0062
 1254loPI   GL120053  12.296   4.702   4.893  0.1484  0.0661 -0.1306
 1254loPI   GL220054  12.312   5.026   5.042  0.0209 -0.4533 -0.3811
 1254loPI   C1A20055  12.524   4.578   5.361  0.1048 -0.0018  0.0134
 1254loPI   C2A20056  12.565   4.503   5.778 -0.0455 -0.3153 -0.1983
 1254loPI   C3A20057  12.555   4.309   6.267 -0.1618  0.0598  0.3227
 1254loPI   C4A20058  12.729   4.376   6.606  0.0730  0.0082  0.0448
 1254loPI   C5A20059  12.693   4.697   6.932 -0.1579  0.0808  0.0396
 1254loPI   C6A20060  12.676   5.069   7.211 -0.2074  0.1173 -0.2457
 1254loPI   C1B20061  12.180   5.032   5.536  0.2791 -0.1402  0.0679
 1254loPI   C2B20062  12.058   5.196   5.940  0.1380  0.1682  0.2002
 1254loPI   C3B20063  12.248   5.382   6.317 -0.1427 -0.1298  0.1512
 1254loPI   C4B20064  12.556   5.189   6.717  0.0198 -0.1448 -0.1582
 1255loPI    C120065   7.383  14.656   4.839 -0.0939 -0.0078  0.0383
 1255loPI    C220066   7.585  14.867   4.566  0.0644  0.0066  0.1655
 1255loPI    C320067   7.320  14.590   4.449  0.1537 -0.0094 -0.0024
 1255loPI   PO420068   7.423  14.819   5.020  0.3930  0.2012  0.1352
 1255loPI   GL120069   7.450  14.764   5.441  0.1404 -0.2750  0.2995
 1255loPI   GL220070   7.773  14.792   5.387 -0.0214 -0.0909 -0.1370
 1255loPI   C1A20071   7.507  14.971   5.903  0.4063 -0.1043  0.2137
 1255loPI   C2A20072   7.613  15.025   6.332 -0.0712 -0.1869  0.0245
 1255loPI   C3A20073   7.559  15.093   6.767 -0.0644 -0.4045  0.1177
 1255loPI   C4A20074   7.809  15.370   6.976 -0.0888  0.0231  0.0718
 1255loPI   C5A20075   7.842  15.734   7.170 -0.1193 -0.3102  0.5821
 1255loPI   C6A20076   7.804  16.190   7.203  0.1305  0.1677  0.3045
 1255loPI   C1B20077   7.935  14.833   5.771  0.0136  0.0545  0.3120
 1255loPI   C2B20078   8.039  14.845   6.179  0.1244 -0.0861 -0.0414
 1255loPI   C3B20079   8.146  15.007   6.575 -0.1532 -0.3509 -0.0333
 1255loPI   C4B20080   8.316  15.440   6.690 -0.1390  0.2606 -0.1000
 1256loPI    C120081  14.169   5.630   4.438  0.1862 -0.0076  0.2093
 1256loPI    C220082  14.093   5.833   4.774  0.2312  0.0132  0.2070
 1256loPI    C320083  14.087   6.021   4.421  0.0624 -0.0341  0.1835
 1256loPI   PO420084  14.327   5.449   4.504  0.0644 -0.0403 -0.0658
 1256loPI   GL120085  14.568   5.357   4.836 -0.1295  0.1112 -0.1965
 1256loPI   GL220086  14.581   5.067   4.800 -0.0139 -0.1665  0.1662
 1256loPI   C1A20087  14.717   5.376   5.271  0.1301  0.1816 -0.3254
 1256loPI   C2A20088  14.990   5.569   5.574  0.0646 -0.0945 -0.2313
 1256loPI   C3A20089  15.353   5.552   5.958 -0.1589 -0.1955 -0.0075
 1256loPI   C4A20090  15.536   5.410   6.393 -0.0294 -0.1891  0.0284
 1256loPI   C5A20091  15.292   5.384   6.852 -0.3545  0.1713  0.1079
 1256loPI   C6A20092  15.127   5.232   7.152  0.3608  0.2867  0.0235
 1256loPI   C1B20093  14.509   4.887   5.252  0.2992  0.1175  0.2345
 1256loPI   C2B20094  14.597   4.670   5.640  0.1933 -0.1071 -0.0986
 1256loPI   C3B20095  14.943   4.669   5.953 -0.2556  0.0413  0.2329
 1256loPI   C4B20096  15.178   4.292   6.158  0.0129  0.1470  0.0460
 1257loPI    C120097  17.474  19.145   4.201 -0.1430  0.3436  0.1804
 1257loPI    C220098  17.183  18.912   4.346  0.0438  0.0827  0.1449
 1257loPI    C320099  17.198  18.993   3.955 -0.0426  0.1865  0.1627
 1257loPI   PO420100  17.476  19.311   4.389 -0.1732 -0.3125  0.0557
 1257loPI   GL120101  17.647  19.388   4.828  0.2537  0.2715 -0.0940
 1257loPI   GL220102  17.352  19.578   4.872 -0.2112  0.0905  0.2854
 1257loPI   C1A20103  17.955  19.271   5.064 -0.0627  0.1196 -0.1162
 1257loPI   C2A20104  18.000  19.244   5.460 -0.0377 -0.0883  0.1624
 1257loPI   C3A20105  17.864  18.859   5.690 -0.2376  0.3812  0.1282
 1257loPI   C4A20106  17.804  18.538   5.937  0.1200  0.3065 -0.0046
 1257loPI   C5A20107  17.819  18.358   6.399  0.1018 -0.0243  0.1825
 1257loPI   C6A20108  17.685  18.114   6.770 -0.0780  0.1685 -0.1492
 1257loPI   C1B20109  17.628  19.643   5.246 -0.1824  0.2782  0.3363
 1257loPI   C2B20110  17.551  19.766   5.646  0.3064 -0.0336 -0.0179
 1257loPI   C3B20111  17.313  19.583   5.963 -0.0338 -0.1905  0.0773
 1257loPI   C4B20112  17.114  19.722   6.300 -0.1704  0.0638 -0.1414
 1258loPI    C120113   6.956   2.111   4.354  0.0023 -0.2711  0.1522
 1258loPI    C220114   7.041   2.471   4.203 -0.0398 -0.1040  0.5172
 1258loPI    C320115   6.873   2.192   3.971  0.2773  0.0037  0.1475
 1258loPI   PO420116   7.144   2.073   4.526 -0.1482  0.3154 -0.1501
 1258loPI   GL120117   7.286   1.893   4.780  0.1246  0.1903 -0.2523
 1258loPI   GL220118   7.235   2.147   5.037 -0.0389 -0.1668 -0.0096
 1258loPI   C1A20119   7.403   1.696   5.218 -0.0171  0.0332 -0.1325
 1258loPI   C2A20120   7.527   1.744   5.627 -0.0302  0.1102 -0.0857
 1258loPI   C3A20121   7.420   1.688   6.006  0.0302  0.0940 -0.2174
 1258loPI   C4A20122   7.102   1.700   6.263  0.1197 -0.1916 -0.0438
 1258loPI   C5A20123   6.893   1.591   6.698 -0.3459 -0.0733 -0.3072
 1258loPI   C6A20124   6.851   1.811   7.067  0.1540  0.0159  0.1257
 1258loPI   C1B20125   7.412   2.196   5.461  0.1487 -0.0708 -0.0123
 1258loPI   C2B20126   7.478   2.180   5.888 -0.2437 -0.0931 -0.2499
 1258loPI   C3B20127   7.372   2.330   6.276 -0.1958 -0.1966  0.2990
 1258loPI   C4B20128   6.974   2.084   6.535 -0.1706 -0.0011  0.1368
 1259loPI    C120129   6.370  12.908   4.753 -0.0476 -0.0168 -0.1359
 1259loPI    C220130   6.360  13.115   4.411  0.0444 -0.0427 -0.1543
 1259loPI    C320131   6.702  12.947   4.534  0.0756  0.1870  0.0819
 1259loPI   PO420132   6.313  12.898   4.922  0.2044  0.0337  0.1423
 1259loPI   GL120133   6.260  12.752   5.383  0.0066 -0.1010  0.1705
 1259loPI   GL220134   6.160  13.167   5.364  0.2988  0.0176 -0.3823
 1259loPI   C1A20135   6.164  12.936   5.824  0.1931 -0.0620  0.1263
 1259loPI   C2A20136   6.370  12.914   6.209 -0.0867  0.0343 -0.3156
 1259loPI   C3A20137   6.431  13.232   6.585 -0.0412  0.0749  0.0015
 1259loPI   C4A20138   6.528  13.265   7.046  0.3536  0.0681  0.1029
 1259loPI   C5A20139   6.244  13.247   7.349 -0.3579  0.1751 -0.0350
 1259loPI   C6A20140   6.100  13.308   7.820  0.1184 -0.1503  0.3325
 1259loPI   C1B20141   5.763  13.204   5.621  0.2456  0.0228  0.4404
 1259loPI   C2B20142   5.616  13.116   5.949  0.1010  0.2216 -0.0066
 1259loPI   C3B20143   5.486  13.268   6.359  0.1827  0.0697  0.1473
 1259loPI   C4B20144   5.526  13.413   6.785 -0.1628 -0.2422  0.2115
 1260loPI    C120145  10.415  12.993   5.036  0.0552  0.1868  0.1341
 1260loPI    C220146  10.017  12.954   5.041  0.0804 -0.0919  0.1201
 1260loPI    C320147  10.201  13.080   4.709 -0.0016  0.1103  0.1505
 1260loPI   PO420148  10.469  13.036   5.294 -0.0168  0.0104  0.1768
 1260loPI   GL120149  10.608  12.816   5.619 -0.2508  0.1475  0.1883
 1260loPI   GL220150  10.918  12.862   5.408  0.1417  0.1607 -0.1093
 1260loPI   C1A20151  10.761  12.882   6.135 -0.2008  0.1216 -0.0567
 1260loPI   C2A20152  10.843  12.776   6.643  0.2168 -0.0542 -0.1748
 1260loPI   C3A20153  10.758  12.700   7.057 -0.1060  0.2186 -0.2034
 1260loPI   C4A20154  11.028  12.774   7.370 -0.0115 -0.1334  0.0870
 1260loPI   C5A20155  11.439  12.860   7.383  0.0876 -0.0098 -0.1578
 1260loPI   C6A20156  11.765  13.089   7.149  0.0032  0.3808 -0.2366
 1260loPI   C1B20157  11.174  12.772   5.735  0.1410  0.2260 -0.1243
 1260loPI   C2B20158  11.403  12.887   6.102 -0.0459  0.0072 -0.0629
 1260loPI   C3B20159  11.358  12.854   6.541 -0.0636  0.0893  0.1180
 1260loPI   C4B20160  11.281  12.632   6.963  0.0043 -0.2149 -0.1995
 1261loPI    C120161  11.743  15.204   4.716  0.3915 -0.1919  0.2453
 1261loPI    C220162  11.597  14.831   4.721  0.0933 -0.0771  0.3101
 1261loPI    C320163  11.698  15.002   4.373 -0.0058 -0.1287  0.2555
 1261loPI   PO420164  11.970  15.256   4.879  0.1380 -0.4054 -0.0887
 1261loPI   GL120165  12.022  15.449   5.169 -0.1618  0.2556  0.0248
 1261loPI   GL220166  12.024  15.695   5.234  0.0687 -0.2217 -0.1315
 1261loPI   C1A20167  12.349  15.247   5.410  0.0090  0.1332  0.0722
 1261loPI   C2A20168  12.443  15.354   5.851  0.0128  0.1929  0.1708
 1261loPI   C3A20169  12.478  15.337   6.196  0.0130  0.0391 -0.0533
 1261loPI   C4A20170  12.695  15.398   6.528 -0.1691 -0.1796  0.2772
 1261loPI   C5A20171  12.930  15.772   6.823  0.1030 -0.2268  0.0193
 1261loPI   C6A20172  13.261  16.141   6.917  0.0511  0.1568  0.0201
 1261loPI   C1B20173  11.961  15.566   5.706 -0.1161  0.2826  0.1666
 1261loPI   C2B20174  11.987  15.708   6.068  0.5307 -0.1898 -0.0300
 1261loPI   C3B20175  12.066  15.667   6.556 -0.4192 -0.1619 -0.1162
 1261loPI   C4B20176  12.415  15.652   6.843  0.1195  0.1544 -0.0155
 1262loPI    C120177  12.705  13.502   4.090 -0.0595  0.2206  0.1354
 1262loPI    C220178  13.048  13.531   3.887  0.0215  0.1120  0.2551
 1262loPI    C320179  12.853  13.183   3.900 -0.1109  0.1817  0.1602
 1262loPI   PO420180  12.773  13.522   4.374 -0.1676  0.5435  0.4235
 1262loPI   GL120181  12.795  13.668   4.665  0.0943 -0.2117 -0.1960
 1262loPI   GL220182  12.450  13.576   4.830 -0.3635 -0.3453  0.0096
 1262loPI   C1A20183  12.916  13.800   5.137 -0.2371  0.1393  0.0286
 1262loPI   C2A20184  13.130  13.945   5.457  0.1328 -0.1762  0.2398
 1262loPI   C3A20185  13.464  13.777   5.869  0.1111  0.2367 -0.1089
 1262loPI   C4A20186  13.358  13.589   6.242 -0.3812 -0.1590 -0.1857
 1262loPI   C5A20187  13.441  13.694   6.670 -0.0740 -0.2060  0.2074
 1262loPI   C6A20188  13.857  13.819   6.808  0.2102 -0.0245 -0.2787
 1262loPI   C1B20189  12.555  13.402   5.138  0.0417 -0.2535 -0.2506
 1262loPI   C2B20190  12.718  13.328   5.613 -0.2042 -0.0634  0.0420
 1262loPI   C3B20191  12.481  13.165   5.944  0.2824  0.2467 -0.1773
 1262loPI   C4B20192  12.235  12.943   6.358 -0.2471  0.0577  0.0946
 1263loPI    C120193  10.314  12.118   4.688 -0.1820 -0.0195  0.0335
 1263loPI    C220194  10.623  12.175   4.440 -0.1718 -0.0772  0.0328
 1263loPI    C320195  10.283  12.377   4.385 -0.0395  0.1964  0.2006
 1263loPI   PO420196  10.444  11.897   4.918 -0.2602 -0.1152  0.1559
 1263loPI   GL120197  10.786  11.880   5.127  0.1938  0.4981 -0.3658
 1263loPI   GL220198  10.532  12.027   5.396  0.1643 -0.0427  0.2159
 1263loPI   C1A20199  11.083  11.910   5.610 -0.2707 -0.1401 -0.3897
 1263loPI   C2A20200  11.329  11.887   6.086  0.1487  0.1185  0.1213
 1263loPI   C3A20201  11.713  11.934   6.383  0.2909  0.1244  0.2139
 1263loPI   C4A20202  11.888  11.839   6.759 -0.0533 -0.1668  0.2138
 1263loPI   C5A20203  11.688  11.761   7.094  0.0327  0.1370 -0.1423
 1263loPI   C6A20204  11.416  11.910   7.390  0.2001 -0.1363  0.1914
 1263loPI   C1B20205  10.531  11.929   5.840  0.0647  0.1199  0.3369
 1263loPI   C2B20206  10.770  12.003   6.120 -0.0560 -0.1086 -0.1846
 1263loPI   C3B20207  10.992  11.861   6.527  0.0870 -0.2090  0.1930
 1263loPI   C4B20208  11.109  11.727   6.852 -0.1347 -0.0931 -0.1581
 1264loPI    C120209  19.267   6.986   4.183  0.1595 -0.1108  0.1006
 1264loPI    C220210  19.573   6.995   3.925 -0.0808  0.0978 -0.1832
 1264loPI    C320211  19.200   7.057   3.796 -0.2485 -0.1660  0.1571
 1264loPI   PO420212  19.303   7.195   4.366  0.1851  0.5525 -0.2106
 1264loPI   GL120213  19.430   7.370   4.832 -0.2994 -0.0152  0.2756
 1264loPI   GL220214  19.141   7.488   4.809  0.2201  0.4211  0.3717
 1264loPI   C1A20215  19.448   7.429   5.271 -0.2076  0.0640  0.1406
 1264loPI   C2A20216  19.394   7.244   5.704  0.2228  0.3703 -0.2275
 1264loPI   C3A20217  19.430   7.236   6.150  0.2298  0.1762  0.0560
 1264loPI   C4A20218  19.588   7.127   6.453 -0.3831 -0.1094 -0.3751
 1264loPI   C5A20219  19.498   7.055   6.844 -0.0322  0.3468 -0.3483
 1264loPI   C6A20220  19.604   6.662   7.061  0.1736 -0.2804  0.0099
 1264loPI   C1B20221  18.897   7.509   5.104  0.1663 -0.0714  0.0432
 1264loPI   C2B20222  18.821   7.845   5.151  0.1005  0.3793  0.0801
 1264loPI   C3B20223  18.934   8.173   5.071  0.3302 -0.1748 -0.0850
 1264loPI   C4B20224  19.239   8.434   5.112 -0.0762 -0.1432 -0.2764
 1265loPI    C120225   0.931  12.393   4.311 -0.1747  0.0118  0.0796
 1265loPI    C220226   0.980  12.025   4.161 -0.2184  0.0212  0.0417
 1265loPI    C320227   0.614  12.185   4.183 -0.2192 -0.0016  0.2099
 1265loPI   PO420228   1.162  12.536   4.511 -0.2458 -0.1049 -0.2347
 1265loPI   GL120229   1.379  12.689   4.858 -0.3041 -0.2810 -0.1058
 1265loPI   GL220230   1.620  12.531   4.870 -0.1527  0.0882  0.0905
 1265loPI   C1A20231   1.160  12.603   5.254 -0.1357  0.1771 -0.3241
 1265loPI   C2A20232   0.949  12.208   5.432  0.2199 -0.0026  0.2416
 1265loPI   C3A20233   0.722  11.918   5.560 -0.1357  0.3055  0.1109
 1265loPI   C4A20234   0.650  11.539   5.799  0.0115 -0.4823 -0.0690
 1265loPI   C5A20235   0.654  11.136   5.774 -0.3882  0.1618 -0.2232
 1265loPI   C6A20236   0.593  10.745   6.017  0.2642  0.1630 -0.0348
 1265loPI   C1B20237   1.651  12.717   5.253 -0.1157 -0.0758  0.3376
 1265loPI   C2B20238   1.493  12.876   5.589  0.0103  0.0491  0.2996
 1265loPI   C3B20239   1.212  12.870   5.940 -0.2585 -0.1744  0.1620
 1265loPI   C4B20240   0.750  12.810   6.301 -0.1856  0.2535 -0.2848
 1266loPI    C120241   3.233  12.046   4.358  0.1272 -0.1165 -0.0226
 1266loPI    C220242   2.842  11.974   4.400  0.1044 -0.0029 -0.0380
 1266loPI    C320243   3.006  11.976   4.036  0.0650  0.2240 -0.0564
 1266loPI   PO420244   3.332  12.116   4.612 -0.2560 -0.2350 -0.3260
 1266loPI   GL120245   3.121  12.060   5.032 -0.1220  0.0730  0.1965
 1266loPI   GL220246   2.941  12.218   5.174 -0.2470  0.2156 -0.0516
 1266loPI   C1A20247   2.843  11.749   5.364  0.0319 -0.0220 -0.0835
 1266loPI   C2A20248   2.654  11.714   5.718 -0.5216 -0.2299  0.0073
 1266loPI   C3A20249   2.404  11.677   6.140  0.0021 -0.1220 -0.1593
 1266loPI   C4A20250   2.279  11.813   6.479 -0.1788  0.0654 -0.4800
 1266loPI   C5A20251   2.012  12.023   6.876  0.2316 -0.2371 -0.1132
 1266loPI   C6A20252   1.969  12.434   6.947  0.0995  0.4707 -0.0024
 1266loPI   C1B20253   3.274  12.414   5.406 -0.0044  0.1327 -0.1660
 1266loPI   C2B20254   3.442  12.739   5.553 -0.0277  0.0063 -0.1331
 1266loPI   C3B20255   3.475  12.984   5.842 -0.0272 -0.0213  0.1883
 1266loPI   C4B20256   3.395  13.296   6.009  0.0348  0.2523  0.0420
 1267loPI    C120257   6.238  18.568   5.112 -0.0889 -0.2585 -0.0781
 1267loPI    C220258   6.286  18.302   4.817 -0.2244 -0.1486 -0.2006
 1267loPI    C320259   6.246  18.177   5.195  0.3291 -0.2757 -0.1749
 1267loPI   PO420260   6.089  18.714   5.066  0.1133  0.0944  0.1191
 1267loPI   GL120261   5.781  18.934   5.186 -0.2156 -0.0120  0.0040
 1267loPI   GL220262   5.985  19.305   5.194 -0.0129 -0.0011  0.0665
 1267loPI   C1A20263   5.475  18.988   5.567  0.0243  0.5049  0.3740
 1267loPI   C2A20264   5.374  18.854   6.012  0.1925 -0.0982 -0.2967
 1267loPI   C3A20265   5.158  18.884   6.355  0.1834 -0.1075 -0.0830
 1267loPI   C4A20266   5.240  18.737   6.808  0.1778  0.2035  0.2862
 1267loPI   C5A20267   5.420  18.796   7.211 -0.2453  0.2079 -0.4000
 1267loPI   C6A20268   5.675  18.741   7.625 -0.2545  0.2007  0.2976
 1267loPI   C1B20269   5.841  19.277   5.679 -0.0858  0.2069  0.0200
 1267loPI   C2B20270   5.848  19.192   6.084  0.1047 -0.3013  0.3378
 1267loPI   C3B20271   5.876  19.394   6.485  0.2563  0.3906  0.0220
 1267loPI   C4B20272   5.774  19.629   6.806 -0.1220 -0.0895  0.0514
 1268loPI    C120273   3.145  14.783   4.828 -0.2227  0.0549  0.1259
 1268loPI    C220274   3.431  14.542   4.685 -0.2126  0.0865  0.0926
 1268loPI    C320275   3.054  14.505   4.555 -0.2048  0.1106  0.0628
 1268loPI   PO420276   3.288  14.708   5.134  0.0516 -0.2473 -0.0178
 1268loPI   GL120277   3.651  14.482   5.446  0.0917  0.0931  0.2540
 1268loPI   GL220278   3.671  14.911   5.459  0.0017 -0.2437 -0.2669
 1268loPI   C1A20279   3.840  14.343   5.820  0.0519 -0.0334  0.0812
 1268loPI   C2A20280   3.946  14.240   6.253  0.1383  0.2391 -0.0171
 1268loPI   C3A20281   3.872  13.964   6.599 -0.2587 -0.0566 -0.0773
 1268loPI   C4A20282   3.877  13.632   6.879  0.0729  0.1069 -0.1118
 1268loPI   C5A20283   3.683  13.231   6.965 -0.0871 -0.1918 -0.2134
 1268loPI   C6A20284   3.950  12.913   7.254 -0.0914 -0.0841  0.2610
 1268loPI   C1B20285   3.472  14.724   5.874 -0.1199  0.0080 -0.0628
 1268loPI   C2B20286   3.595  14.575   6.248  0.1586  0.2224 -0.0318
 1268loPI   C3B20287   3.552  14.471   6.673 -0.0048  0.1408 -0.2363
 1268loPI   C4B20288   3.810  14.267   7.014  0.1391 -0.1914  0.2453
 1269loPI    C120289   9.546   9.083   4.817  0.0230 -0.2715  0.1702
 1269loPI    C220290   9.500   8.858   4.490 -0.2265  0.2171 -0.1438
 1269loPI    C320291   9.838   9.064   4.544 -0.1313  0.0317 -0.0217
 1269loPI   PO420292   9.670   8.905   5.111 -0.0834 -0.0282 -0.3113
 1269loPI   GL120293   9.778   8.812   5.442 -0.0398 -0.4299  0.0547
 1269loPI   GL220294  10.126   8.742   5.388  0.3743  0.2979 -0.0137
 1269loPI   C1A20295   9.425   8.886   5.699  0.0066  0.3836 -0.1141
 1269loPI   C2A20296   9.160   9.087   6.082 -0.0977  0.1885  0.2955
 1269loPI   C3A20297   8.755   8.949   6.376 -0.3240  0.1807 -0.0131
 1269loPI   C4A20298   8.557   8.837   6.762 -0.0673 -0.0758 -0.1290
 1269loPI   C5A20299   8.354   9.171   7.063  0.1836  0.0461  0.0455
 1269loPI   C6A20300   8.576   9.506   7.299  0.1046 -0.0187 -0.0705
 1269loPI   C1B20301  10.043   8.802   5.828  0.0568 -0.2961  0.1297
 1269loPI   C2B20302  10.277   8.908   6.294  0.0613 -0.2883 -0.0529
 1269loPI   C3B20303  10.607   8.792   6.530  0.0024 -0.1701  0.0199
 1269loPI   C4B20304  11.017   8.903   6.736  0.0222  0.2428  0.3105
 1270loPI    C120305  10.054   9.856   4.669  0.2718  0.1856  0.0051
 1270loPI    C220306   9.771  10.012   4.434  0.3592 -0.1224 -0.3135
 1270loPI    C320307   9.855  10.183   4.786 -0.0814  0.0880 -0.3029
 1270loPI   PO420308  10.044   9.556   4.701 -0.0526 -0.2542  0.1751
 1270loPI   GL120309   9.978   9.371   5.097  0.1097 -0.1345 -0.0712
 1270loPI   GL220310  10.155   9.134   5.121  0.0637 -0.0330  0.2217
 1270loPI   C1A20311   9.878   9.649   5.417  0.0225 -0.2446 -0.1920
 1270loPI   C2A20312  10.020  10.046   5.603  0.0289 -0.0053 -0.0636
 1270loPI   C3A20313   9.860  10.234   6.032  0.0036  0.0121 -0.0940
 1270loPI   C4A20314   9.767  10.623   6.291 -0.1801  0.1060 -0.0793
 1270loPI   C5A20315   9.437  10.983   6.379 -0.0114 -0.3440 -0.2997
 1270loPI   C6A20316   9.289  11.284   6.619 -0.1187 -0.2396  0.2249
 1270loPI   C1B20317  10.223   9.232   5.567 -0.0889 -0.0590 -0.1369
 1270loPI   C2B20318  10.180   9.322   5.948  0.0354 -0.2745  0.1885
 1270loPI   C3B20319  10.055   9.382   6.334 -0.3807  0.0428  0.3955
 1270loPI   C4B20320  10.102   9.107   6.748 -0.0622  0.1371  0.0153
 1271loPI    C120321   7.445  17.560   5.086 -0.0582 -0.2018 -0.4247
 1271loPI    C220322   7.616  17.922   5.076  0.0094 -0.2232 -0.1295
 1271loPI    C320323   7.332  17.828   4.811 -0.3062  0.1969  0.0477
 1271loPI   PO420324   7.723  17.377   5.160 -0.1689 -0.0693 -0.1656
 1271loPI   GL120325   7.726  17.325   5.592  0.0173  0.0579 -0.3949
 1271loPI   GL220326   7.570  17.727   5.557  0.0549 -0.1162 -0.1176
 1271loPI   C1A20327   8.038  17.408   5.787  0.1164 -0.0119  0.1125
 1271loPI   C2A20328   8.067  17.843   5.921 -0.1346 -0.0850  0.1495
 1271loPI   C3A20329   8.004  18.206   5.948 -0.3652  0.0982  0.2466
 1271loPI   C4A20330   8.088  18.575   6.245 -0.1058  0.1361 -0.2596
 1271loPI   C5A20331   8.062  18.762   6.586  0.1466  0.1425  0.0713
 1271loPI   C6A20332   8.190  19.112   6.802  0.0410  0.1109  0.0877
 1271loPI   C1B20333   7.439  17.606   5.949  0.0596 -0.3975  0.0460
 1271loPI   C2B20334   7.397  17.601   6.415 -0.2035 -0.2637  0.1234
 1271loPI   C3B20335   7.514  17.775   6.835  0.0487 -0.0540  0.4870
 1271loPI   C4B20336   7.805  17.913   7.050  0.2143 -0.0851 -0.2697
 1272loPI    C120337  19.619  15.619   4.064  0.0709  0.0681  0.1246
 1272loPI    C220338  19.941  15.407   3.960  0.0706  0.1197  0.0183
 1272loPI    C320339  19.585  15.323   3.798  0.0999  0.3036 -0.1451
 1272loPI   PO420340  19.664  15.649   4.336  0.1328  0.3510  0.1225
 1272loPI   GL120341  19.871  15.876   4.654  0.0970  0.0210 -0.1765
 1272loPI   GL220342  19.531  15.977   4.730 -0.1565 -0.1374  0.2832
 1272loPI   C1A20343  19.867  15.933   5.112  0.1234 -0.1906 -0.2462
 1272loPI   C2A20344  19.947  15.643   5.476 -0.0369  0.0916 -0.0657
 1272loPI   C3A20345  19.992  15.209   5.828 -0.0791 -0.0926 -0.1750
 1272loPI   C4A20346  19.964  15.153   6.347 -0.3897 -0.2198  0.2217
 1272loPI   C5A20347  19.994  14.808   6.701  0.1918  0.0211  0.2786
 1272loPI   C6A20348  19.757  14.515   6.947  0.2026  0.0369 -0.0162
 1272loPI   C1B20349  19.260  15.739   5.072 -0.0167 -0.0427  0.1223
 1272loPI   C2B20350  19.174  15.717   5.534 -0.2639 -0.1486 -0.3687
 1272loPI   C3B20351  19.447  15.683   5.886  0.1297 -0.2259 -0.0000
 1272loPI   C4B20352  19.801  15.675   6.041  0.1651  0.4654  0.1144
 1273loPI    C120353  15.854   6.364   4.543  0.0811 -0.0119  0.0281
 1273loPI    C220354  15.883   6.653   4.268  0.2728  0.0561  0.1183
 1273loPI    C320355  16.082   6.310   4.218  0.2190  0.0250  0.1178
 1273loPI   PO420356  15.791   6.574   4.825 -0.0797 -0.2112  0.1849
 1273loPI   GL120357  15.977   6.621   5.184 -0.0596 -0.2600  0.0801
 1273loPI   GL220358  16.181   6.865   4.994 -0.2924 -0.0259  0.0508
 1273loPI   C1A20359  16.337   6.515   5.525 -0.0782 -0.2527 -0.0941
 1273loPI   C2A20360  16.708   6.543   5.822  0.1887 -0.3811  0.2580
 1273loPI   C3A20361  16.691   6.810   6.175  0.1115  0.3381  0.0195
 1273loPI   C4A20362  16.643   6.618   6.485 -0.0253  0.2508  0.0651
 1273loPI   C5A20363  16.645   6.732   6.897 -0.0341 -0.1415  0.2021
 1273loPI   C6A20364  17.038   6.829   7.113  0.0826  0.1286  0.0022
 1273loPI   C1B20365  16.226   7.217   5.279 -0.2446 -0.0486  0.0223
 1273loPI   C2B20366  15.982   7.367   5.609  0.0332  0.3318 -0.1834
 1273loPI   C3B20367  15.531   7.634   5.813 -0.0772  0.3262 -0.0727
 1273loPI   C4B20368  15.500   7.723   6.181  0.1015  0.0607 -0.0377
 1274loPI    C120369  13.979   2.511   4.223 -0.1873 -0.1607  0.1069
 1274loPI    C220370  13.833   2.139   4.251  0.0628 -0.2786 -0.1060
 1274loPI    C320371  13.793   2.345   3.910 -0.2526 -0.0294  0.0752
 1274loPI   PO420372  14.152   2.383   4.492 -0.2789  0.0732  0.0186
 1274loPI   GL120373  14.001   2.508   4.868  0.0513 -0.2485 -0.1598
 1274loPI   GL220374  13.769   2.516   4.996  0.0774 -0.1151  0.1339
 1274loPI   C1A20375  14.279   2.742   5.064  0.1929 -0.1190 -0.1519
 1274loPI   C2A20376  14.338   2.786   5.496  0.0223 -0.4073 -0.0114
 1274loPI   C3A20377  14.165   2.953   5.850  0.2219 -0.0802  0.2093
 1274loPI   C4A20378  14.305   3.017   6.180  0.0867  0.4394  0.1276
 1274loPI   C5A20379  14.524   2.659   6.258  0.0623  0.1169 -0.0325
 1274loPI   C6A20380  14.915   2.437   6.330 -0.1853  0.1101  0.1824
 1274loPI   C1B20381  14.011   2.232   5.317  0.0566 -0.0588  0.0375
 1274loPI   C2B20382  14.323   1.925   5.575  0.1475  0.1941 -0.1973
 1274loPI   C3B20383  14.782   1.790   5.577  0.2058  0.2368 -0.0358
 1274loPI   C4B20384  15.191   1.721   5.561  0.2660 -0.0150 -0.0052
 1275loPI    C120385  14.848   6.582   4.151  0.0266  0.1482  0.0480
 1275loPI    C220386  15.086   6.261   4.158  0.0904  0.1914 -0.0968
 1275loPI    C320387  14.850   6.328   3.842  0.0448  0.2636 -0.0478
 1275loPI   PO420388  14.905   6.690   4.401 -0.0555  0.4192  0.1312
 1275loPI   GL120389  14.754   6.619   4.821 -0.1901  0.0197  0.1614
 1275loPI   GL220390  14.989   6.786   4.971  0.1621  0.2088  0.1721
 1275loPI   C1A20391  14.514   6.531   5.200 -0.1090  0.0601  0.2003
 1275loPI   C2A20392  14.669   6.692   5.695  0.0539 -0.4864  0.0568
 1275loPI   C3A20393  14.663   7.006   5.959  0.0168 -0.2839 -0.1355
 1275loPI   C4A20394  14.889   6.885   6.403  0.4270  0.1087 -0.2487
 1275loPI   C5A20395  15.062   6.663   6.804 -0.0385 -0.0496 -0.0278
 1275loPI   C6A20396  15.441   6.668   7.017  0.0993 -0.1019  0.1687
 1275loPI   C1B20397  14.998   6.526   5.368  0.0741 -0.0352 -0.1929
 1275loPI   C2B20398  15.086   6.518   5.786  0.3270 -0.1303  0.1615
 1275loPI   C3B20399  15.205   6.581   6.266  0.0045 -0.0290 -0.0479
 1275loPI   C4B20400  15.371   6.861   6.481 -0.0919  0.0851  0.0087
 1276loPI    C120401  16.328   2.892   3.850 -0.0639 -0.1411 -0.1179
 1276loPI    C220402  16.007   3.107   3.750 -0.0829 -0.2229 -0.2346
 1276loPI    C320403  16.240   2.952   3.465  0.0383 -0.1969 -0.1504
 1276loPI   PO420404  16.375   2.956   4.077 -0.0599  0.0992 -0.0698
 1276loPI   GL120405  16.427   2.802   4.478  0.1420  0.2185  0.3943
 1276loPI   GL220406  16.491   3.124   4.557 -0.3030 -0.0718  0.4653
 1276loPI   C1A20407  16.229   2.740   4.893 -0.0415 -0.0589 -0.0888
 1276loPI   C2A20408  16.368   2.682   5.313 -0.1969  0.3628 -0.1582
 1276loPI   C3A20409  16.376   2.422   5.707 -0.0303 -0.2528  0.3294
 1276loPI   C4A20410  16.352   2.512   6.158  0.0105 -0.0303 -0.1861
 1276loPI   C5A20411  16.552   2.849   6.437 -0.1888 -0.1561 -0.0677
 1276loPI   C6A20412  16.707   3.248   6.531  0.0095 -0.0842  0.1519
 1276loPI   C1B20413  16.741   2.901   4.968 -0.2287  0.0141 -0.1632
 1276loPI   C2B20414  17.029   2.767   5.309  0.2386 -0.4238 -0.0370
 1276loPI   C3B20415  17.268   2.572   5.612 -0.0926 -0.0728 -0.2706
 1276loPI   C4B20416  17.368   2.492   6.058 -0.0446  0.3147 -0.0107
 1277loPI    C120417   9.691   5.592   4.419  0.3148  0.0840 -0.0719
 1277loPI    C220418   9.806   5.338   4.132 -0.0335 -0.0568 -0.0919
 1277loPI    C320419   9.594   5.665   4.038 -0.0935 -0.0697 -0.0035
 1277loPI   PO420420   9.633   5.371   4.674 -0.0128 -0.0910  0.1361
 1277loPI   GL120421   9.459   5.450   5.059  0.0331 -0.0777 -0.1422
 1277loPI   GL220422   9.128   5.371   5.092  0.2607  0.1207 -0.2461
 1277loPI   C1A20423   9.476   5.166   5.433 -0.2489 -0.1366  0.2081
 1277loPI   C2A20424   9.281   5.060   5.862 -0.2154  0.1550 -0.0214
 1277loPI   C3A20425   9.084   5.288   6.212  0.4972  0.2698 -0.0132
 1277loPI   C4A20426   9.166   5.252   6.644 -0.0013  0.1299 -0.0680
 1277loPI   C5A20427   9.123   4.967   6.999  0.2541 -0.0513 -0.0513
 1277loPI   C6A20428   9.325   4.797   7.233  0.3245  0.0981  0.1072
 1277loPI   C1B20429   9.168   5.483   5.627 -0.0288  0.0547  0.2743
 1277loPI   C2B20430   9.036   5.719   5.983 -0.1195 -0.0928  0.3165
 1277loPI   C3B20431   9.310   5.785   6.297  0.2167  0.4484 -0.1708
 1277loPI   C4B20432   9.223   5.784   6.732  0.3052 -0.1507  0.2090
 1278loPI    C120433  19.107   5.608   3.963  0.1162 -0.1273  0.0893
 1278loPI    C220434  18.810   5.811   3.786 -0.0605 -0.1931  0.3051
 1278loPI    C320435  19.047   5.572   3.569 -0.0351  0.0162  0.0979
 1278loPI   PO420436  19.045   5.603   4.186 -0.2211 -0.0960  0.0953
 1278loPI   GL120437  18.775   5.784   4.615 -0.0762 -0.0486  0.1139
 1278loPI   GL220438  18.544   5.596   4.774 -0.0174  0.0255 -0.1373
 1278loPI   C1A20439  19.011   5.920   4.887  0.2473  0.2034  0.0275
 1278loPI   C2A20440  19.054   6.158   5.244  0.1817  0.3328  0.1653
 1278loPI   C3A20441  19.009   6.090   5.692 -0.1030 -0.0679 -0.0392
 1278loPI   C4A20442  18.971   5.929   6.050 -0.1969  0.0149 -0.0503
 1278loPI   C5A20443  19.267   5.823   6.507 -0.1706  0.1403 -0.0896
 1278loPI   C6A20444  19.770   5.535   6.617 -0.2278 -0.1767 -0.0186
 1278loPI   C1B20445  18.552   5.323   5.178  0.0549 -0.4488  0.0905
 1278loPI   C2B20446  18.537   5.192   5.629  0.1211 -0.2169  0.0269
 1278loPI   C3B20447  18.452   5.414   6.056  0.0381  0.4286 -0.0465
 1278loPI   C4B20448  18.486   5.822   6.278 -0.2341  0.0477 -0.0173
 1279loPI    C120449   1.309  10.166   4.040 -0.1915 -0.0233  0.0167
 1279loPI    C220450   1.242  10.387   3.714  0.0719 -0.1635 -0.1357
 1279loPI    C320451   1.605  10.231   3.779  0.0314 -0.1088  0.2435
 1279loPI   PO420452   1.230  10.342   4.256 -0.0819  0.0032  0.1147
 1279loPI   GL120453   1.071  10.484   4.612  0.0123 -0.0066 -0.1752
 1279loPI   GL220454   1.467  10.683   4.632  0.0537  0.0728 -0.3785
 1279loPI   C1A20455   1.225  10.266   4.964 -0.0453  0.3969  0.0554
 1279loPI   C2A20456   1.225  10.385   5.407 -0.0004  0.1737 -0.0559
 1279loPI   C3A20457   1.392  10.391   5.821  0.1555  0.1513 -0.2697
 1279loPI   C4A20458   1.458  10.338   6.171 -0.0762 -0.1232 -0.1729
 1279loPI   C5A20459   1.802  10.419   6.445 -0.0267 -0.1384 -0.0262
 1279loPI   C6A20460   2.150  10.725   6.545 -0.1288 -0.6181  0.0131
 1279loPI   C1B20461   1.316  10.757   5.037 -0.2290 -0.3060  0.2430
 1279loPI   C2B20462   1.333  10.968   5.453  0.0309  0.1305  0.1217
 1279loPI   C3B20463   1.484  10.969   5.831  0.4026 -0.2267  0.2870
 1279loPI   C4B20464   1.686  10.913   6.166  0.3526  0.1645 -0.1380
 1280loPI    C120465  16.771   1.805   4.019  0.1206 -0.1029  0.0412
 1280loPI    C220466  16.684   1.783   3.629 -0.1280 -0.2556  0.1027
 1280loPI    C320467  16.757   2.138   3.798  0.0380 -0.1946 -0.0934
 1280loPI   PO420468  17.023   1.660   4.072 -0.1103 -0.0066  0.0715
 1280loPI   GL120469  17.107   1.472   4.460  0.0652 -0.0093  0.2457
 1280loPI   GL220470  17.203   1.739   4.490  0.0726  0.2253  0.1012
 1280loPI   C1A20471  17.340   1.519   4.963 -0.0739 -0.0065  0.0005
 1280loPI   C2A20472  17.129   1.592   5.293 -0.0614  0.0993  0.2871
 1280loPI   C3A20473  16.901   1.813   5.649 -0.4431 -0.0470  0.0110
 1280loPI   C4A20474  16.671   1.819   5.989  0.0222 -0.2730  0.1082
 1280loPI   C5A20475  16.605   1.987   6.385 -0.1483  0.1560 -0.4903
 1280loPI   C6A20476  16.826   1.927   6.646 -0.0581 -0.2659  0.1373
 1280loPI   C1B20477  16.872   1.746   4.791  0.0725  0.0571  0.2719
 1280loPI   C2B20478  16.673   1.784   5.176 -0.0519  0.0913  0.0827
 1280loPI   C3B20479  16.574   1.405   5.440 -0.0043 -0.1399 -0.0309
 1280loPI   C4B20480  16.428   1.036   5.671  0.3002 -0.0885 -0.1584
 1281loPI    C120481   0.717   9.474   4.484 -0.0513  0.1200 -0.0176
 1281loPI    C220482   0.491   9.793   4.398 -0.0978  0.0358 -0.2127
 1281loPI    C320483   0.531   9.498   4.130 -0.1333 -0.1679  0.0035
 1281loPI   PO420484   0.900   9.498   4.608 -0.1590 -0.2582 -0.1284
 1281loPI   GL120485   0.817   9.649   5.128 -0.0971 -0.0210  0.2084
 1281loPI   GL220486   1.137   9.759   4.982  0.2183  0.0534  0.0322
 1281loPI   C1A20487   0.962   9.956   5.392  0.0873  0.0716 -0.3626
 1281loPI   C2A20488   1.272   9.925   5.697 -0.0063 -0.1982 -0.1161
 1281loPI   C3A20489   1.509   9.748   5.849 -0.1170 -0.0143 -0.0667
 1281loPI   C4A20490   1.437   9.460   6.071 -0.1816 -0.1402 -0.0461
 1281loPI   C5A20491   1.264   9.314   6.300  0.0107  0.2240 -0.0225
 1281loPI   C6A20492   1.046   9.051   6.424  0.1982  0.2744  0.1408
 1281loPI   C1B20493   1.487   9.918   5.236  0.1963 -0.0885 -0.0751
 1281loPI   C2B20494   1.702  10.069   5.549 -0.1910 -0.2967 -0.0052
 1281loPI   C3B20495   2.162  10.229   5.375 -0.3713  0.0117  0.0483
 1281loPI   C4B20496   2.200  10.308   5.082  0.0312  0.1914 -0.1257
 1282loPI    C120497   3.013   3.422   4.714  0.0107  0.0086  0.0611
 1282loPI    C220498   3.257   3.707   4.575 -0.1169  0.1788  0.1828
 1282loPI    C320499   3.038   3.490   4.320 -0.0263  0.1948  0.0905
 1282loPI   PO420500   3.074   3.250   4.928  0.1006  0.0891  0.1017
 1282loPI   GL120501   3.128   3.370   5.308  0.0731 -0.3493 -0.2368
 1282loPI   GL220502   3.199   3.717   5.494 -0.1281 -0.0025  0.3907
 1282loPI   C1A20503   2.854   3.314   5.750  0.0251  0.2084 -0.2948
 1282loPI   C2A20504   2.885   3.461   6.146  0.1676 -0.0387 -0.3015
 1282loPI   C3A20505   2.799   3.385   6.565 -0.1108  0.1476 -0.0377
 1282loPI   C4A20506   2.543   3.030   6.708 -0.0866 -0.1387  0.1091
 1282loPI   C5A20507   2.156   2.895   6.893 -0.0807 -0.2366 -0.1204
 1282loPI   C6A20508   1.725   2.750   6.903 -0.1807 -0.0528  0.2589
 1282loPI   C1B20509   2.923   3.838   5.799  0.1942  0.0604  0.1029
 1282loPI   C2B20510   2.528   3.816   6.029 -0.0437 -0.0064  0.2578
 1282loPI   C3B20511   2.403   3.535   6.329 -0.0188  0.2930 -0.1509
 1282loPI   C4B20512   2.333   3.475   6.703  0.3291 -0.0833  0.0232
 1283loPI    C120513   8.545  15.821   4.473  0.1524  0.1387 -0.2104
 1283loPI    C220514   8.567  15.499   4.237  0.0884 -0.0791  0.0753
 1283loPI    C320515   8.889  15.730   4.291  0.1905 -0.2089  0.0265
 1283loPI   PO420516   8.416  15.760   4.687  0.1592 -0.0836 -0.0556
 1283loPI   GL120517   8.086  15.601   4.974 -0.4841 -0.0447 -0.1194
 1283loPI   GL220518   7.779  15.918   5.034 -0.1042 -0.1048 -0.4390
 1283loPI   C1A20519   8.202  15.541   5.397 -0.1479  0.1487  0.0995
 1283loPI   C2A20520   8.188  15.666   5.769  0.0264  0.0484 -0.1102
 1283loPI   C3A20521   8.297  15.801   6.175 -0.0872 -0.2298  0.1191
 1283loPI   C4A20522   8.555  15.899   6.517 -0.0420  0.1543  0.0963
 1283loPI   C5A20523   8.846  15.940   6.775  0.1357 -0.0316  0.0160
 1283loPI   C6A20524   8.788  16.211   7.071  0.2667 -0.0521  0.1275
 1283loPI   C1B20525   7.722  15.796   5.541  0.1160  0.0110 -0.0176
 1283loPI   C2B20526   7.707  15.823   5.899  0.2145  0.3110  0.3036
 1283loPI   C3B20527   7.693  15.991   6.221  0.0416 -0.2217  0.4267
 1283loPI   C4B20528   7.605  15.928   6.636  0.3598  0.0084 -0.1409
 1284loPI    C120529  18.153   8.125   3.571 -0.0419  0.1575  0.0634
 1284loPI    C220530  18.407   8.411   3.451  0.2312 -0.1334 -0.0662
 1284loPI    C320531  18.494   8.026   3.387 -0.1337 -0.2492  0.1043
 1284loPI   PO420532  18.060   8.125   3.872 -0.0367  0.1051  0.3735
 1284loPI   GL120533  18.152   7.850   4.162 -0.1860 -0.0686 -0.1915
 1284loPI   GL220534  17.817   7.761   4.219 -0.0629  0.0730  0.1922
 1284loPI   C1A20535  18.263   8.161   4.463 -0.1454  0.1609 -0.1859
 1284loPI   C2A20536  18.401   8.244   4.923 -0.3107  0.0916 -0.0467
 1284loPI   C3A20537  18.487   8.155   5.348  0.0067 -0.1165  0.1340
 1284loPI   C4A20538  18.800   8.097   5.585 -0.1181  0.1302 -0.1028
 1284loPI   C5A20539  18.972   8.085   5.972  0.3841 -0.1095  0.1286
 1284loPI   C6A20540  18.853   8.122   6.397 -0.3243 -0.2050 -0.0428
 1284loPI   C1B20541  18.070   7.615   4.672  0.0057  0.1269  0.2652
 1284loPI   C2B20542  17.917   7.425   4.923 -0.1634  0.0727 -0.0307
 1284loPI   C3B20543  18.004   7.399   5.367  0.0335 -0.1718  0.0437
 1284loPI   C4B20544  17.863   7.332   5.826  0.1956  0.1711 -0.1814
 1285loPI    C120545   5.647  15.965   4.539  0.2503 -0.1482 -0.1085
 1285loPI    C220546   5.311  15.853   4.353 -0.0050 -0.0629  0.2898
 1285loPI    C320547   5.562  16.109   4.176 -0.1876 -0.0666  0.0216
 1285loPI   PO420548   5.546  15.981   4.780  0.1166 -0.0155 -0.3112
 1285loPI   GL120549   5.709  16.020   5.173  0.0791 -0.0354 -0.0871
 1285loPI   GL220550   5.694  16.301   5.378  0.0059  0.2532 -0.1867
 1285loPI   C1A20551   5.805  15.879   5.537 -0.3027 -0.4612 -0.1168
 1285loPI   C2A20552   5.561  15.917   5.958 -0.1501 -0.4667  0.1664
 1285loPI   C3A20553   5.791  15.837   6.391 -0.2947 -0.5931  0.3069
 1285loPI   C4A20554   5.706  15.703   6.849 -0.1238  0.0450  0.0753
 1285loPI   C5A20555   5.565  15.421   7.168  0.0113  0.0573  0.0501
 1285loPI   C6A20556   5.572  15.038   7.127 -0.1937  0.0542 -0.2195
 1285loPI   C1B20557   5.898  16.453   5.820  0.2044  0.1138  0.1854
 1285loPI   C2B20558   5.824  16.382   6.222  0.2755 -0.1644 -0.2797
 1285loPI   C3B20559   5.711  16.293   6.674 -0.0933  0.0139  0.1725
 1285loPI   C4B20560   5.498  16.458   6.983 -0.1749  0.2360  0.2295
 1286loPI    C120561   0.372  12.855   4.206  0.0399 -0.1841  0.0513
 1286loPI    C220562   0.671  12.689   3.998  0.1028  0.1844 -0.1612
 1286loPI    C320563   0.412  12.933   3.815  0.0348  0.3509  0.1503
 1286loPI   PO420564   0.405  12.632   4.402  0.0072  0.1751  0.1533
 1286loPI   GL120565   0.295  12.572   4.792 -0.2053 -0.3175 -0.1084
 1286loPI   GL220566   0.381  12.903   4.784 -0.1771  0.0284 -0.1089
 1286loPI   C1A20567  -0.102  12.723   4.982 -0.1272 -0.1169 -0.0638
 1286loPI   C2A20568  -0.419  12.521   5.147  0.2098  0.2753 -0.2683
 1286loPI   C3A20569  -0.619  12.173   5.471 -0.0936 -0.1336 -0.0289
 1286loPI   C4A20570  -0.311  12.046   5.733 -0.0221 -0.1992 -0.2707
 1286loPI   C5A20571  -0.180  11.786   5.963  0.1553  0.1256 -0.1454
 1286loPI   C6A20572   0.120  11.591   5.993 -0.0133  0.0745 -0.0212
 1286loPI   C1B20573   0.330  13.112   5.139  0.0718 -0.1461 -0.0563
 1286loPI   C2B20574   0.330  13.081   5.590  0.1966 -0.2476 -0.0916
 1286loPI   C3B20575   0.033  13.233   5.949 -0.1305  0.0824  0.0908
 1286loPI   C4B20576  -0.330  13.251   6.241  0.2153  0.1920 -0.0226
 1287loPI    C120577   8.842  15.044   4.758 -0.2022  0.0770  0.0399
 1287loPI    C220578   9.010  14.864   4.443 -0.1242 -0.1204  0.1924
 1287loPI    C320579   8.925  15.254   4.427 -0.0140 -0.1033 -0.0299
 1287loPI   PO420580   8.916  14.944   4.969 -0.1485 -0.0974 -0.0428
 1287loPI   GL120581   9.088  14.839   5.339 -0.0459 -0.1897 -0.2888
 1287loPI   GL220582   9.276  14.566   5.343  0.1454  0.0762 -0.2459
 1287loPI   C1A20583   9.361  14.988   5.666 -0.0038  0.1204 -0.1569
 1287loPI   C2A20584   9.537  15.075   6.042  0.0155  0.0564 -0.2715
 1287loPI   C3A20585   9.750  15.339   6.298 -0.1117  0.2259  0.0434
 1287loPI   C4A20586   9.875  15.349   6.758 -0.0368  0.2087  0.1660
 1287loPI   C5A20587   9.876  15.298   7.190  0.1034  0.1645 -0.0653
 1287loPI   C6A20588  10.176  15.369   7.450  0.0307  0.1376  0.0117
 1287loPI   C1B20589   9.078  14.528   5.758 -0.0952 -0.3163  0.1250
 1287loPI   C2B20590   8.731  14.560   6.093 -0.0646  0.4504  0.0649
 1287loPI   C3B20591   8.516  14.996   6.185  0.0106  0.2924 -0.1668
 1287loPI   C4B20592   8.279  15.335   6.190  0.2940 -0.1625  0.1367
 1288loPI    C120593   1.239   4.788   4.130 -0.0070 -0.0868 -0.0542
 1288loPI    C220594   1.441   4.443   4.110  0.1114 -0.0139 -0.1309
 1288loPI    C320595   1.287   4.603   3.778  0.1055  0.0358 -0.1042
 1288loPI   PO420596   1.167   4.792   4.411  0.0391  0.0745  0.2411
 1288loPI   GL120597   1.130   4.804   4.814  0.0066 -0.2544  0.1624
 1288loPI   GL220598   0.716   4.788   4.766 -0.0165  0.0337  0.0964
 1288loPI   C1A20599   1.145   4.723   5.095  0.1129 -0.0711  0.0516
 1288loPI   C2A20600   1.083   4.865   5.456  0.3058 -0.1605  0.0005
 1288loPI   C3A20601   1.267   4.802   5.822  0.0621 -0.0322  0.3620
 1288loPI   C4A20602   1.246   4.792   6.139 -0.0985  0.0619 -0.2272
 1288loPI   C5A20603   1.230   4.602   6.503  0.0810  0.0171  0.1974
 1288loPI   C6A20604   1.050   4.497   6.737 -0.2529  0.1200  0.0381
 1288loPI   C1B20605   0.608   4.949   5.186  0.0381  0.3018  0.2621
 1288loPI   C2B20606   0.414   5.012   5.570 -0.1303  0.2760  0.0067
 1288loPI   C3B20607   0.353   4.972   6.092  0.0604 -0.0479  0.0220
 1288loPI   C4B20608   0.265   5.033   6.520 -0.1955 -0.2343 -0.3541
 1289loPI    C120609   2.838   7.048   4.158  0.0954  0.1610 -0.3953
 1289loPI    C220610   3.109   6.795   4.309 -0.0700  0.1171 -0.1682
 1289loPI    C320611   3.215   7.053   4.022  0.1293 -0.1272 -0.3181
 1289loPI   PO420612   2.599   7.135   4.427  0.2578 -0.2925  0.2519
 1289loPI   GL120613   2.290   7.058   4.715 -0.1897  0.3518 -0.2973
 1289loPI   GL220614   1.996   6.912   4.762 -0.1357 -0.0776 -0.2345
 1289loPI   C1A20615   2.303   7.070   5.162  0.0902 -0.2249 -0.1642
 1289loPI   C2A20616   2.089   7.126   5.624  0.2201  0.0259  0.2592
 1289loPI   C3A20617   1.942   7.132   6.006  0.0814  0.0962 -0.0884
 1289loPI   C4A20618   2.047   7.206   6.394 -0.2799 -0.2316  0.2936
 1289loPI   C5A20619   2.115   7.133   6.870  0.1926 -0.1961 -0.1665
 1289loPI   C6A20620   1.819   6.863   7.100 -0.3045 -0.2351 -0.2019
 1289loPI   C1B20621   1.829   6.846   5.216  0.1811  0.2176  0.1333
 1289loPI   C2B20622   1.542   6.912   5.591  0.0354 -0.1923  0.5484
 1289loPI   C3B20623   1.427   6.892   6.021  0.0501  0.3509  0.1131
 1289loPI   C4B20624   1.216   6.967   6.345 -0.0579  0.3123  0.0019
 1290loPI    C120625   9.785   6.791   4.438 -0.0216 -0.1121  0.0868
 1290loPI    C220626   9.957   6.654   4.103 -0.0757  0.0142  0.0065
 1290loPI    C320627   9.711   6.968   4.087 -0.0736  0.0250  0.1665
 1290loPI   PO420628   9.955   6.765   4.677  0.2668  0.0058  0.0055
 1290loPI   GL120629   9.709   6.696   5.175  0.0046 -0.1850 -0.0572
 1290loPI   GL220630   9.977   6.920   5.182  0.1378  0.3029 -0.0342
 1290loPI   C1A20631   9.555   7.068   5.421 -0.0087 -0.1741 -0.0156
 1290loPI   C2A20632   9.755   7.308   5.697 -0.3673  0.0080 -0.1380
 1290loPI   C3A20633   9.820   7.618   6.082 -0.0816  0.0494  0.1229
 1290loPI   C4A20634  10.061   7.490   6.436  0.2763  0.0400 -0.2640
 1290loPI   C5A20635   9.835   7.356   6.800 -0.0676  0.2642  0.1522
 1290loPI   C6A20636   9.668   7.651   7.065  0.1227 -0.2803 -0.1492
 1290loPI   C1B20637  10.146   7.065   5.567  0.0157  0.1229 -0.1660
 1290loPI   C2B20638  10.215   7.248   6.028 -0.3336  0.0448 -0.0405
 1290loPI   C3B20639  10.536   7.142   6.192 -0.0591  0.0814 -0.2249
 1290loPI   C4B20640  10.714   7.514   6.294  0.1751 -0.0225 -0.0357
 1291loPI    C120641   8.363   5.646   4.471  0.0805  0.1860  0.0301
 1291loPI    C220642   8.141   5.730   4.149 -0.0816  0.0936  0.1165
 1291loPI    C320643   8.537   5.692   4.114 -0.1068  0.0055 -0.0875
 1291loPI   PO420644   8.260   5.827   4.647 -0.1186 -0.1826 -0.2371
 1291loPI   GL120645   8.497   6.091   4.927 -0.2593  0.0620 -0.0665
 1291loPI   GL220646   8.519   5.700   5.045  0.0717 -0.0986 -0.0484
 1291loPI   C1A20647   8.518   6.220   5.359 -0.0756 -0.0409 -0.3768
 1291loPI   C2A20648   8.335   6.322   5.760 -0.2572 -0.4984 -0.1490
 1291loPI   C3A20649   7.979   6.417   6.022  0.2268  0.2075 -0.0748
 1291loPI   C4A20650   7.933   6.340   6.462 -0.0716  0.0398  0.0891
 1291loPI   C5A20651   7.576   6.509   6.856 -0.1813  0.2170  0.1972
 1291loPI   C6A20652   7.241   6.337   7.101  0.1755 -0.1258  0.0020
 1291loPI   C1B20653   8.699   5.494   5.377  0.1439  0.2697 -0.0955
 1291loPI   C2B20654   8.678   5.316   5.857 -0.0839 -0.1273 -0.0212
 1291loPI   C3B20655   8.550   5.112   6.238  0.1798 -0.0021 -0.1210
 1291loPI   C4B20656   8.728   5.002   6.659 -0.0246  0.3910  0.1064
 1292loPI    C120657  17.584   2.462   3.618  0.0647 -0.0809  0.1787
 1292loPI    C220658  17.192   2.381   3.608  0.0820 -0.1586  0.1298
 1292loPI    C320659  17.423   2.294   3.293  0.1676 -0.2622  0.2202
 1292loPI   PO420660  17.603   2.463   3.923 -0.0069 -0.0909 -0.1095
 1292loPI   GL120661  17.519   2.497   4.407 -0.2759 -0.1160 -0.0811
 1292loPI   GL220662  17.607   2.141   4.555  0.3830  0.2545 -0.1045
 1292loPI   C1A20663  17.463   2.605   4.775  0.6206  0.0510  0.3508
 1292loPI   C2A20664  17.531   2.595   5.164 -0.0950 -0.4121  0.2278
 1292loPI   C3A20665  17.690   2.382   5.513  0.1371 -0.0253  0.0414
 1292loPI   C4A20666  17.840   2.400   5.941  0.0289 -0.2306 -0.0040
 1292loPI   C5A20667  17.916   2.143   6.435  0.1631 -0.1019  0.1888
 1292loPI   C6A20668  18.053   2.189   6.839 -0.1760  0.0608 -0.2028
 1292loPI   C1B20669  17.605   2.102   5.043 -0.1250  0.0964 -0.2663
 1292loPI   C2B20670  17.658   1.774   5.374  0.2804 -0.1180 -0.1085
 1292loPI   C3B20671  17.796   1.678   5.711 -0.3898  0.3108 -0.2142
 1292loPI   C4B20672  17.690   1.749   6.127 -0.0686  0.0046  0.3567
 1293loPI    C120673  13.239  17.666   4.471  0.0284  0.1919  0.1068
 1293loPI    C220674  12.938  17.848   4.280 -0.2524  0.0726  0.4257
 1293loPI    C320675  13.277  18.047   4.355 -0.1791  0.1555 -0.0885
 1293loPI   PO420676  13.055  17.456   4.599  0.4810  0.1180 -0.2663
 1293loPI   GL120677  13.093  17.353   5.013  0.0884 -0.0615 -0.1449
 1293loPI   GL220678  12.809  17.465   5.034 -0.0730 -0.1163 -0.0972
 1293loPI   C1A20679  13.268  17.344   5.464 -0.0276 -0.2061 -0.2009
 1293loPI   C2A20680  13.286  17.369   5.893  0.2619 -0.2108 -0.0595
 1293loPI   C3A20681  13.228  17.314   6.305 -0.1440 -0.4471 -0.0274
 1293loPI   C4A20682  12.916  17.318   6.698 -0.1470  0.2479 -0.0689
 1293loPI   C5A20683  12.490  17.466   6.856 -0.1615 -0.2302  0.0876
 1293loPI   C6A20684  12.207  17.427   7.009  0.0769 -0.2865 -0.0001
 1293loPI   C1B20685  12.744  17.173   5.466  0.0481  0.1026 -0.0294
 1293loPI   C2B20686  12.700  16.837   5.753 -0.1091 -0.2441 -0.0783
 1293loPI   C3B20687  12.339  16.820   6.127  0.1257 -0.2015  0.4591
 1293loPI   C4B20688  12.033  16.746   6.412 -0.3149 -0.3056 -0.1419
 1294loPI    C120689   6.991   0.161   4.348 -0.0795 -0.0504  0.0545
 1294loPI    C220690   6.784  -0.020   4.058  0.0152  0.0570 -0.0819
 1294loPI    C320691   6.678   0.346   4.180  0.0303  0.0486 -0.0432
 1294loPI   PO420692   7.086  -0.071   4.452 -0.0453 -0.1670  0.1904
 1294loPI   GL120693   7.159  -0.256   4.813  0.1056  0.1838 -0.1357
 1294loPI   GL220694   7.106  -0.524   4.961  0.1909 -0.3057  0.3004
 1294loPI   C1A20695   7.337  -0.151   5.211 -0.0021 -0.3167 -0.1797
 1294loPI   C2A20696   7.350  -0.087   5.644 -0.0925  0.2468  0.1784
 1294loPI   C3A20697   7.311  -0.026   6.055 -0.0615  0.0060  0.0535
 1294loPI   C4A20698   7.455   0.260   6.287 -0.3216 -0.0600  0.3763
 1294loPI   C5A20699   7.337   0.584   6.578 -0.1182 -0.2330  0.0882
 1294loPI   C6A20700   7.627   0.812   6.742 -0.1899 -0.1506 -0.1617
 1294loPI   C1B20701   6.856  -0.657   5.263 -0.1464 -0.0740 -0.2879
 1294loPI   C2B20702   6.750  -0.751   5.667 -0.1088 -0.0751  0.0270
 1294loPI   C3B20703   7.076  -0.823   6.083 -0.1316 -0.2030 -0.3394
 1294loPI   C4B20704   7.131  -0.801   6.480  0.1845 -0.0582 -0.2554
 1295loPI    C120705   9.355   6.052   4.310  0.0982 -0.0018  0.0691
 1295loPI    C220706   9.533   6.393   4.204  0.0179  0.0449  0.0834
 1295loPI    C320707   9.322   6.186   3.934  0.0180  0.0367  0.0897
 1295loPI   PO420708   9.264   6.084   4.526  0.5214 -0.0483 -0.1908
 1295loPI   GL120709   9.114   6.041   4.884  0.1036  0.2984 -0.0270
 1295loPI   GL220710   8.996   6.270   5.007 -0.0861 -0.0812 -0.1591
 1295loPI   C1A20711   9.084   5.814   5.282  0.0494  0.1022 -0.3066
 1295loPI   C2A20712   8.980   6.017   5.579  0.0216  0.2340 -0.2399
 1295loPI   C3A20713   8.737   6.141   5.971  0.0698 -0.1586 -0.0187
 1295loPI   C4A20714   8.441   6.285   6.242 -0.1348  0.2128  0.2224
 1295loPI   C5A20715   8.401   6.240   6.657 -0.1416 -0.1065 -0.0640
 1295loPI   C6A20716   8.127   6.271   7.066 -0.3194  0.0561  0.0972
 1295loPI   C1B20717   9.338   6.295   5.284 -0.3030  0.3205  0.2476
 1295loPI   C2B20718   9.481   6.038   5.638  0.3512 -0.1476  0.0934
 1295loPI   C3B20719   9.592   6.091   6.005 -0.1547  0.0699  0.1882
 1295loPI   C4B20720   9.689   6.480   6.244  0.1440 -0.1736 -0.1474
 1296loPI    C120721   3.786   6.224   4.460 -0.2376 -0.2004 -0.2554
 1296loPI    C220722   3.433   6.375   4.571 -0.0780  0.1470 -0.2093
 1296loPI    C320723   3.451   6.014   4.401 -0.4087 -0.0612  0.1804
 1296loPI   PO420724   3.914   6.259   4.647  0.2227  0.0548  0.0105
 1296loPI   GL120725   4.051   6.202   5.022  0.1001 -0.2075 -0.0818
 1296loPI   GL220726   4.293   6.225   5.109  0.1116  0.1985  0.3360
 1296loPI   C1A20727   3.768   6.273   5.359 -0.2106 -0.0687 -0.2039
 1296loPI   C2A20728   3.691   5.908   5.694  0.0662 -0.1022 -0.0573
 1296loPI   C3A20729   3.638   5.544   5.951 -0.2158 -0.1119  0.0517
 1296loPI   C4A20730   3.413   5.392   6.372 -0.3191 -0.1062  0.2335
 1296loPI   C5A20731   2.945   5.508   6.584  0.3344  0.0606 -0.1790
 1296loPI   C6A20732   2.540   5.363   6.759  0.4287  0.1373  0.2287
 1296loPI   C1B20733   4.549   6.330   5.426  0.2401  0.0854  0.0864
 1296loPI   C2B20734   4.525   6.584   5.817  0.2650 -0.0974  0.2614
 1296loPI   C3B20735   4.361   6.598   6.191 -0.0189 -0.1628  0.1474
 1296loPI   C4B20736   4.402   6.499   6.656 -0.2542  0.1027  0.1467
 1297loPI    C120737   7.178  12.496   5.090  0.1673  0.0860  0.0321
 1297loPI    C220738   6.857  12.716   4.995  0.1684  0.1438  0.1589
 1297loPI    C320739   7.094  12.829   5.297  0.1457 -0.0540  0.2522
 1297loPI   PO420740   7.147  12.202   5.173 -0.0700 -0.3029 -0.0808
 1297loPI   GL120741   7.461  11.850   5.354 -0.2426  0.0023  0.0183
 1297loPI   GL220742   7.378  11.654   5.749 -0.2145 -0.1471  0.2438
 1297loPI   C1A20743   7.437  12.154   5.705 -0.1985  0.1919 -0.2339
 1297loPI   C2A20744   7.633  12.358   6.054  0.1283 -0.1304 -0.1524
 1297loPI   C3A20745   7.725  12.317   6.455  0.2268  0.1033 -0.1891
 1297loPI   C4A20746   7.546  12.041   6.678  0.0174 -0.3510  0.0948
 1297loPI   C5A20747   7.443  11.619   6.805 -0.1166  0.3412  0.0731
 1297loPI   C6A20748   7.600  11.261   6.663  0.2016  0.1260  0.1188
 1297loPI   C1B20749   6.943  11.817   5.803 -0.5226  0.1038  0.0389
 1297loPI   C2B20750   6.541  11.944   5.901 -0.0066 -0.0315  0.1489
 1297loPI   C3B20751   6.095  12.030   6.175 -0.1103  0.2122 -0.0185
 1297loPI   C4B20752   5.737  11.791   6.224  0.2060 -0.0326  0.0678
 1298loPI    C120753  19.105   4.542   4.162  0.1399 -0.0804 -0.0467
 1298loPI    C220754  18.870   4.589   3.842  0.1889  0.1789 -0.0473
 1298loPI    C320755  18.944   4.222   3.984 -0.0208  0.0787 -0.1912
 1298loPI   PO420756  18.963   4.665   4.405  0.0481  0.0791 -0.0560
 1298loPI   GL120757  19.063   4.972   4.653  0.0673  0.1798 -0.2917
 1298loPI   GL220758  19.267   5.272   4.587 -0.4256 -0.0662  0.5086
 1298loPI   C1A20759  18.938   5.400   4.915  0.0462  0.1026  0.1153
 1298loPI   C2A20760  19.009   5.522   5.348  0.1433  0.2458 -0.2270
 1298loPI   C3A20761  18.875   5.533   5.792  0.0079  0.3544 -0.0621
 1298loPI   C4A20762  18.980   5.449   6.243 -0.1194 -0.3210 -0.4524
 1298loPI   C5A20763  18.636   5.396   6.550  0.0045  0.1578 -0.2224
 1298loPI   C6A20764  18.529   5.591   6.894  0.0343 -0.0264 -0.2756
 1298loPI   C1B20765  19.508   5.485   4.893  0.2063  0.0057  0.2005
 1298loPI   C2B20766  19.345   5.792   5.256  0.1686 -0.0877 -0.2075
 1298loPI   C3B20767  19.372   5.750   5.706  0.0422 -0.0784  0.2137
 1298loPI   C4B20768  19.576   5.698   6.167 -0.0644 -0.1633 -0.3249
 1299loPI    C120769  14.753   8.283   3.984  0.0316 -0.1087 -0.0238
 1299loPI    C220770  14.393   8.255   4.155  0.0679 -0.0559  0.0616
 1299loPI    C320771  14.428   8.223   3.758 -0.0464  0.0627  0.0411
 1299loPI   PO420772  14.970   8.407   4.125  0.1028 -0.2210  0.0721
 1299loPI   GL120773  14.843   8.542   4.529 -0.2185 -0.1274 -0.2643
 1299loPI   GL220774  14.951   8.772   4.761 -0.1346 -0.0795 -0.1989
 1299loPI   C1A20775  14.870   8.290   5.017  0.2815 -0.3202 -0.0719
 1299loPI   C2A20776  14.587   8.272   5.330 -0.0344 -0.0918 -0.1439
 1299loPI   C3A20777  14.504   8.465   5.807  0.1030  0.0948 -0.0746
 1299loPI   C4A20778  14.485   8.775   6.089 -0.0293  0.0377  0.0966
 1299loPI   C5A20779  14.431   9.045   6.414 -0.0761 -0.3183  0.1287
 1299loPI   C6A20780  14.284   9.179   6.818 -0.0308 -0.0344 -0.1534
 1299loPI   C1B20781  14.942   8.710   5.234 -0.1057 -0.1018 -0.1808
 1299loPI   C2B20782  14.522   8.831   5.465  0.2006  0.2496 -0.0337
 1299loPI   C3B20783  14.244   9.130   5.740 -0.1142  0.1599 -0.3689
 1299loPI   C4B20784  14.000   9.045   6.074 -0.0368  0.0848  0.1126
 1300loPI    C120785  15.436   7.915   4.245 -0.1295  0.2180 -0.1682
 1300loPI    C220786  15.740   7.959   3.988 -0.0655  0.1913 -0.0975
 1300loPI    C320787  15.460   8.243   4.016 -0.1022  0.1694 -0.2353
 1300loPI   PO420788  15.385   7.915   4.509 -0.1043 -0.0713  0.0754
 1300loPI   GL120789  15.328   8.373   4.608  0.0624 -0.0245 -0.3469
 1300loPI   GL220790  15.420   8.649   4.585 -0.1487  0.0342  0.1714
 1300loPI   C1A20791  15.357   8.207   5.074  0.0481 -0.0471 -0.1423
 1300loPI   C2A20792  15.480   8.110   5.505 -0.1709  0.1853 -0.1725
 1300loPI   C3A20793  15.471   8.124   5.902  0.0584 -0.0930  0.2034
 1300loPI   C4A20794  15.482   8.561   6.089  0.0165  0.0387 -0.2390
 1300loPI   C5A20795  15.136   8.888   6.271 -0.0507  0.1469  0.3108
 1300loPI   C6A20796  14.809   8.769   6.536 -0.0910 -0.0999  0.0162
 1300loPI   C1B20797  15.408   8.744   4.970 -0.2368 -0.3234 -0.1892
 1300loPI   C2B20798  15.685   8.568   5.297 -0.3444 -0.1230  0.2833
 1300loPI   C3B20799  16.038   8.684   5.419  0.3321  0.1238  0.0336
 1300loPI   C4B20800  16.330   8.789   5.665  0.2135 -0.1338  0.0967
 1301loPI    C120801   2.127   6.672   4.173  0.1740  0.1617 -0.0793
 1301loPI    C220802   2.165   6.476   3.826 -0.0217  0.1141 -0.0754
 1301loPI    C320803   2.391   6.797   3.901  0.1253  0.0373 -0.1852
 1301loPI   PO420804   2.080   6.550   4.334  0.0962  0.0662  0.4319
 1301loPI   GL120805   2.111   6.382   4.730 -0.0311  0.2732  0.1471
 1301loPI   GL220806   2.315   6.482   4.790 -0.0806  0.2833  0.2216
 1301loPI   C1A20807   1.924   6.362   5.256  0.0419  0.4007  0.0476
 1301loPI   C2A20808   1.922   6.504   5.671 -0.0091  0.2237 -0.0174
 1301loPI   C3A20809   2.076   6.670   5.925 -0.2246 -0.1022 -0.1282
 1301loPI   C4A20810   2.082   6.714   6.356 -0.2214  0.1490 -0.5518
 1301loPI   C5A20811   1.753   6.701   6.650 -0.1916 -0.5259 -0.0211
 1301loPI   C6A20812   1.698   6.423   6.942 -0.2730  0.2850 -0.4694
 1301loPI   C1B20813   2.440   6.631   5.222  0.1518  0.0131  0.2088
 1301loPI   C2B20814   2.564   6.835   5.659 -0.0429  0.0998 -0.1688
 1301loPI   C3B20815   2.609   6.850   6.085 -0.2447  0.1827 -0.1160
 1301loPI   C4B20816   2.925   6.827   6.366  0.2664 -0.0630  0.1266
 1302loPI    C120817  19.159  11.732   4.457  0.0490 -0.0715 -0.1433
 1302loPI    C220818  19.354  11.859   4.132 -0.1270 -0.0867 -0.2564
 1302loPI    C320819  19.381  11.476   4.244 -0.0823 -0.0860 -0.2646
 1302loPI   PO420820  18.882  11.827   4.407  0.2905  0.2294  0.0941
 1302loPI   GL120821  18.742  12.100   4.723  0.0144 -0.1251 -0.0680
 1302loPI   GL220822  18.644  12.435   4.753  0.2853  0.0881 -0.1419
 1302loPI   C1A20823  18.485  11.977   4.942  0.3484  0.0136  0.0483
 1302loPI   C2A20824  18.452  11.966   5.365 -0.2989 -0.1660  0.2580
 1302loPI   C3A20825  18.227  11.854   5.824 -0.0772  0.1675  0.0534
 1302loPI   C4A20826  18.012  11.707   6.137 -0.1699 -0.0974 -0.0846
 1302loPI   C5A20827  17.717  11.483   6.190  0.0144 -0.0566 -0.0304
 1302loPI   C6A20828  17.379  11.241   6.468 -0.2853 -0.0720  0.1172
 1302loPI   C1B20829  18.546  12.416   5.195  0.1426  0.1189  0.0844
 1302loPI   C2B20830  18.492  12.532   5.577 -0.2541  0.1114  0.0075
 1302loPI   C3B20831  18.476  12.949   5.712 -0.1054  0.2895  0.4465
 1302loPI   C4B20832  18.768  13.230   6.043 -0.1594 -0.2201  0.2491
 1303loPI    C120833   3.486  11.714   4.837 -0.0737 -0.0363 -0.2693
 1303loPI    C220834   3.207  11.605   5.104  0.2223 -0.1744 -0.0099
 1303loPI    C320835   3.108  11.655   4.719 -0.1198 -0.4078  0.0441
 1303loPI   PO420836   3.661  11.588   4.873  0.0591  0.0984  0.0785
 1303loPI   GL120837   3.846  11.578   5.303 -0.2002 -0.1117  0.0302
 1303loPI   GL220838   3.630  11.357   5.301  0.0781  0.1150  0.1551
 1303loPI   C1A20839   3.928  11.948   5.655 -0.0894 -0.0578 -0.0756
 1303loPI   C2A20840   4.077  12.267   5.885 -0.4844 -0.2267  0.2174
 1303loPI   C3A20841   3.952  12.268   6.367 -0.2076 -0.1963  0.0469
 1303loPI   C4A20842   3.657  12.512   6.619  0.1245  0.0266  0.0718
 1303loPI   C5A20843   3.506  12.637   6.974 -0.0146  0.1674  0.0648
 1303loPI   C6A20844   3.333  12.979   7.266 -0.0369  0.0405  0.3863
 1303loPI   C1B20845   3.595  11.404   5.739 -0.1537 -0.1985 -0.0672
 1303loPI   C2B20846   3.791  11.308   6.073  0.1961  0.2340  0.1453
 1303loPI   C3B20847   3.941  10.937   6.235 -0.2224 -0.4185 -0.1142
 1303loPI   C4B20848   3.663  11.011   6.541  0.3404  0.2736 -0.3481
 1304loPI    C120849  17.689  10.498   3.868 -0.0030  0.0311  0.0683
 1304loPI    C220850  17.422  10.776   3.757 -0.1129 -0.1233 -0.0598
 1304loPI    C320851  17.354  10.390   3.676  0.1297 -0.1690 -0.0536
 1304loPI   PO420852  17.766  10.534   4.110  0.3266 -0.0844  0.2083
 1304loPI   GL120853  17.943  10.753   4.311 -0.0180 -0.0965 -0.0861
 1304loPI   GL220854  18.100  11.045   4.421 -0.0085 -0.2016 -0.0094
 1304loPI   C1A20855  18.063  10.498   4.659 -0.0985 -0.0139  0.1177
 1304loPI   C2A20856  18.036  10.555   4.992  0.0196  0.0956  0.1414
 1304loPI   C3A20857  17.849  10.525   5.376  0.3105 -0.0106 -0.0417
 1304loPI   C4A20858  17.851  10.563   5.854 -0.3391 -0.0530  0.3437
 1304loPI   C5A20859  17.872  10.527   6.255 -0.2134  0.0180  0.0524
 1304loPI   C6A20860  17.861  10.320   6.691  0.1064  0.0361  0.1684
 1304loPI   C1B20861  18.288  11.026   4.843  0.2902 -0.3347  0.2909
 1304loPI   C2B20862  18.146  11.017   5.293  0.2850  0.1319  0.0795
 1304loPI   C3B20863  18.189  10.847   5.637 -0.2253 -0.2244  0.0622
 1304loPI   C4B20864  18.293  10.405   5.780 -0.1187  0.0881  0.1413
 1305loPI    C120865  14.596  15.711   4.226 -0.0173  0.0440  0.2239
 1305loPI    C220866  14.954  15.872   4.303 -0.0659  0.2229  0.0830
 1305loPI    C320867  14.764  15.962   3.963 -0.0627 -0.1899 -0.0331
 1305loPI   PO420868  14.666  15.383   4.297  0.0797  0.1205 -0.0609
 1305loPI   GL120869  14.518  15.231   4.717  0.1608  0.2912 -0.2198
 1305loPI   GL220870  14.718  14.963   4.605  0.1746 -0.0661  0.2181
 1305loPI   C1A20871  14.466  15.344   5.090 -0.0463 -0.0543 -0.1810
 1305loPI   C2A20872  14.586  15.557   5.348 -0.1071 -0.0083  0.0652
 1305loPI   C3A20873  14.768  15.534   5.661 -0.1519 -0.4409  0.0154
 1305loPI   C4A20874  14.718  15.567   6.114 -0.0990 -0.1755  0.1706
 1305loPI   C5A20875  14.873  15.559   6.499  0.1488  0.1316  0.2275
 1305loPI   C6A20876  15.165  15.692   6.888  0.1285  0.1052 -0.0576
 1305loPI   C1B20877  14.634  14.829   5.018 -0.1166 -0.0564 -0.0828
 1305loPI   C2B20878  14.762  14.999   5.479 -0.4591  0.0903  0.1618
 1305loPI   C3B20879  14.947  15.092   5.920 -0.3050  0.0369  0.2867
 1305loPI   C4B20880  14.824  15.084   6.298 -0.1650 -0.0216  0.3934
 1306loPI    C120881  18.902   1.511   4.327 -0.1481 -0.0816  0.0157
 1306loPI    C220882  18.573   1.445   4.108  0.0503 -0.1801 -0.2586
 1306loPI    C320883  18.859   1.689   3.971 -0.0469  0.1587  0.1216
 1306loPI   PO420884  18.905   1.590   4.515  0.1657 -0.2690  0.0290
 1306loPI   GL120885  18.922   1.758   4.957 -0.1438 -0.0068  0.2031
 1306loPI   GL220886  18.743   1.461   4.987  0.1949  0.0211  0.3137
 1306loPI   C1A20887  19.021   1.697   5.404 -0.1901 -0.2012  0.2346
 1306loPI   C2A20888  18.928   1.567   5.746  0.2477  0.0454 -0.2270
 1306loPI   C3A20889  18.919   1.383   6.214  0.1502  0.1391 -0.0366
 1306loPI   C4A20890  18.759   1.324   6.675 -0.3118 -0.1149  0.1519
 1306loPI   C5A20891  18.947   1.033   6.986 -0.1363  0.1037  0.1212
 1306loPI   C6A20892  18.713   0.735   7.428 -0.3497  0.2487  0.1036
 1306loPI   C1B20893  18.592   1.324   5.360  0.0082  0.1013  0.1391
 1306loPI   C2B20894  18.762   0.963   5.601 -0.2648  0.1374  0.1128
 1306loPI   C3B20895  18.942   0.838   6.047 -0.1508 -0.4063 -0.2464
 1306loPI   C4B20896  18.841   0.891   6.498 -0.0428 -0.1014 -0.2403
 1307loPI    C120897  19.861  14.876   3.884 -0.1695  0.1890  0.1654
 1307loPI    C220898  20.065  14.615   3.661 -0.2558  0.1576  0.1230
 1307loPI    C320899  19.670  14.652   3.614 -0.3203 -0.0498  0.4634
 1307loPI   PO420900  20.014  14.868   4.155 -0.4308 -0.2469  0.1452
 1307loPI   GL120901  19.956  14.725   4.625  0.5424  0.1126  0.0710
 1307loPI   GL220902  19.741  14.979   4.722 -0.0683  0.0002  0.1761
 1307loPI   C1A20903  20.135  14.608   4.965 -0.2130  0.0469  0.0057
 1307loPI   C2A20904  20.266  14.599   5.278  0.2825  0.2063  0.0066
 1307loPI   C3A20905  20.511  14.946   5.449  0.3850 -0.0026 -0.2083
 1307loPI   C4A20906  20.588  15.346   5.581  0.3144  0.0102 -0.3589
 1307loPI   C5A20907  20.415  15.608   5.840  0.2508  0.0515 -0.0749
 1307loPI   C6A20908  20.241  15.588   6.248  0.0631 -0.0320  0.2616
 1307loPI   C1B20909  19.636  14.858   5.069  0.0088  0.0803 -0.0981
 1307loPI   C2B20910  19.903  14.917   5.432  0.2289  0.0827 -0.2521
 1307loPI   C3B20911  20.158  14.687   5.801  0.4690  0.1513  0.1476
 1307loPI   C4B20912  20.061  14.671   6.219  0.1205 -0.0061 -0.3825
 1308loPI    C120913  15.343  19.584   4.247 -0.0017  0.0625 -0.0379
 1308loPI    C220914  15.142  19.580   3.902  0.0824  0.1691 -0.0888
 1308loPI    C320915  14.999  19.786   4.213 -0.0507 -0.0181 -0.0239
 1308loPI   PO420916  15.536  19.428   4.276  0.2775  0.2189 -0.3093
 1308loPI   GL120917  15.371  19.126   4.550  0.4441  0.3305 -0.0141
 1308loPI   GL220918  15.144  19.404   4.625 -0.2147 -0.2010  0.0771
 1308loPI   C1A20919  15.172  18.986   4.956 -0.0493 -0.0248  0.1115
 1308loPI   C2A20920  15.183  19.111   5.387  0.2620  0.1450  0.0760
 1308loPI   C3A20921  15.124  19.139   5.732  0.1015  0.1392  0.0256
 1308loPI   C4A20922  15.372  19.080   6.177 -0.2381 -0.0069  0.0846
 1308loPI   C5A20923  15.555  19.003   6.520 -0.0933 -0.0841 -0.1730
 1308loPI   C6A20924  15.837  18.963   7.048 -0.0333 -0.1159 -0.0126
 1308loPI   C1B20925  15.115  19.489   4.973  0.0786 -0.1996  0.0175
 1308loPI   C2B20926  15.089  19.828   5.210 -0.0006  0.1755  0.0831
 1308loPI   C3B20927  14.967  19.977   5.515  0.1909 -0.0028 -0.1003
 1308loPI   C4B20928  15.110  19.925   5.786  0.1717 -0.1353 -0.0248
 1309loPI    C120929   2.313   4.698   4.612 -0.2238 -0.3003 -0.1264
 1309loPI    C220930   2.094   4.947   4.389 -0.1839 -0.0824  0.0732
 1309loPI    C320931   2.387   4.734   4.221 -0.0967  0.1448 -0.0676
 1309loPI   PO420932   2.146   4.610   4.717 -0.1104  0.4171 -0.2692
 1309loPI   GL120933   1.891   4.757   5.018  0.0747  0.1460 -0.1181
 1309loPI   GL220934   1.556   4.539   5.110  0.1005 -0.2547 -0.4508
 1309loPI   C1A20935   1.960   5.098   5.256 -0.0069  0.0825 -0.0945
 1309loPI   C2A20936   2.237   5.157   5.694 -0.0312  0.2594  0.0946
 1309loPI   C3A20937   2.406   4.985   6.078 -0.0157 -0.0023  0.0895
 1309loPI   C4A20938   2.603   4.784   6.458  0.0133  0.2609 -0.1093
 1309loPI   C5A20939   2.887   4.619   6.803  0.0178 -0.2483 -0.1807
 1309loPI   C6A20940   3.185   4.383   7.079  0.0280 -0.2229  0.1651
 1309loPI   C1B20941   1.597   4.800   5.450  0.0896  0.2848 -0.0846
 1309loPI   C2B20942   1.727   5.089   5.756  0.0096  0.1131  0.2055
 1309loPI   C3B20943   1.909   5.281   6.066 -0.0997 -0.1198 -0.1851
 1309loPI   C4B20944   1.984   5.609   6.262 -0.0560 -0.2619 -0.3414
 1310loPI    C120945   9.834   0.877   4.360  0.1322  0.1928  0.1321
 1310loPI    C220946   9.841   0.879   3.960 -0.0295 -0.1629  0.1232
 1310loPI    C320947  10.111   0.665   4.164  0.0713  0.0418  0.2073
 1310loPI   PO420948   9.582   0.854   4.478  0.1972 -0.0283  0.0354
 1310loPI   GL120949   9.500   0.775   4.825  0.1904  0.0039  0.2260
 1310loPI   GL220950   9.287   0.928   4.911  0.1740  0.3707 -0.0894
 1310loPI   C1A20951   9.507   0.434   5.064  0.1035  0.2565 -0.0784
 1310loPI   C2A20952   9.606   0.177   5.426 -0.1845 -0.2381  0.2103
 1310loPI   C3A20953   9.603   0.107   5.799 -0.1687 -0.1847 -0.0814
 1310loPI   C4A20954   9.771  -0.053   6.194 -0.0351  0.0015  0.1653
 1310loPI   C5A20955   9.729   0.043   6.564 -0.0290  0.0494 -0.2928
 1310loPI   C6A20956   9.833   0.294   6.733 -0.1258 -0.2552 -0.4580
 1310loPI   C1B20957   9.129   0.908   5.273  0.1947 -0.1130  0.0507
 1310loPI   C2B20958   8.780   0.794   5.595 -0.0354 -0.0269  0.0925
 1310loPI   C3B20959   8.649   0.453   5.858  0.0950  0.1701  0.0810
 1310loPI   C4B20960   8.226   0.571   5.870 -0.0321 -0.1048 -0.3206
 1311loPI    C120961  12.066   1.856   4.709 -0.0345  0.1206 -0.1453
 1311loPI    C220962  12.127   1.883   4.315  0.0895 -0.0442 -0.1385
 1311loPI    C320963  11.815   2.069   4.482 -0.0285 -0.0666 -0.3307
 1311loPI   PO420964  12.230   1.724   4.828 -0.4300  0.1111 -0.0059
 1311loPI   GL120965  12.220   1.795   5.197  0.0172  0.0858  0.1235
 1311loPI   GL220966  12.491   1.973   5.260 -0.1377 -0.1588  0.1149
 1311loPI   C1A20967  12.114   1.843   5.574  0.2765 -0.2931 -0.1659
 1311loPI   C2A20968  11.866   1.862   5.902 -0.1825  0.0600  0.1516
 1311loPI   C3A20969  11.842   2.052   6.315 -0.1754  0.3374 -0.4613
 1311loPI   C4A20970  12.021   2.137   6.692  0.3162  0.1678  0.0060
 1311loPI   C5A20971  12.096   2.483   6.728 -0.2437  0.0283 -0.1183
 1311loPI   C6A20972  11.983   2.816   6.864 -0.2231 -0.0721 -0.0098
 1311loPI   C1B20973  12.590   2.051   5.722 -0.0974  0.1967  0.1363
 1311loPI   C2B20974  12.766   2.327   5.988 -0.2160  0.4072 -0.3829
 1311loPI   C3B20975  13.107   2.457   6.185 -0.0431 -0.0595  0.0923
 1311loPI   C4B20976  13.568   2.485   6.024  0.1025 -0.2784 -0.1004
 1312loPI    C120977  18.201  16.928   3.884  0.0352  0.0582  0.1244
 1312loPI    C220978  18.318  16.572   3.745  0.0071 -0.0155  0.2877
 1312loPI    C320979  17.945  16.699   3.680  0.1130  0.1297 -0.0548
 1312loPI   PO420980  18.331  17.008   4.027  0.0795  0.3030 -0.0010
 1312loPI   GL120981  18.302  16.737   4.415  0.0535 -0.0791  0.2448
 1312loPI   GL220982  18.299  17.119   4.555  0.1869  0.0753  0.0653
 1312loPI   C1A20983  18.143  16.598   4.818  0.0092 -0.3910  0.2393
 1312loPI   C2A20984  18.035  16.653   5.143 -0.0436 -0.2621  0.0424
 1312loPI   C3A20985  17.861  16.515   5.582  0.1223 -0.0150  0.0943
 1312loPI   C4A20986  18.013  16.349   5.848  0.2211  0.2018  0.1121
 1312loPI   C5A20987  18.199  16.405   6.222 -0.2258 -0.1780  0.1857
 1312loPI   C6A20988  18.142  16.639   6.541  0.0167  0.2163 -0.1418
 1312loPI   C1B20989  18.115  17.177   4.925 -0.2795  0.1051  0.0511
 1312loPI   C2B20990  18.324  17.112   5.318 -0.0603 -0.0467  0.2971
 1312loPI   C3B20991  18.365  17.326   5.705 -0.2775  0.0212  0.0178
 1312loPI   C4B20992  18.586  17.491   6.034  0.0354  0.0980  0.0393
 1313loPI    C120993   1.389   3.361   4.439 -0.0421 -0.2257 -0.2256
 1313loPI    C220994   1.625   3.606   4.228  0.0405 -0.0935  0.0164
 1313loPI    C320995   1.782   3.290   4.415 -0.0240 -0.1798 -0.0742
 1313loPI   PO420996   1.254   3.407   4.583 -0.0627  0.0787  0.1941
 1313loPI   GL120997   0.975   3.361   4.984 -0.1939  0.2551 -0.0811
 1313loPI   GL220998   1.272   3.513   5.065 -0.0358  0.2281 -0.0433
 1313loPI   C1A20999   0.943   3.419   5.413 -0.0272  0.0907  0.0933
 1313loPI   C2A21000   1.119   3.378   5.831 -0.0984  0.1457  0.1529
 1313loPI   C3A21001   1.183   3.338   6.223  0.0224  0.0308 -0.1742
 1313loPI   C4A21002   1.306   3.154   6.636  0.2099 -0.1007  0.2481
 1313loPI   C5A21003   1.584   3.320   7.072  0.0838  0.0535 -0.1527
 1313loPI   C6A21004   1.944   3.672   7.124  0.2444  0.2924  0.1846
 1313loPI   C1B21005   1.573   3.445   5.448  0.2233 -0.0073  0.4250
 1313loPI   C2B21006   1.594   3.327   5.903  0.0072 -0.3309 -0.0014
 1313loPI   C3B21007   1.695   3.313   6.213 -0.1505 -0.4082  0.0329
 1313loPI   C4B21008   1.810   3.258   6.602  0.2194  0.2358  0.0370
 1314loPI    C121009  15.866   0.474   4.307  0.0368 -0.2187 -0.1208
 1314loPI    C221010  15.932   0.291   3.957  0.2148  0.2016 -0.3148
 1314loPI    C321011  15.902   0.690   3.972  0.0103  0.1765  0.1240
 1314loPI   PO421012  16.006   0.315   4.546  0.1392 -0.2139 -0.1337
 1314loPI   GL121013  16.239   0.389   4.961 -0.3117 -0.1794  0.0721
 1314loPI   GL221014  15.962   0.263   5.030  0.0403  0.0298  0.0648
 1314loPI   C1A21015  16.229   0.628   5.340 -0.0006  0.2700  0.0039
 1314loPI   C2A21016  16.249   0.566   5.831  0.2564  0.0871 -0.0063
 1314loPI   C3A21017  16.421   0.941   6.148 -0.0110  0.3526 -0.1352
 1314loPI   C4A21018  16.695   0.745   6.410  0.0396  0.0332 -0.3557
 1314loPI   C5A21019  16.836   0.728   6.801  0.0950 -0.0832  0.0648
 1314loPI   C6A21020  17.091   0.593   7.125  0.1541 -0.0132  0.0220
 1314loPI   C1B21021  16.150   0.179   5.414  0.5138  0.0035  0.0304
 1314loPI   C2B21022  16.140   0.085   5.952  0.0676  0.0715  0.1221
 1314loPI   C3B21023  16.006   0.274   6.265 -0.1405 -0.2031  0.0286
 1314loPI   C4B21024  16.118   0.621   6.367  0.1050 -0.2739 -0.0308
 1315loPI    C121025  11.950   1.418   4.321  0.0607 -0.2661 -0.1262
 1315loPI    C221026  12.155   1.113   4.162  0.1387 -0.2185 -0.1172
 1315loPI    C321027  12.260   1.490   4.079  0.2007 -0.1926  0.0726
 1315loPI   PO421028  11.985   1.338   4.564  0.0866  0.1851 -0.1576
 1315loPI   GL121029  11.787   1.450   4.984 -0.0995 -0.1758  0.0850
 1315loPI   GL221030  11.711   1.758   5.141 -0.2424  0.0093  0.1516
 1315loPI   C1A21031  11.956   1.320   5.342  0.2272 -0.1466 -0.2662
 1315loPI   C2A21032  12.025   1.391   5.757 -0.0506  0.2493  0.0868
 1315loPI   C3A21033  12.083   1.422   6.181  0.0289 -0.2196 -0.0054
 1315loPI   C4A21034  11.866   1.202   6.539 -0.0874 -0.4133  0.1675
 1315loPI   C5A21035  11.514   1.165   6.661 -0.3482 -0.0074 -0.1635
 1315loPI   C6A21036  11.201   1.152   6.997 -0.0471 -0.3346 -0.1734
 1315loPI   C1B21037  11.604   1.631   5.508  0.2549 -0.0086 -0.1123
 1315loPI   C2B21038  11.371   1.619   5.817  0.0506 -0.2741 -0.0857
 1315loPI   C3B21039  11.569   1.597   6.297  0.0775  0.1168  0.3336
 1315loPI   C4B21040  11.646   1.685   6.712  0.3247 -0.2430  0.0985
 1316loPI    C121041  15.549  14.755   4.005 -0.0212  0.0282 -0.1368
 1316loPI    C221042  15.270  15.002   3.858 -0.1160 -0.0816 -0.1431
 1316loPI    C321043  15.596  14.917   3.642 -0.3080 -0.3305 -0.3413
 1316loPI   PO421044  15.505  14.815   4.248  0.3176  0.1603 -0.1198
 1316loPI   GL121045  15.572  15.141   4.465 -0.0363  0.1004 -0.0177
 1316loPI   GL221046  15.937  15.203   4.661 -0.2956 -0.0929  0.0150
 1316loPI   C1A21047  15.562  14.929   4.869 -0.0980 -0.1132  0.0833
 1316loPI   C2A21048  15.712  14.747   5.225  0.1973 -0.1944  0.0867
 1316loPI   C3A21049  16.007  14.500   5.463 -0.3684 -0.0838  0.1533
 1316loPI   C4A21050  16.085  14.137   5.756  0.1570 -0.1333  0.0208
 1316loPI   C5A21051  16.344  13.928   5.910 -0.2160 -0.1698 -0.1271
 1316loPI   C6A21052  16.509  14.124   6.251  0.1625  0.0510  0.1895
 1316loPI   C1B21053  16.061  15.127   5.020  0.1067 -0.2426  0.2208
 1316loPI   C2B21054  16.121  14.987   5.411 -0.2018  0.0321 -0.1861
 1316loPI   C3B21055  16.216  14.925   5.816  0.0541 -0.1150 -0.3317
 1316loPI   C4B21056  16.207  14.521   6.087 -0.0222  0.1578  0.1987
 1317loPI    C121057   6.768   0.541   4.617 -0.1128  0.3631  0.1244
 1317loPI    C221058   6.921   0.284   4.883 -0.3404 -0.1023 -0.1806
 1317loPI    C321059   6.914   0.676   4.965  0.3562 -0.1405  0.1373
 1317loPI   PO421060   6.526   0.492   4.616 -0.3335 -0.2922 -0.1562
 1317loPI   GL121061   6.448   0.795   5.000  0.0278  0.1885  0.4484
 1317loPI   GL221062   6.313   1.105   5.061 -0.3336 -0.0239 -0.0749
 1317loPI   C1A21063   6.679   1.096   5.317  0.2007  0.0225  0.1553
 1317loPI   C2A21064   6.583   1.084   5.733 -0.1223 -0.4718 -0.0386
 1317loPI   C3A21065   6.486   1.110   6.133  0.2039  0.1913 -0.0193
 1317loPI   C4A21066   6.584   1.315   6.478 -0.0327  0.0683 -0.0596
 1317loPI   C5A21067   6.713   1.127   6.811 -0.1078 -0.2445 -0.1131
 1317loPI   C6A21068   6.657   0.792   6.895  0.0910  0.0841  0.0274
 1317loPI   C1B21069   6.212   1.413   5.378  0.1706 -0.2936  0.0778
 1317loPI   C2B21070   6.190   1.551   5.801 -0.0376  0.1092  0.0338
 1317loPI   C3B21071   6.200   1.583   6.225  0.0949  0.1047 -0.1173
 1317loPI   C4B21072   6.108   1.413   6.590 -0.2041 -0.2243  0.2142
 1318loPI    C121073  17.395   6.397   3.639 -0.0134 -0.0100  0.0364
 1318loPI    C221074  17.478   6.010   3.582  0.0461  0.0021  0.0402
 1318loPI    C321075  17.195   6.188   3.362  0.0226 -0.0422  0.0345
 1318loPI   PO421076  17.443   6.454   3.840 -0.0292  0.1097  0.1638
 1318loPI   GL121077  17.514   6.487   4.252 -0.1389  0.1016 -0.0234
 1318loPI   GL221078  17.882   6.466   4.309 -0.0710 -0.1333  0.0102
 1318loPI   C1A21079  17.545   6.710   4.662  0.0137  0.1728  0.2206
 1318loPI   C2A21080  17.422   6.825   5.068 -0.0657  0.1446  0.0236
 1318loPI   C3A21081  17.544   7.162   5.416  0.2284 -0.0909  0.0652
 1318loPI   C4A21082  17.362   7.276   5.843 -0.1803 -0.0535 -0.0584
 1318loPI   C5A21083  17.545   7.177   6.257  0.1877  0.1983  0.0509
 1318loPI   C6A21084  17.712   7.120   6.746 -0.4223 -0.1152 -0.2008
 1318loPI   C1B21085  18.020   6.511   4.778  0.1535  0.1268 -0.1123
 1318loPI   C2B21086  18.215   6.495   5.194 -0.0310  0.0615  0.1349
 1318loPI   C3B21087  18.490   6.272   5.510 -0.2668  0.2425 -0.2108
 1318loPI   C4B21088  18.582   6.239   5.944  0.1117  0.1343 -0.0508
 1319loPI    C121089  16.002   3.403   4.174  0.1418 -0.3145 -0.0298
 1319loPI    C221090  16.387   3.466   4.085  0.1073 -0.0006  0.0325
 1319loPI    C321091  16.100   3.624   3.855  0.0172  0.1252  0.2277
 1319loPI   PO421092  16.009   3.460   4.496 -0.0500  0.2891  0.1777
 1319loPI   GL121093  16.060   3.599   4.862 -0.0892  0.0004  0.1563
 1319loPI   GL221094  16.220   3.227   4.981  0.0915 -0.2401 -0.0359
 1319loPI   C1A21095  15.748   3.652   5.127  0.1359  0.0663  0.1170
 1319loPI   C2A21096  15.415   3.870   5.429  0.1755 -0.2757  0.0184
 1319loPI   C3A21097  15.358   3.963   5.820 -0.0703  0.1483  0.0685
 1319loPI   C4A21098  15.534   3.900   6.153  0.0190 -0.0773  0.0601
 1319loPI   C5A21099  15.721   4.086   6.480 -0.0025 -0.2878 -0.0724
 1319loPI   C6A21100  16.028   4.078   6.733 -0.1887 -0.0034 -0.3093
 1319loPI   C1B21101  16.059   3.038   5.261 -0.2464 -0.3619  0.0744
 1319loPI   C2B21102  16.118   3.041   5.739  0.0137 -0.1304 -0.0056
 1319loPI   C3B21103  16.021   2.923   6.126  0.0905  0.1552  0.2886
 1319loPI   C4B21104  16.058   2.754   6.523  0.0511  0.0076  0.1795
 1320loPI    C121105   2.468   2.590   4.316 -0.1448 -0.4060 -0.2510
 1320loPI    C221106   2.846   2.543   4.437 -0.2103 -0.0586  0.1092
 1320loPI    C321107   2.696   2.304   4.153  0.3219 -0.1048 -0.1457
 1320loPI   PO421108   2.365   2.674   4.562  0.2294 -0.0624  0.0235
 1320loPI   GL121109   2.333   2.541   4.942 -0.6549 -0.2242 -0.0627
 1320loPI   GL221110   2.355   2.798   5.116 -0.3378 -0.0706  0.0671
 1320loPI   C1A21111   2.310   2.367   5.340  0.0426 -0.1430 -0.2235
 1320loPI   C2A21112   2.338   2.224   5.836 -0.1181 -0.1590  0.2806
 1320loPI   C3A21113   2.354   2.153   6.354 -0.2347 -0.0430 -0.3323
 1320loPI   C4A21114   2.654   2.309   6.568  0.1057  0.2533 -0.0634
 1320loPI   C5A21115   2.871   2.622   6.596 -0.0236 -0.6607 -0.0856
 1320loPI   C6A21116   3.357   2.704   6.720  0.2127  0.1428  0.0354
 1320loPI   C1B21117   2.244   2.776   5.566 -0.3232 -0.1766 -0.3822
 1320loPI   C2B21118   2.587   2.764   5.922  0.0054  0.1069 -0.0624
 1320loPI   C3B21119   2.759   2.948   6.199 -0.1017 -0.2510 -0.1699
 1320loPI   C4B21120   3.122   3.035   6.443 -0.2390  0.1219  0.0083
 1321loPI    C121121   8.821   9.794   4.745  0.3019  0.1789 -0.0299
 1321loPI    C221122   8.787  10.133   4.535  0.1992  0.0961 -0.1483
 1321loPI    C321123   8.492  10.019   4.780  0.3323  0.2089  0.0678
 1321loPI   PO421124   9.017   9.818   4.945 -0.0298  0.2153  0.1999
 1321loPI   GL121125   8.908   9.849   5.372  0.1652  0.0209 -0.1989
 1321loPI   GL221126   8.739   9.759   5.596  0.5009 -0.1184 -0.5526
 1321loPI   C1A21127   9.054  10.013   5.881 -0.0649 -0.0194 -0.1293
 1321loPI   C2A21128   9.445  10.095   6.261  0.0625 -0.1626 -0.0914
 1321loPI   C3A21129   9.709  10.200   6.521 -0.3292 -0.5489 -0.2520
 1321loPI   C4A21130  10.012  10.268   6.809  0.1844 -0.0875 -0.1713
 1321loPI   C5A21131  10.401  10.447   6.878  0.2809 -0.1733  0.0847
 1321loPI   C6A21132  10.709  10.453   7.275 -0.3063  0.1335  0.2707
 1321loPI   C1B21133   8.630   9.464   5.869  0.2604 -0.2094 -0.0861
 1321loPI   C2B21134   8.853   9.499   6.304  0.0832  0.0355 -0.1715
 1321loPI   C3B21135   9.196   9.414   6.617 -0.0136  0.4994  0.0115
 1321loPI   C4B21136   9.549   9.299   6.921  0.2075  0.0641 -0.1883
 1322loPI    C121137  11.308  10.465   4.306  0.0074  0.2630  0.3700
 1322loPI    C221138  11.651  10.495   4.103 -0.0780 -0.1005  0.1627
 1322loPI    C321139  11.328  10.694   3.978 -0.0872 -0.1946  0.0349
 1322loPI   PO421140  11.418  10.520   4.584  0.2556 -0.1592 -0.0398
 1322loPI   GL121141  11.443  10.293   5.007  0.1186 -0.2637 -0.2087
 1322loPI   GL221142  11.548  10.527   5.167  0.3260 -0.2086  0.2971
 1322loPI   C1A21143  11.259  10.065   5.238 -0.3520  0.1686  0.0303
 1322loPI   C2A21144  11.192  10.042   5.599  0.0785 -0.0618 -0.1127
 1322loPI   C3A21145  11.298   9.990   5.990  0.2677 -0.0794  0.0258
 1322loPI   C4A21146  11.066   9.778   6.378 -0.1458 -0.0686  0.0577
 1322loPI   C5A21147  11.012   9.702   6.776  0.2284 -0.0232 -0.2771
 1322loPI   C6A21148  10.899   9.452   7.089  0.0786 -0.0353 -0.0768
 1322loPI   C1B21149  11.539  10.907   5.465  0.1468 -0.1837  0.0515
 1322loPI   C2B21150  11.382  10.995   5.861 -0.2126  0.1109 -0.1879
 1322loPI   C3B21151  11.235  10.935   6.263  0.0111 -0.1206  0.4050
 1322loPI   C4B21152  11.417  10.811   6.638 -0.0873 -0.1703 -0.0960
 1323loPI    C121153  10.051   3.240   4.367 -0.0355  0.0167  0.2257
 1323loPI    C221154   9.667   3.128   4.384  0.0359 -0.2645  0.0324
 1323loPI    C321155   9.873   3.090   4.042  0.2038 -0.0032  0.1015
 1323loPI   PO421156  10.120   3.284   4.657  0.2472 -0.0430  0.3379
 1323loPI   GL121157  10.050   3.308   5.100  0.0000  0.0484  0.0687
 1323loPI   GL221158   9.988   3.637   5.087  0.0861  0.0347  0.1434
 1323loPI   C1A21159   9.905   3.272   5.473 -0.0723  0.0710 -0.0345
 1323loPI   C2A21160   9.939   3.296   5.952 -0.0634 -0.2367 -0.1982
 1323loPI   C3A21161   9.800   3.257   6.411 -0.2926 -0.0787 -0.2038
 1323loPI   C4A21162   9.630   3.366   6.741 -0.3368 -0.2728  0.5674
 1323loPI   C5A21163   9.410   3.106   7.016 -0.1742  0.3527  0.0638
 1323loPI   C6A21164   9.068   2.695   6.930 -0.1185  0.1102  0.0949
 1323loPI   C1B21165  10.291   3.629   5.527  0.1221 -0.0417  0.0779
 1323loPI   C2B21166  10.399   3.667   5.916 -0.0929 -0.1580 -0.0835
 1323loPI   C3B21167  10.500   3.755   6.365 -0.1657  0.1692 -0.0357
 1323loPI   C4B21168  10.709   3.899   6.712 -0.0387  0.2464  0.2356
 1324loPI    C121169   8.039  11.351   4.846 -0.0421 -0.0068 -0.0856
 1324loPI    C221170   8.116  10.961   4.892  0.0104 -0.0057 -0.1612
 1324loPI    C321171   8.140  11.128   4.529 -0.0913  0.0511 -0.1422
 1324loPI   PO421172   8.161  11.400   5.123 -0.0457  0.3218 -0.0363
 1324loPI   GL121173   8.285  11.710   5.499 -0.2343  0.0096 -0.3791
 1324loPI   GL221174   7.947  11.734   5.436 -0.0944  0.0192 -0.0533
 1324loPI   C1A21175   8.411  11.867   5.998 -0.1046 -0.2205  0.1250
 1324loPI   C2A21176   8.357  11.695   6.414 -0.1847 -0.0036  0.0388
 1324loPI   C3A21177   8.218  11.415   6.761 -0.1220  0.2325  0.1831
 1324loPI   C4A21178   8.169  11.320   7.163  0.2131  0.0603 -0.0867
 1324loPI   C5A21179   8.005  11.146   7.538 -0.2766  0.1402 -0.3466
 1324loPI   C6A21180   7.883  10.892   7.801 -0.1382  0.0593 -0.2431
 1324loPI   C1B21181   7.870  11.701   5.836  0.0692  0.2334 -0.1535
 1324loPI   C2B21182   7.615  11.905   6.184 -0.1129 -0.0048 -0.0133
 1324loPI   C3B21183   7.265  12.052   6.179 -0.3214  0.1419  0.2508
 1324loPI   C4B21184   6.885  12.247   6.011 -0.3793 -0.0882  0.2406
 1325loPI    C121185  12.917  12.692   4.258  0.1410  0.0883  0.1068
 1325loPI    C221186  12.615  12.704   3.996  0.1714 -0.0351  0.0655
 1325loPI    C321187  12.554  12.562   4.364  0.1213  0.1671  0.1367
 1325loPI   PO421188  13.100  12.873   4.270 -0.2739 -0.0687  0.3580
 1325loPI   GL121189  13.063  12.955   4.658  0.4662  0.2766 -0.3324
 1325loPI   GL221190  12.965  13.126   4.746 -0.1563  0.0511  0.0486
 1325loPI   C1A21191  13.345  12.846   4.976  0.0179  0.1561  0.1000
 1325loPI   C2A21192  13.499  12.920   5.362  0.0210 -0.2471 -0.4117
 1325loPI   C3A21193  13.644  13.243   5.702 -0.0191 -0.0132  0.2054
 1325loPI   C4A21194  13.906  13.504   6.066 -0.0543  0.0900  0.0494
 1325loPI   C5A21195  14.185  13.659   6.360  0.0269 -0.1280 -0.0720
 1325loPI   C6A21196  14.492  13.319   6.578 -0.0300 -0.0129 -0.1412
 1325loPI   C1B21197  12.937  13.090   5.163 -0.0687  0.1710 -0.3880
 1325loPI   C2B21198  13.062  13.005   5.571 -0.0481  0.1241 -0.0484
 1325loPI   C3B21199  13.101  13.166   5.946 -0.0878  0.0010 -0.2693
 1325loPI   C4B21200  13.243  13.068   6.445  0.2062 -0.0416  0.1406
 1326loPI    C121201  -0.157   5.803   4.032 -0.3716 -0.1934 -0.1369
 1326loPI    C221202   0.076   6.065   3.840 -0.1876 -0.2110  0.0588
 1326loPI    C321203   0.084   5.678   3.739 -0.1482 -0.2081  0.0508
 1326loPI   PO421204  -0.037   5.902   4.333 -0.1521 -0.1771  0.1017
 1326loPI   GL121205  -0.076   5.685   4.654  0.0978  0.1039  0.1131
 1326loPI   GL221206   0.194   5.655   4.845 -0.0851 -0.1338 -0.0191
 1326loPI   C1A21207  -0.178   5.839   5.109  0.0195 -0.3884 -0.0606
 1326loPI   C2A21208  -0.111   5.951   5.498  0.0163  0.1444 -0.0120
 1326loPI   C3A21209   0.025   5.905   5.936 -0.0083 -0.1420  0.2121
 1326loPI   C4A21210  -0.099   6.128   6.289 -0.3431 -0.0279  0.0169
 1326loPI   C5A21211   0.103   6.446   6.576  0.0276  0.3923  0.0501
 1326loPI   C6A21212   0.543   6.344   6.627  0.0120 -0.0334  0.0084
 1326loPI   C1B21213   0.319   5.470   5.242  0.1397  0.0038 -0.3484
 1326loPI   C2B21214   0.117   5.507   5.523  0.1418  0.0514  0.0462
 1326loPI   C3B21215   0.046   5.449   5.887 -0.1059  0.0395  0.2616
 1326loPI   C4B21216  -0.094   5.262   6.196  0.1158  0.1220 -0.0792
 1327loPI    C121217   6.893  13.446   4.624 -0.1376 -0.2374  0.0791
 1327loPI    C221218   6.748  13.462   4.252 -0.0880  0.0273  0.0697
 1327loPI    C321219   6.981  13.757   4.389 -0.1336 -0.0517  0.3223
 1327loPI   PO421220   6.695  13.411   4.791  0.0587 -0.4927  0.1073
 1327loPI   GL121221   6.655  13.193   5.177  0.0099  0.3598  0.0194
 1327loPI   GL221222   6.561  13.468   5.326 -0.3481  0.2406  0.0714
 1327loPI   C1A21223   6.695  12.864   5.651  0.3804  0.1524 -0.2630
 1327loPI   C2A21224   6.811  12.848   6.069 -0.4738 -0.1353  0.3433
 1327loPI   C3A21225   6.813  12.829   6.481 -0.1334 -0.1252  0.0842
 1327loPI   C4A21226   6.994  12.965   6.885  0.0596  0.1884  0.5857
 1327loPI   C5A21227   7.167  12.734   7.160 -0.2149  0.0551 -0.1088
 1327loPI   C6A21228   7.221  12.685   7.553 -0.1428 -0.0195 -0.0843
 1327loPI   C1B21229   6.550  13.332   5.657 -0.2058  0.2681 -0.0496
 1327loPI   C2B21230   6.644  13.341   6.142 -0.0945 -0.1098 -0.3790
 1327loPI   C3B21231   6.614  13.644   6.400 -0.0954  0.1586  0.2166
 1327loPI   C4B21232   6.532  13.789   6.842 -0.0752 -0.0443  0.1996
 1328loPI    C121233  19.196   3.961   4.536 -0.0572  0.0965  0.1528
 1328loPI    C221234  19.521   3.972   4.304  0.0216  0.3231  0.2704
 1328loPI    C321235  19.182   3.811   4.166  0.1729  0.1146  0.1356
 1328loPI   PO421236  19.255   3.878   4.784  0.2021 -0.0290  0.2244
 1328loPI   GL121237  19.411   4.108   5.041 -0.0111 -0.1395  0.0976
 1328loPI   GL221238  19.285   4.042   5.240  0.1228 -0.1126  0.1049
 1328loPI   C1A21239  19.578   4.476   5.189 -0.0419 -0.0286  0.2028
 1328loPI   C2A21240  19.479   4.762   5.449 -0.3348 -0.1038  0.2347
 1328loPI   C3A21241  19.323   4.672   5.963  0.2971  0.1874 -0.1580
 1328loPI   C4A21242  19.276   4.644   6.380 -0.2505 -0.0180 -0.3950
 1328loPI   C5A21243  19.181   4.427   6.715 -0.2997 -0.1033 -0.0808
 1328loPI   C6A21244  19.166   4.345   7.180 -0.0496  0.2373  0.1232
 1328loPI   C1B21245  19.264   3.735   5.594  0.4420 -0.1170 -0.1267
 1328loPI   C2B21246  19.233   3.620   6.048 -0.0858 -0.0452 -0.0883
 1328loPI   C3B21247  19.451   3.534   6.420 -0.1736 -0.1115  0.2023
 1328loPI   C4B21248  19.771   3.518   6.759 -0.2725  0.1128 -0.0149
 1329loPI    C121249   0.860  14.557   3.883  0.1919  0.0330  0.0753
 1329loPI    C221250   0.485  14.690   3.925  0.1688 -0.0029 -0.0143
 1329loPI    C321251   0.634  14.625   3.560  0.2041 -0.1545  0.0264
 1329loPI   PO421252   0.914  14.595   4.230  0.0538 -0.2227  0.0618
 1329loPI   GL121253   0.895  14.412   4.698  0.0253  0.0809  0.0258
 1329loPI   GL221254   1.104  14.603   4.911  0.0738  0.1096 -0.1902
 1329loPI   C1A21255   0.673  14.103   4.981 -0.3419  0.1919  0.3427
 1329loPI   C2A21256   0.796  14.007   5.378  0.2373 -0.0077 -0.0585
 1329loPI   C3A21257   0.808  13.903   5.756 -0.0891  0.0181 -0.4731
 1329loPI   C4A21258   0.705  13.839   6.187 -0.3474  0.1324 -0.1171
 1329loPI   C5A21259   0.430  13.960   6.524 -0.1292 -0.2239  0.0283
 1329loPI   C6A21260   0.319  13.853   6.861 -0.0391  0.1338 -0.1040
 1329loPI   C1B21261   0.797  14.489   5.272  0.3746 -0.0121 -0.0196
 1329loPI   C2B21262   0.694  14.522   5.705 -0.3486 -0.2157  0.0006
 1329loPI   C3B21263   0.633  14.904   6.010 -0.0942  0.0712  0.0900
 1329loPI   C4B21264   0.893  15.248   5.999  0.0792 -0.0265  0.1701
 1330loPI    C121265   7.414  15.339   4.518 -0.1270 -0.0354  0.1876
 1330loPI    C221266   7.024  15.425   4.509 -0.1340 -0.0883 -0.1511
 1330loPI    C321267   7.152  15.066   4.389  0.0177 -0.0789 -0.0203
 1330loPI   PO421268   7.463  15.351   4.781 -0.3289  0.2163  0.0940
 1330loPI   GL121269   7.473  15.507   5.198  0.1997 -0.4201 -0.0113
 1330loPI   GL221270   7.251  15.183   5.335  0.2017 -0.1282  0.0696
 1330loPI   C1A21271   7.826  15.325   5.570  0.3524  0.2133 -0.0568
 1330loPI   C2A21272   7.839  15.318   5.993  0.0322 -0.0868 -0.2301
 1330loPI   C3A21273   7.860  15.557   6.418  0.1224  0.0527  0.0770
 1330loPI   C4A21274   8.067  15.939   6.604  0.0037 -0.0950  0.0720
 1330loPI   C5A21275   8.354  15.965   6.965  0.0346  0.3512  0.0225
 1330loPI   C6A21276   8.621  15.806   7.247  0.2749  0.1032 -0.0834
 1330loPI   C1B21277   7.375  15.471   5.669 -0.2465 -0.2199 -0.0291
 1330loPI   C2B21278   7.170  15.772   5.996 -0.0395 -0.1654  0.0971
 1330loPI   C3B21279   7.119  15.818   6.464  0.0914 -0.0814 -0.1169
 1330loPI   C4B21280   7.141  16.031   6.858  0.1830 -0.0114 -0.0192
 1331loPI    C121281  11.202  12.144   4.374 -0.1561 -0.1487  0.1066
 1331loPI    C221282  11.325  12.064   4.002 -0.1248 -0.0278  0.0904
 1331loPI    C321283  10.949  11.979   4.112 -0.0616 -0.2956  0.1067
 1331loPI   PO421284  11.378  11.965   4.522  0.0973  0.1541  0.0805
 1331loPI   GL121285  11.280  11.795   5.014 -0.1040 -0.1569 -0.2637
 1331loPI   GL221286  11.320  11.981   5.155  0.1081 -0.2676 -0.1526
 1331loPI   C1A21287  11.221  11.480   5.305  0.1111 -0.0789 -0.1079
 1331loPI   C2A21288  11.335  11.458   5.667  0.1761  0.0114 -0.5396
 1331loPI   C3A21289  11.486  11.443   6.126 -0.2434  0.1580  0.0419
 1331loPI   C4A21290  11.565  11.428   6.563 -0.3020 -0.0264 -0.2943
 1331loPI   C5A21291  11.528  11.259   6.932  0.0777 -0.0348  0.4051
 1331loPI   C6A21292  11.622  10.972   7.265 -0.1486  0.3811 -0.0331
 1331loPI   C1B21293  11.667  11.834   5.410 -0.2448 -0.2365 -0.0920
 1331loPI   C2B21294  11.755  11.808   5.844 -0.0554 -0.1207 -0.2378
 1331loPI   C3B21295  12.090  11.774   6.054 -0.1116 -0.0739  0.0375
 1331loPI   C4B21296  12.313  11.713   6.456  0.0844  0.0709 -0.3887
 1332loPI    C121297  10.063   2.359   4.650  0.1589 -0.1536  0.1733
 1332loPI    C221298   9.838   2.099   4.855 -0.0509  0.1369  0.3182
 1332loPI    C321299   9.823   2.105   4.455 -0.1171 -0.0086  0.3177
 1332loPI   PO421300  10.240   2.411   4.742  0.1422 -0.0019 -0.1984
 1332loPI   GL121301  10.188   2.444   5.109 -0.3672  0.1420  0.0763
 1332loPI   GL221302   9.904   2.544   5.096  0.2035  0.1687 -0.1185
 1332loPI   C1A21303  10.172   2.191   5.324 -0.0105  0.0937  0.1080
 1332loPI   C2A21304  10.095   2.222   5.773  0.0650  0.0050  0.1744
 1332loPI   C3A21305  10.087   2.095   6.192  0.2619  0.1164 -0.0264
 1332loPI   C4A21306   9.886   1.961   6.501 -0.3674 -0.0756  0.0006
 1332loPI   C5A21307   9.962   1.680   6.917 -0.0444  0.0418  0.1723
 1332loPI   C6A21308  10.190   1.447   7.257  0.3010 -0.0049 -0.1680
 1332loPI   C1B21309  10.029   2.694   5.466 -0.2752 -0.1891 -0.1446
 1332loPI   C2B21310  10.116   2.884   5.897 -0.0030  0.0866  0.0841
 1332loPI   C3B21311  10.098   2.850   6.209 -0.0622  0.1022 -0.2546
 1332loPI   C4B21312  10.219   2.899   6.584  0.0272 -0.0644 -0.1634
 1333loPI    C121313   3.966  16.842   4.518 -0.0117  0.1280  0.0004
 1333loPI    C221314   3.784  16.569   4.289  0.1954 -0.0890  0.0896
 1333loPI    C321315   3.933  16.901   4.123  0.0404 -0.0809 -0.0367
 1333loPI   PO421316   4.137  16.807   4.729  0.0665  0.2223  0.1479
 1333loPI   GL121317   4.149  16.618   5.157 -0.0062 -0.2114  0.0892
 1333loPI   GL221318   3.876  16.708   5.274 -0.3256  0.0171  0.2065
 1333loPI   C1A21319   4.371  16.784   5.583  0.0540  0.0120  0.2840
 1333loPI   C2A21320   4.156  16.941   5.809 -0.0849 -0.1006 -0.2733
 1333loPI   C3A21321   3.975  17.090   6.157 -0.2639  0.1371  0.0237
 1333loPI   C4A21322   3.842  16.877   6.495  0.2733  0.0936  0.3168
 1333loPI   C5A21323   3.686  17.108   6.911 -0.0574 -0.0999 -0.1067
 1333loPI   C6A21324   3.887  17.237   7.276  0.3658  0.1095  0.0984
 1333loPI   C1B21325   3.700  16.843   5.609  0.0149  0.2470 -0.0456
 1333loPI   C2B21326   3.479  17.031   6.013 -0.0152 -0.0017 -0.1405
 1333loPI   C3B21327   3.343  17.283   6.384  0.2795  0.1034 -0.1434
 1333loPI   C4B21328   3.421  17.489   6.686  0.1085  0.4262  0.0902
 1334loPI    C121329   1.575   1.348   4.403 -0.1458 -0.3076  0.0026
 1334loPI    C221330   1.419   1.285   4.040  0.3696  0.1109 -0.3072
 1334loPI    C321331   1.687   1.029   4.190 -0.0104 -0.1837 -0.1149
 1334loPI   PO421332   1.410   1.349   4.573 -0.0019 -0.2817 -0.3033
 1334loPI   GL121333   1.183   1.442   4.985 -0.0389 -0.1587 -0.3061
 1334loPI   GL221334   0.782   1.227   5.111 -0.1928 -0.4208  0.0599
 1334loPI   C1A21335   1.257   1.181   5.406  0.0708  0.2426 -0.0146
 1334loPI   C2A21336   1.449   1.136   5.824  0.1069  0.2586  0.1241
 1334loPI   C3A21337   1.481   0.963   6.216 -0.0541  0.0764  0.0764
 1334loPI   C4A21338   1.378   0.734   6.662 -0.2887 -0.2093  0.0249
 1334loPI   C5A21339   1.453   0.824   7.026 -0.0717  0.1480 -0.0526
 1334loPI   C6A21340   1.460   0.750   7.452  0.0379 -0.1901  0.2398
 1334loPI   C1B21341   0.412   1.368   5.321 -0.0413 -0.0133 -0.1871
 1334loPI   C2B21342   0.515   1.684   5.680 -0.0668  0.2737 -0.1480
 1334loPI   C3B21343   0.827   1.825   5.911  0.1312 -0.1228 -0.3542
 1334loPI   C4B21344   1.099   1.993   5.772 -0.0494  0.1567  0.3684
 1335loPI    C121345   1.057  15.600   3.979  0.0065  0.0676  0.0050
 1335loPI    C221346   1.041  15.477   3.599  0.1467 -0.0536  0.0376
 1335loPI    C321347   1.287  15.776   3.703  0.2198 -0.1211  0.0600
 1335loPI   PO421348   1.158  15.408   4.157  0.2200 -0.0270  0.0349
 1335loPI   GL121349   1.250  15.102   4.455 -0.0585  0.2158  0.3499
 1335loPI   GL221350   0.937  14.935   4.595 -0.1063  0.2919 -0.1995
 1335loPI   C1A21351   1.378  15.021   4.899 -0.1547  0.2753 -0.0972
 1335loPI   C2A21352   1.426  14.671   5.353 -0.0683  0.0213  0.2196
 1335loPI   C3A21353   1.478  14.679   5.782  0.2974  0.1073  0.1125
 1335loPI   C4A21354   1.612  14.832   6.218  0.0154 -0.2899 -0.3000
 1335loPI   C5A21355   1.544  14.673   6.646 -0.1253 -0.2592 -0.3173
 1335loPI   C6A21356   1.468  14.319   6.896 -0.1476 -0.0593  0.0062
 1335loPI   C1B21357   0.654  14.900   4.913 -0.0708  0.2352 -0.0331
 1335loPI   C2B21358   0.293  15.032   5.006 -0.0637  0.1400  0.3088
 1335loPI   C3B21359   0.246  15.316   5.286 -0.0706  0.0654 -0.0735
 1335loPI   C4B21360   0.491  15.755   5.335 -0.1785 -0.1462 -0.3957
 1336loPI    C121361  14.642  18.178   4.543  0.2487 -0.0277 -0.0580
 1336loPI    C221362  14.821  18.534   4.576  0.0050  0.1072 -0.1554
 1336loPI    C321363  14.892  18.303   4.257  0.0871  0.1114 -0.1405
 1336loPI   PO421364  14.510  18.117   4.595 -0.1138  0.2996  0.0534
 1336loPI   GL121365  14.144  18.078   4.888  0.2118 -0.0639  0.2271
 1336loPI   GL221366  14.017  17.776   5.042 -0.0502 -0.0083  0.2122
 1336loPI   C1A21367  14.187  18.332   5.303 -0.0898  0.3038  0.0048
 1336loPI   C2A21368  13.951  18.386   5.637  0.1360 -0.1699 -0.1084
 1336loPI   C3A21369  13.904  18.639   5.935  0.4296  0.0910  0.0168
 1336loPI   C4A21370  13.870  18.654   6.334  0.1863 -0.0253  0.1074
 1336loPI   C5A21371  13.661  18.839   6.688  0.2970 -0.1320 -0.1089
 1336loPI   C6A21372  13.817  19.036   7.177  0.0779  0.1207  0.2232
 1336loPI   C1B21373  14.007  17.903   5.456 -0.0480 -0.0049  0.3185
 1336loPI   C2B21374  14.066  18.012   5.971 -0.0124 -0.0474  0.1512
 1336loPI   C3B21375  14.253  18.178   6.323  0.0522  0.1626  0.1901
 1336loPI   C4B21376  14.300  18.390   6.676  0.1305 -0.1738  0.0517
 1337loPI    C121377   1.112   7.778   4.000  0.2586  0.3660 -0.1115
 1337loPI    C221378   1.076   7.527   3.690  0.0972  0.1280  0.0967
 1337loPI    C321379   1.405   7.751   3.729  0.1909  0.0369 -0.1559
 1337loPI   PO421380   0.777   7.679   4.168 -0.0375  0.0448  0.0412
 1337loPI   GL121381   0.506   7.752   4.545  0.4391  0.1036  0.3110
 1337loPI   GL221382   0.299   7.620   4.814 -0.1521  0.1962 -0.0212
 1337loPI   C1A21383   0.315   8.121   4.879 -0.3445 -0.1128 -0.0271
 1337loPI   C2A21384   0.442   7.983   5.269 -0.1430  0.0644 -0.0364
 1337loPI   C3A21385   0.371   7.850   5.675  0.1867  0.0056  0.1353
 1337loPI   C4A21386   0.093   7.896   6.116 -0.1393  0.1447  0.0991
 1337loPI   C5A21387  -0.204   8.106   6.309 -0.1118  0.0226  0.0082
 1337loPI   C6A21388  -0.121   8.442   6.507 -0.1090 -0.0972 -0.0939
 1337loPI   C1B21389   0.274   7.474   5.252 -0.2197  0.3260  0.0845
 1337loPI   C2B21390  -0.048   7.533   5.533 -0.3711  0.0499  0.1949
 1337loPI   C3B21391  -0.303   7.936   5.677  0.0077 -0.1149  0.2087
 1337loPI   C4B21392  -0.468   7.981   5.931  0.1771 -0.1888  0.0670
 1338loPI    C121393  10.790   9.060   4.202 -0.1511  0.0878  0.0298
 1338loPI    C221394  10.680   8.715   4.033  0.0747  0.0755 -0.0963
 1338loPI    C321395  10.621   9.060   3.839  0.0505  0.0887 -0.0655
 1338loPI   PO421396  11.101   9.016   4.215 -0.0332 -0.1865  0.2061
 1338loPI   GL121397  11.331   9.180   4.618 -0.2994  0.2237  0.1713
 1338loPI   GL221398  11.558   9.436   4.622 -0.0191  0.0220 -0.2267
 1338loPI   C1A21399  11.494   9.203   5.106 -0.1527 -0.2108 -0.0616
 1338loPI   C2A21400  11.840   9.245   5.409  0.1331  0.0923  0.1175
 1338loPI   C3A21401  12.158   9.185   5.717  0.0791  0.1424 -0.4311
 1338loPI   C4A21402  12.038   9.191   6.192  0.0621  0.2401 -0.1169
 1338loPI   C5A21403  11.955   9.510   6.533 -0.0426  0.3149  0.0498
 1338loPI   C6A21404  12.076   9.493   6.863 -0.5738 -0.1603  0.3105
 1338loPI   C1B21405  11.539   9.735   5.031  0.1239  0.1173 -0.1855
 1338loPI   C2B21406  11.802   9.722   5.317 -0.1282  0.1629 -0.0072
 1338loPI   C3B21407  12.167   9.616   5.440 -0.0978  0.0898  0.0634
 1338loPI   C4B21408  12.463   9.801   5.698  0.0405 -0.0531  0.0646
 1339loPI    C121409   5.747  12.665   4.752  0.0413 -0.1660 -0.0484
 1339loPI    C221410   5.822  12.973   4.997  0.0701 -0.1822 -0.0367
 1339loPI    C321411   5.897  13.005   4.605 -0.1522 -0.0901 -0.0737
 1339loPI   PO421412   5.415  12.592   4.829  0.1440 -0.3956  0.0852
 1339loPI   GL121413   5.290  12.406   5.242  0.1916 -0.3648  0.1423
 1339loPI   GL221414   4.964  12.330   5.096  0.0806 -0.0175 -0.1055
 1339loPI   C1A21415   5.001  12.438   5.700 -0.3804 -0.1132 -0.0115
 1339loPI   C2A21416   4.953  12.302   6.039  0.0375 -0.3421  0.1150
 1339loPI   C3A21417   4.818  12.147   6.453  0.3213  0.0482  0.2416
 1339loPI   C4A21418   4.792  11.802   6.743 -0.2031 -0.2031 -0.0552
 1339loPI   C5A21419   4.631  11.529   6.937 -0.1304 -0.0359  0.2308
 1339loPI   C6A21420   4.362  11.304   7.199  0.1738  0.3146  0.1459
 1339loPI   C1B21421   5.006  12.037   5.423  0.2543  0.0034  0.0901
 1339loPI   C2B21422   4.875  11.766   5.761 -0.0999  0.0350  0.1489
 1339loPI   C3B21423   4.751  11.369   5.790 -0.5699  0.2180 -0.3908
 1339loPI   C4B21424   4.822  11.119   6.098  0.2959 -0.1399  0.0561
 1340loPI    C121425  14.365  10.033   4.299  0.0914 -0.2368 -0.1791
 1340loPI    C221426  14.284  10.260   3.979 -0.0972  0.0604  0.0732
 1340loPI    C321427  14.662  10.151   4.057 -0.0144  0.2229 -0.0937
 1340loPI   PO421428  14.222  10.164   4.511  0.1370  0.3780  0.2586
 1340loPI   GL121429  14.080  10.221   4.954  0.0249  0.2899 -0.0924
 1340loPI   GL221430  14.145  10.519   4.938 -0.3562 -0.0826  0.1747
 1340loPI   C1A21431  14.208   9.875   5.141 -0.1567  0.0538 -0.2399
 1340loPI   C2A21432  14.395   9.667   5.576 -0.3145 -0.1968  0.0010
 1340loPI   C3A21433  14.535   9.523   5.973  0.2337 -0.1270 -0.1714
 1340loPI   C4A21434  14.426   9.520   6.402 -0.3270  0.0634  0.0538
 1340loPI   C5A21435  14.176   9.681   6.790  0.1339  0.1359  0.2186
 1340loPI   C6A21436  14.285   9.719   7.206  0.1498 -0.1690 -0.1818
 1340loPI   C1B21437  14.320  10.532   5.340  0.2996  0.0475  0.0472
 1340loPI   C2B21438  14.286  10.528   5.750  0.0981  0.1910  0.0575
 1340loPI   C3B21439  14.407  10.398   6.207  0.1513 -0.0595  0.0815
 1340loPI   C4B21440  14.382  10.203   6.664  0.0051 -0.2013  0.1024
 1341loPI    C121441   0.617  19.293   4.287 -0.0029 -0.0219 -0.1398
 1341loPI    C221442   0.221  19.341   4.314 -0.0194 -0.2533  0.0693
 1341loPI    C321443   0.400  19.347   3.956 -0.1589  0.2336  0.0014
 1341loPI   PO421444   0.660  19.447   4.443 -0.2328  0.0161 -0.0626
 1341loPI   GL121445   0.731  19.405   4.838 -0.2628  0.0689  0.1986
 1341loPI   GL221446   0.612  19.789   4.880 -0.2233 -0.0222  0.0975
 1341loPI   C1A21447   0.974  19.047   5.069 -0.1683 -0.2781  0.1448
 1341loPI   C2A21448   0.997  19.004   5.520  0.1659 -0.1368  0.0278
 1341loPI   C3A21449   0.988  18.846   5.906  0.2631  0.0995  0.1336
 1341loPI   C4A21450   0.742  19.017   6.206 -0.0293 -0.0354 -0.4286
 1341loPI   C5A21451   0.678  19.102   6.608 -0.0226 -0.0736 -0.0554
 1341loPI   C6A21452   0.921  19.144   7.046 -0.0685 -0.0067  0.2247
 1341loPI   C1B21453   0.836  19.914   5.255 -0.0447 -0.0712 -0.2713
 1341loPI   C2B21454   0.940  19.977   5.581  0.0095  0.0914  0.1215
 1341loPI   C3B21455   0.976  19.973   5.959 -0.0310  0.0201 -0.0621
 1341loPI   C4B21456   1.111  19.981   6.358  0.0174 -0.2745 -0.2152
 1342loPI    C121457   3.298  17.288   4.636 -0.1448 -0.1193  0.1037
 1342loPI    C221458   3.011  17.513   4.473  0.2880  0.1381 -0.3288
 1342loPI    C321459   3.090  17.150   4.323 -0.1031 -0.1262  0.0790
 1342loPI   PO421460   3.209  17.293   4.912  0.0053 -0.0416 -0.0217
 1342loPI   GL121461   3.176  17.549   5.327 -0.0927  0.4977  0.1009
 1342loPI   GL221462   3.015  17.511   5.415 -0.1112 -0.1486  0.2779
 1342loPI   C1A21463   3.514  17.377   5.547  0.2203  0.2007  0.1411
 1342loPI   C2A21464   3.829  17.578   5.725  0.2537 -0.0394  0.0922
 1342loPI   C3A21465   4.038  17.760   5.998 -0.0814 -0.0947 -0.1246
 1342loPI   C4A21466   4.386  17.657   6.331 -0.0217 -0.1503  0.1786
 1342loPI   C5A21467   4.306  17.685   6.742  0.1725 -0.1479 -0.1661
 1342loPI   C6A21468   4.133  17.802   7.177  0.2876  0.0580 -0.1761
 1342loPI   C1B21469   3.150  17.513   5.894  0.3280 -0.3046 -0.0111
 1342loPI   C2B21470   3.563  17.606   6.162 -0.2485 -0.0899  0.1122
 1342loPI   C3B21471   3.881  17.491   6.465  0.3028 -0.1846 -0.1754
 1342loPI   C4B21472   4.190  17.208   6.615  0.0688 -0.0249  0.0210
 1343loPI    C121473   4.854   6.286   4.524  0.1056 -0.2006  0.1231
 1343loPI    C221474   4.598   6.215   4.225  0.0297 -0.1942  0.1861
 1343loPI    C321475   4.988   6.259   4.148 -0.0133 -0.0126  0.0658
 1343loPI   PO421476   4.663   6.415   4.776 -0.2633 -0.0936  0.0989
 1343loPI   GL121477   4.478   6.727   5.140  0.0452  0.0685 -0.0350
 1343loPI   GL221478   4.771   6.729   5.310 -0.0768  0.2724  0.1000
 1343loPI   C1A21479   4.084   6.657   5.347  0.1639  0.1698  0.4757
 1343loPI   C2A21480   4.071   6.858   5.768 -0.4053  0.1524 -0.2867
 1343loPI   C3A21481   3.886   6.797   6.157 -0.1259 -0.1372 -0.3616
 1343loPI   C4A21482   3.971   6.904   6.632  0.2383 -0.0490 -0.0447
 1343loPI   C5A21483   3.721   6.917   6.916  0.1998  0.2178 -0.0935
 1343loPI   C6A21484   3.388   6.709   7.129  0.0195 -0.0140 -0.4684
 1343loPI   C1B21485   4.629   7.041   5.534  0.0768 -0.0450 -0.0732
 1343loPI   C2B21486   4.571   7.137   5.868  0.1948 -0.0382 -0.0062
 1343loPI   C3B21487   4.386   7.070   6.297 -0.0754  0.0499 -0.3352
 1343loPI   C4B21488   4.485   6.943   6.776  0.1291  0.0922  0.1256
 1344loPI    C121489   0.607   1.682   4.363  0.0450 -0.1048 -0.0708
 1344loPI    C221490   0.790   1.872   4.062  0.2088 -0.0368  0.0699
 1344loPI    C321491   0.838   1.477   4.108  0.0872 -0.0677 -0.0625
 1344loPI   PO421492   0.599   1.890   4.543 -0.1174  0.3128 -0.0582
 1344loPI   GL121493   0.737   1.698   4.961  0.2020 -0.2926  0.0706
 1344loPI   GL221494   0.884   2.007   5.053 -0.0152  0.1924  0.1022
 1344loPI   C1A21495   0.927   1.630   5.378 -0.2928  0.1625  0.1069
 1344loPI   C2A21496   0.860   1.378   5.720 -0.2519  0.0305 -0.0187
 1344loPI   C3A21497   0.744   1.330   6.175 -0.0604  0.1862 -0.2378
 1344loPI   C4A21498   0.673   1.461   6.593  0.1010 -0.0930  0.0230
 1344loPI   C5A21499   0.913   1.594   6.976 -0.1970  0.2997 -0.0625
 1344loPI   C6A21500   1.194   1.813   7.248  0.0423  0.0800  0.1718
 1344loPI   C1B21501   0.719   2.049   5.434  0.1183 -0.1177  0.1868
 1344loPI   C2B21502   0.409   2.169   5.669 -0.1257  0.1829 -0.0019
 1344loPI   C3B21503   0.327   1.979   6.058  0.2109  0.0898  0.0072
 1344loPI   C4B21504   0.290   1.549   6.126  0.0617  0.0889 -0.0473
 1345loPI    C121505   6.676   6.880   4.565 -0.1725 -0.0052 -0.2273
 1345loPI    C221506   6.896   7.076   4.835 -0.0336 -0.2705 -0.1440
 1345loPI    C321507   6.901   7.191   4.452  0.1738 -0.2123 -0.1253
 1345loPI   PO421508   6.482   6.786   4.708  0.1348  0.3672  0.2542
 1345loPI   GL121509   6.311   6.950   5.121  0.0329  0.0387 -0.2619
 1345loPI   GL221510   6.060   7.151   5.192  0.1114  0.1516  0.0701
 1345loPI   C1A21511   6.579   7.277   5.247 -0.0515 -0.3508  0.1602
 1345loPI   C2A21512   6.654   7.553   5.590  0.1428  0.2923  0.1436
 1345loPI   C3A21513   6.852   7.603   6.033 -0.1100 -0.0528  0.1934
 1345loPI   C4A21514   7.057   7.471   6.300 -0.0957 -0.0953  0.0178
 1345loPI   C5A21515   7.139   7.404   6.722  0.1088 -0.2524 -0.0054
 1345loPI   C6A21516   7.424   7.590   7.003  0.0114  0.2710 -0.3949
 1345loPI   C1B21517   6.163   7.294   5.519  0.0462  0.1231  0.2642
 1345loPI   C2B21518   6.293   7.395   5.950 -0.2573 -0.0001 -0.1727
 1345loPI   C3B21519   6.309   7.420   6.383  0.0677 -0.1058  0.0975
 1345loPI   C4B21520   6.676   7.418   6.690  0.1429  0.2004 -0.2700
 1346loPI    C121521   5.558   9.246   4.553 -0.3828 -0.1050 -0.1335
 1346loPI    C221522   5.747   8.904   4.640 -0.1277  0.0355 -0.1291
 1346loPI    C321523   5.808   9.083   4.287  0.0824  0.3044  0.0389
 1346loPI   PO421524   5.516   9.305   4.772 -0.3402  0.1267 -0.1234
 1346loPI   GL121525   5.472   9.446   5.162  0.0864 -0.0114 -0.1103
 1346loPI   GL221526   5.587   9.201   5.256 -0.4867 -0.1413  0.0935
 1346loPI   C1A21527   5.210   9.458   5.502  0.0321  0.2787 -0.2848
 1346loPI   C2A21528   5.050   9.681   5.891 -0.3527  0.0449  0.1179
 1346loPI   C3A21529   5.062   9.630   6.303 -0.2380 -0.1317  0.0162
 1346loPI   C4A21530   4.927   9.432   6.630  0.2379  0.1853 -0.1846
 1346loPI   C5A21531   4.607   9.362   7.016 -0.0246  0.1057  0.1333
 1346loPI   C6A21532   4.413   9.187   7.378  0.4616 -0.1305 -0.0162
 1346loPI   C1B21533   5.803   9.196   5.667 -0.0222 -0.4049 -0.0117
 1346loPI   C2B21534   6.075   8.960   6.065  0.0805 -0.2852  0.0073
 1346loPI   C3B21535   6.112   8.865   6.481  0.3519 -0.0525  0.1376
 1346loPI   C4B21536   6.172   9.050   6.902  0.2731 -0.0598 -0.3991
 1347loPI    C121537  12.726   5.433   4.529  0.0657 -0.0256 -0.0124
 1347loPI    C221538  12.694   5.828   4.469  0.0987 -0.0042  0.1074
 1347loPI    C321539  12.884   5.599   4.201 -0.1248  0.0256 -0.0794
 1347loPI   PO421540  12.543   5.362   4.629 -0.0874  0.1161 -0.0601
 1347loPI   GL121541  12.457   5.512   5.038  0.3476 -0.2132  0.1253
 1347loPI   GL221542  12.652   5.767   4.953 -0.1444 -0.2615 -0.4722
 1347loPI   C1A21543  12.417   5.436   5.423 -0.0846 -0.0303 -0.1937
 1347loPI   C2A21544  12.306   5.662   5.746 -0.1683  0.1043 -0.2849
 1347loPI   C3A21545  11.932   5.958   5.947 -0.1900  0.0620  0.1446
 1347loPI   C4A21546  11.987   6.130   6.357  0.1150  0.0785  0.1945
 1347loPI   C5A21547  12.104   6.030   6.741 -0.1274 -0.1604  0.2449
 1347loPI   C6A21548  12.076   6.229   7.172 -0.0221 -0.0326  0.0361
 1347loPI   C1B21549  12.554   5.886   5.349 -0.3135 -0.1457  0.2542
 1347loPI   C2B21550  12.531   6.117   5.848 -0.0467  0.1198  0.1085
 1347loPI   C3B21551  12.396   5.855   6.149 -0.0218 -0.3046 -0.1700
 1347loPI   C4B21552  12.452   5.736   6.591 -0.3655 -0.0655  0.0870
 1348loPI    C121553   6.753  19.552   4.376 -0.0115  0.1345 -0.1173
 1348loPI    C221554   7.110  19.392   4.292 -0.1120 -0.2179  0.1087
 1348loPI    C321555   6.836  19.435   4.003  0.1961  0.2887 -0.1214
 1348loPI   PO421556   6.686  19.481   4.645  0.0430 -0.1224 -0.2736
 1348loPI   GL121557   6.700  19.723   5.039 -0.2181  0.1173 -0.0691
 1348loPI   GL221558   6.444  19.522   5.120  0.0324  0.1496  0.1333
 1348loPI   C1A21559   6.798  19.935   5.309  0.1804 -0.2292  0.1040
 1348loPI   C2A21560   6.642  20.074   5.698 -0.0585  0.0969  0.1806
 1348loPI   C3A21561   6.804  20.082   6.073  0.0400  0.1705 -0.1031
 1348loPI   C4A21562   6.978  20.237   6.382  0.0125 -0.2330 -0.0024
 1348loPI   C5A21563   6.868  20.264   6.714  0.1040  0.2632 -0.5625
 1348loPI   C6A21564   6.931  20.005   7.182  0.1988  0.0246  0.0372
 1348loPI   C1B21565   6.474  19.594   5.521  0.1248 -0.1064  0.2609
 1348loPI   C2B21566   6.328  19.487   5.839  0.1741  0.0817  0.0802
 1348loPI   C3B21567   6.346  19.333   6.183 -0.1085  0.2623  0.1507
 1348loPI   C4B21568   6.168  19.037   6.518 -0.0547 -0.1242 -0.0857
 1349loPI    C121569  12.892   2.447   4.504 -0.0245 -0.1378  0.2470
 1349loPI    C221570  13.191   2.684   4.381  0.1027 -0.3093  0.2220
 1349loPI    C321571  12.888   2.599   4.134  0.1550 -0.3285  0.1644
 1349loPI   PO421572  12.720   2.563   4.778  0.0675  0.3452  0.0938
 1349loPI   GL121573  12.533   2.494   5.169 -0.0355 -0.1530  0.4096
 1349loPI   GL221574  12.376   2.724   5.186  0.0556  0.2085 -0.1988
 1349loPI   C1A21575  12.684   2.588   5.536 -0.2207  0.2706 -0.1355
 1349loPI   C2A21576  12.915   2.845   5.885 -0.1422 -0.4029  0.0138
 1349loPI   C3A21577  13.279   3.160   6.074  0.1781  0.0089 -0.1477
 1349loPI   C4A21578  13.460   3.640   6.129 -0.0209  0.0232 -0.0875
 1349loPI   C5A21579  13.518   4.125   6.241  0.3423 -0.0265 -0.0680
 1349loPI   C6A21580  13.400   4.485   6.255 -0.0532  0.0791 -0.1286
 1349loPI   C1B21581  11.937   2.672   5.260  0.0134  0.1993  0.0645
 1349loPI   C2B21582  12.029   2.741   5.733 -0.1500 -0.0333  0.0943
 1349loPI   C3B21583  12.313   2.796   6.006  0.2675 -0.0038  0.2345
 1349loPI   C4B21584  12.384   2.993   6.333  0.0788  0.0503  0.3726
 1350loPI    C121585   0.036   2.260   4.102  0.0363 -0.0308 -0.0078
 1350loPI    C221586   0.151   2.075   4.437 -0.0634  0.0873  0.0925
 1350loPI    C321587   0.274   1.939   4.082  0.1544  0.0433  0.1828
 1350loPI   PO421588  -0.202   2.376   4.345  0.0781 -0.1212 -0.0424
 1350loPI   GL121589  -0.247   2.524   4.776  0.1817  0.0781 -0.1369
 1350loPI   GL221590  -0.011   2.218   4.862  0.2732 -0.0356  0.0038
 1350loPI   C1A21591  -0.447   2.483   5.203 -0.0957 -0.0045  0.2772
 1350loPI   C2A21592  -0.524   2.583   5.580  0.0901 -0.0789  0.2618
 1350loPI   C3A21593  -0.430   2.538   5.976 -0.0322  0.1153  0.1048
 1350loPI   C4A21594  -0.726   2.729   6.225 -0.0668 -0.0590 -0.1269
 1350loPI   C5A21595  -0.741   2.627   6.610  0.0402 -0.4271 -0.1424
 1350loPI   C6A21596  -0.859   2.356   6.938 -0.1531  0.1417 -0.1048
 1350loPI   C1B21597  -0.021   2.254   5.275  0.0073  0.0579  0.2079
 1350loPI   C2B21598  -0.048   2.429   5.694 -0.0883  0.1472 -0.2047
 1350loPI   C3B21599   0.026   2.418   6.106  0.4196  0.1196 -0.2193
 1350loPI   C4B21600   0.121   2.265   6.510  0.0953 -0.0187  0.2004
 1351loPI    C121601  17.123  19.741   4.247 -0.0196 -0.0315 -0.0916
 1351loPI    C221602  16.982  19.367   4.233  0.0013 -0.0368 -0.1593
 1351loPI    C321603  17.143  19.532   3.906  0.2706 -0.0774 -0.0489
 1351loPI   PO421604  16.981  19.826   4.505  0.0243  0.1899  0.2952
 1351loPI   GL121605  17.067  20.022   4.808  0.2260 -0.2739  0.1085
 1351loPI   GL221606  17.345  20.076   4.855  0.0844 -0.2078 -0.0089
 1351loPI   C1A21607  17.051  19.963   5.275  0.0355  0.0497 -0.1865
 1351loPI   C2A21608  17.095  20.198   5.627  0.0531 -0.1920  0.1212
 1351loPI   C3A21609  17.086  20.066   5.941  0.1267 -0.2182  0.1082
 1351loPI   C4A21610  17.004  20.271   6.367  0.1765 -0.2411  0.0443
 1351loPI   C5A21611  17.287  20.495   6.667  0.1609  0.1663  0.0488
 1351loPI   C6A21612  17.469  20.815   6.688 -0.2468 -0.0344 -0.1217
 1351loPI   C1B21613  17.442  20.380   5.066  0.0655  0.0329  0.0169
 1351loPI   C2B21614  17.336  20.539   5.440 -0.1712  0.2214  0.0200
 1351loPI   C3B21615  17.425  20.880   5.817  0.1111  0.1557  0.1387
 1351loPI   C4B21616  17.386  21.081   6.221 -0.0210 -0.0291  0.0532
 1352loPI    C121617   5.811  12.084   4.534  0.0837 -0.2022  0.1921
 1352loPI    C221618   6.194  12.149   4.439 -0.0729 -0.0078 -0.3443
 1352loPI    C321619   5.982  11.874   4.240 -0.1658 -0.2528  0.0801
 1352loPI   PO421620   5.775  12.088   4.794  0.0207  0.0527  0.0656
 1352loPI   GL121621   5.663  12.173   5.093 -0.0198  0.1001  0.1769
 1352loPI   GL221622   5.775  12.437   5.296  0.0845  0.1887  0.2133
 1352loPI   C1A21623   5.543  12.121   5.566  0.0809 -0.0774  0.3612
 1352loPI   C2A21624   5.323  12.060   5.890 -0.0450  0.2532 -0.0695
 1352loPI   C3A21625   5.186  11.903   6.242  0.2089 -0.0116 -0.0268
 1352loPI   C4A21626   5.264  11.847   6.544  0.0801 -0.0598 -0.1592
 1352loPI   C5A21627   5.655  11.883   6.704 -0.0729  0.1625 -0.1133
 1352loPI   C6A21628   5.944  12.117   6.604 -0.0409 -0.0401 -0.1704
 1352loPI   C1B21629   5.882  12.477   5.723  0.0941  0.2751  0.0372
 1352loPI   C2B21630   5.906  12.492   6.207  0.1642 -0.1231 -0.1119
 1352loPI   C3B21631   6.176  12.621   6.549 -0.4037 -0.2974  0.1004
 1352loPI   C4B21632   6.428  12.786   6.831  0.1423  0.1974 -0.1801
 1353W        W21633  17.148   3.707   9.757  0.2433  0.1820 -0.1744
 1354W        W21634   8.714   0.908   1.926 -0.2833 -0.1935 -0.0627
 1355W        W21635  16.240  17.419  10.825  0.1303 -0.0581  0.1192
 1356W        W21636  10.763   4.741  13.420 -0.0364  0.1034  0.2445
 1357W        W21637   8.221   9.251   1.066 -0.0375 -0.3530  0.0161
 1358W        W21638  12.816   9.911   2.000  0.1976 -0.0381  0.0628
 1359W        W21639   4.914   6.657   3.408 -0.2600 -0.1654 -0.1243
 1360W        W21640  15.941   2.350   2.188  0.0415 -0.2301  0.0503
 1361W        W21641   1.847   2.383  11.626 -0.1635 -0.1884  0.0526
 1362W        W21642   2.908  15.698  13.659  0.0167  0.0355 -0.0795
 1363W        W21643  14.626  19.051   0.565  0.1879  0.1551  0.0113
 1364W        W21644  15.366   9.207   3.469 -0.1069  0.3004 -0.0440
 1365W        W21645  14.769   6.469   9.479 -0.1654  0.1834  0.0234
 1366W        W21646  17.773  16.931   0.682  0.3226 -0.2274  0.2368
 1367W        W21647  11.578  15.391   5.383 -0.0078 -0.3408  0.0721
 1368W        W21648  15.030  19.693  13.692  0.3437  0.1171  0.1207
 1369W        W21649   2.409  14.209   3.117  0.3021  0.3806  0.2250
 1370W        W21650   7.331   4.125   4.243 -0.1010  0.1480 -0.1059
 1371W        W21651   9.456   0.482   3.156  0.0077  0.2695  0.1145
 1372W        W21652  12.767   4.069   0.089 -0.2782  0.1295 -0.1529
 1373W        W21653  16.260   1.013   3.739  0.1380  0.0849  0.0889
 1374W        W21654  17.981  12.526   3.222 -0.3008  0.1000 -0.0337
 1375W        W21655  12.396   0.846   4.565 -0.0933  0.2203  0.1207
 1376W        W21656  14.878  11.711  12.213  0.0932  0.0326  0.2125
 1377W        W21657   5.058  18.092   9.329  0.0159 -0.1541 -0.1415
 1378W        W21658   9.810  11.186  13.842  0.1495  0.1523  0.1317
 1379W        W21659  12.428  10.678   3.647  0.2374 -0.1419 -0.1902
 1380W        W21660   4.401  19.384   0.180 -0.1193 -0.0189  0.1595
 1381W        W21661  14.428  12.390  12.738 -0.1038  0.3340 -0.1600
 1382W        W21662  19.016  10.593   1.411  0.0816  0.0097 -0.2422
 1383W        W21663  19.556   7.841   3.594 -0.0937 -0.0982  0.0802
 1384W        W21664  16.676  14.952   1.625 -0.2756  0.2374  0.2883
 1385W        W21665  16.563   4.824  13.281  0.3179  0.0393  0.1350
 1386W        W21666  10.943   2.757   0.920 -0.0633 -0.3307 -0.0399
 1387W        W21667   4.014  10.418  12.440 -0.0808  0.0193 -0.1092
 1388W        W21668   8.184   0.450   1.746 -0.2949 -0.3289  0.2923
 1389W        W21669   1.072  16.359  10.327 -0.1836 -0.3617  0.0108
 1390W        W21670   1.208  18.581   1.799 -0.2029  0.0884  0.2311
 1391W        W21671   8.633  10.307   2.470 -0.4288 -0.0140 -0.0923
 1392W        W21672  18.165  10.040   0.270  0.0024  0.0823  0.1534
 1393W        W21673  10.117  18.772   0.409  0.3514 -0.0499 -0.0137
 1394W        W21674  10.808   7.610   2.936 -0.4414 -0.0357  0.2987
 1395W        W21675  16.800  18.569   4.177  0.2780  0.0422  0.1234
 1396W        W21676   3.844  17.760  10.563  0.1614 -0.0948  0.1081
 1397W        W21677  16.197  16.822  13.405 -0.1578  0.0744 -0.0925
 1398W        W21678  11.227   2.187  13.222 -0.0041 -0.1281  0.1791
 1399W        W21679   5.823  14.790   0.196  0.0722 -0.0063  0.4294
 1400W        W21680  11.352  14.230   3.235  0.1505 -0.0102  0.0500
 1401W        W21681  13.895   3.343  12.432 -0.0386 -0.2205 -0.1412
 1402W        W21682  12.600  18.509  12.724  0.0649 -0.1244  0.1046
 1403W        W21683  17.833  10.721  10.876  0.4214 -0.1303 -0.2522
 1404W        W21684   3.000   1.872  12.249  0.1455  0.0186  0.2300
 1405W        W21685   2.129   1.647   9.210 -0.0134 -0.0083  0.0558
 1406W        W21686  15.577   8.535  11.056 -0.1026 -0.4206 -0.2073
 1407W        W21687  12.460  12.583  12.891  0.2586 -0.1921  0.0325
 1408W        W21688  13.230   1.684   3.330 -0.1420  0.1978 -0.0266
 1409W        W21689   9.219   3.402   0.599 -0.3184 -0.0863  0.2441
 1410W        W21690  17.948  19.177  10.091 -0.1063  0.1749  0.1555
 1411W        W21691   2.940  13.853  13.635  0.4314  0.0952  0.0312
 1412W        W21692   1.380  18.301  13.288  0.0395  0.2997  0.3031
 1413W        W21693   8.466  10.125   2.038 -0.0977  0.0143  0.0738
 1414W        W21694   6.427  12.063  11.193  0.0086  0.0821 -0.3641
 1415W        W21695   9.901  13.089   2.822  0.0036 -0.2120 -0.0004
 1416W        W21696   7.218   4.299   0.844  0.0406  0.0985  0.1334
 1417W        W21697   7.809  18.531  11.895 -0.0741  0.0339 -0.2319
 1418W        W21698  15.752   1.125   1.980  0.1861 -0.3561 -0.0974
 1419W        W21699   6.233  10.788   4.060  0.1954  0.0208 -0.1623
 1420W        W21700   3.090   4.126  12.264  0.2421 -0.0266 -0.1483
 1421W        W21701   0.481   0.441  10.607 -0.1000  0.1093 -0.0895
 1422W        W21702  11.104   9.190  10.084 -0.0073  0.0150 -0.1879
 1423W        W21703   9.046   9.019   3.985 -0.2170  0.2065 -0.2228
 1424W        W21704  17.041   7.297   0.572  0.2306  0.0244  0.0063
 1425W        W21705  17.266  14.179  11.320 -0.1516 -0.2017 -0.0640
 1426W        W21706   5.782   4.749   4.130  0.3064 -0.0200 -0.0836
 1427W        W21707  15.279   3.658  10.087  0.0208 -0.3359  0.0477
 1428W        W21708  13.644  13.133   1.907  0.0855  0.2114 -0.4263
 1429W        W21709  10.780  18.813   2.492  0.1042 -0.2007 -0.2871
 1430W        W21710  10.788   5.660   2.008  0.0419 -0.0754  0.0005
 1431W        W21711  16.259   3.706  12.655  0.0639 -0.1238 -0.1023
 1432W        W21712  13.839   2.744   1.968 -0.0266  0.0618  0.1726
 1433W        W21713   8.658   4.146  12.055 -0.1047  0.0895 -0.0132
 1434W        W21714  15.432  19.820   0.688 -0.2384  0.1673 -0.1502
 1435W        W21715   1.728   5.040   2.971  0.1181  0.1318  0.2338
 1436W        W21716   1.555   0.502  11.853 -0.2503  0.0673  0.3879
 1437W        W21717  15.942  16.875  10.018  0.0284 -0.2331 -0.2841
 1438W        W21718  14.421  17.030   9.169  0.3252  0.0308  0.0734
 1439W        W21719  15.909   5.994   2.129  0.1002  0.3117  0.1409
 1440W        W21720  11.220  19.886   0.837 -0.3929 -0.0846  0.0228
 1441W        W21721  11.103   7.712  13.814  0.1008 -0.2452 -0.1295
 1442W        W21722  15.114   1.646   1.705  0.0356  0.0063  0.1748
 1443W        W21723   5.503   3.204   3.264 -0.2458  0.0355 -0.1109
 1444W        W21724   1.524  15.982   0.599  0.0200 -0.1238  0.2816
 1445W        W21725  19.064   9.179   0.540  0.2751 -0.0057 -0.0444
 1446W        W21726   0.754   5.066   1.458  0.0118  0.0812 -0.2742
 1447W        W21727   6.592  11.719   1.393 -0.1666 -0.0629 -0.0654
 1448W        W21728   4.611  10.521   0.828  0.1616 -0.3717 -0.0664
 1449W        W21729   8.751  10.932   4.020 -0.1373  0.1944 -0.0850
 1450W        W21730  18.410   5.001   2.983  0.0100 -0.0877  0.0797
 1451W        W21731   4.908  14.418  10.845 -0.1425  0.0272  0.1339
 1452W        W21732  16.704  14.213  13.190  0.0583  0.0713  0.2814
 1453W        W21733   3.060   9.496   2.825 -0.0355 -0.1801  0.1303
 1454W        W21734  17.883   2.869  11.552  0.1718  0.0708  0.3132
 1455W        W21735  12.041  17.569   9.004  0.0115  0.1139 -0.1210
 1456W        W21736   4.191  16.624  12.042  0.1457 -0.2669 -0.0071
 1457W        W21737   5.751  11.870   0.257  0.2904  0.1844 -0.0308
 1458W        W21738   5.653  14.322   0.025 -0.0947 -0.1322  0.1867
 1459W        W21739   3.445   2.843  10.533 -0.1647  0.0503 -0.2079
 1460W        W21740  16.438  11.040  12.926 -0.0791  0.0151  0.4466
 1461W        W21741   5.366  13.652   0.971 -0.2493 -0.1367  0.0742
 1462W        W21742   6.392   7.436   2.106  0.0224 -0.1889 -0.1476
 1463W        W21743   3.808   2.319  13.199  0.1432 -0.1561  0.3976
 1464W        W21744   2.782  17.491   3.032  0.1704 -0.0001  0.0002
 1465W        W21745  14.438   0.671   2.039 -0.0201 -0.3467 -0.1472
 1466W        W21746   9.704   2.233   3.663 -0.1873 -0.2230 -0.0074
 1467W        W21747   4.863  14.295   2.600 -0.0051 -0.2383 -0.1981
 1468W        W21748   3.740  17.129   3.112 -0.1061  0.0626  0.0362
 1469W        W21749  17.447   4.423   3.425  0.0513  0.0059  0.1916
 1470W        W21750   0.369  13.946  12.067 -0.1645 -0.0519 -0.0375
 1471W        W21751   9.867   5.461  10.695 -0.0439 -0.1164  0.1767
 1472W        W21752  19.879  13.560   9.825  0.2150  0.0742  0.0674
 1473W        W21753   1.163  18.542   2.712  0.2633 -0.1600  0.1136
 1474W        W21754   9.769   3.089  11.306 -0.3113  0.1421  0.2724
 1475W        W21755  18.962   2.783   0.752 -0.0535  0.3640 -0.5569
 1476W        W21756   0.343   0.136   2.765  0.1010 -0.2689 -0.0217
 1477W        W21757   4.968  19.806  11.870  0.1387  0.1469  0.1007
 1478W        W21758   4.038   4.925  12.264  0.1277 -0.1248 -0.1845
 1479W        W21759   5.656  15.097  11.238  0.1790  0.1500  0.0848
 1480W        W21760  17.203  12.465  12.759  0.2067 -0.0269 -0.0260
 1481W        W21761   9.692   1.788   2.918  0.1721 -0.3248 -0.2059
 1482W        W21762   4.047  19.484   0.489 -0.0696  0.1418 -0.1162
 1483W        W21763  11.544   9.054  12.229  0.1245  0.0838  0.0950
 1484W        W21764   1.807  13.429   2.468 -0.0881 -0.0924  0.0154
 1485W        W21765   9.389   8.058   1.117  0.0027  0.0474 -0.0632
 1486W        W21766   4.128   6.010  11.271 -0.1059  0.1958 -0.2553
 1487W        W21767   4.081  15.949  10.761  0.0039 -0.0011 -0.0974
 1488W        W21768   9.838  17.062   0.763  0.3007 -0.1274  0.1359
 1489W        W21769   1.471   7.838   0.611 -0.0148  0.0847 -0.0991
 1490W        W21770  16.186  10.211   0.120 -0.1009  0.2413 -0.0761
 1491W        W21771  11.145   4.255  11.348  0.1330 -0.3951  0.1802
 1492W        W21772   3.987  15.419   2.747  0.2396  0.2450 -0.0095
 1493W        W21773  13.689  11.108   1.568 -0.0908 -0.1229 -0.0489
 1494W        W21774  16.116  13.092   0.763 -0.1517 -0.2880 -0.1664
 1495W        W21775  17.710  19.864   2.466  0.1752 -0.1372 -0.2160
 1496W        W21776  14.150  18.835  11.835 -0.0408  0.0819 -0.1216
 1497W        W21777   2.700   2.107   1.523 -0.2048  0.1424  0.1996
 1498W        W21778  18.853   3.608   2.383 -0.0828  0.0267  0.1502
 1499W        W21779   7.852   6.979   1.274 -0.2549 -0.0403 -0.0133
 1500W        W21780   5.316  11.781   2.987  0.2785  0.1437  0.4172
 1501W        W21781  18.763  17.199   0.511 -0.3942 -0.2628  0.0570
 1502W        W21782   3.252   2.544  13.353 -0.0254 -0.1295  0.0942
 1503W        W21783  15.372  16.719  13.708  0.3162 -0.1683 -0.3397
 1504W        W21784  13.162  17.858  12.719  0.0726 -0.1069  0.0514
 1505W        W21785   5.459  10.135   1.370 -0.3244 -0.2335  0.1219
 1506W        W21786  10.632   4.826  12.201 -0.0353  0.0421 -0.2270
 1507W        W21787   3.968  16.412  12.619  0.1091  0.3931 -0.1149
 1508W        W21788   4.094   7.823  11.456 -0.0599  0.0874  0.3814
 1509W        W21789  15.164  19.727  10.165 -0.0839  0.0374  0.2314
 1510W        W21790  13.277   2.610  13.818  0.1291  0.0264  0.1426
 1511W        W21791  16.882   7.009   0.195 -0.3848 -0.1820  0.0497
 1512W        W21792  11.555   0.072   9.209 -0.2615  0.3290  0.2225
 1513W        W21793   7.077  15.860  10.577  0.1841  0.1548  0.0839
 1514W        W21794   2.179   9.303  12.344  0.2394  0.0356  0.1508
 1515W        W21795   2.333   9.386   5.000  0.0742  0.1438 -0.1171
 1516W        W21796  19.321  10.930  11.640 -0.0965 -0.0136 -0.3179
 1517W        W21797  15.328   1.021  11.114  0.2771 -0.2503  0.2128
 1518W        W21798  19.393   4.044  13.427 -0.1155  0.2880 -0.1346
 1519W        W21799  13.345  19.609  11.486  0.0076 -0.0766  0.4169
 1520W        W21800   9.251   7.587  11.738 -0.0057  0.2773  0.0375
 1521W        W21801  12.293   2.728  10.692  0.0430  0.1618 -0.0123
 1522W        W21802   3.319   5.471  12.921  0.0720 -0.1039 -0.0159
 1523W        W21803  16.616  14.275  10.817 -0.2996  0.2143  0.1886
 1524W        W21804  19.642  15.458   0.255  0.0607 -0.0831  0.2808
 1525W        W21805   2.663  15.624  12.336  0.1637  0.1081 -0.0569
 1526W        W21806  18.511  12.502  12.274 -0.0336  0.1019 -0.2222
 1527W        W21807  13.371   4.095  13.278 -0.1592  0.1620 -0.1732
 1528W        W21808  14.611   3.068   4.152 -0.1361 -0.1313 -0.4404
 1529W        W21809  15.324  17.841   3.518  0.0317  0.0176 -0.0816
 1530W        W21810  14.359   4.339   1.525  0.0127 -0.1419 -0.0704
 1531W        W21811  19.033  12.966  13.414  0.0399 -0.3990  0.0119
 1532W        W21812  18.000  11.734  12.519 -0.2066 -0.2293 -0.2224
 1533W        W21813   3.022  17.566  10.838 -0.2935  0.1317  0.1133
 1534W        W21814   1.451  14.722   0.330  0.0326  0.2150 -0.6144
 1535W        W21815  16.314  14.737  10.537  0.0568  0.0244 -0.3002
 1536W        W21816   0.032  11.622   2.010 -0.4693 -0.0773 -0.0646
 1537W        W21817   6.691   6.102  11.415 -0.0549 -0.0180 -0.4340
 1538W        W21818  17.042  13.995  10.404  0.3268  0.0765  0.1815
 1539W        W21819   8.549  15.282   2.414  0.0881  0.1858  0.0326
 1540W        W21820  18.204   7.840  10.654 -0.0008  0.0901  0.0695
 1541W        W21821  12.280   6.895  10.245  0.1165  0.2551  0.0341
 1542W        W21822   3.399   8.510  10.281 -0.0318  0.1644 -0.2458
 1543W        W21823  14.455  12.698  11.170 -0.0189 -0.2334  0.4058
 1544W        W21824   7.450   5.513   0.679 -0.1382  0.0010  0.4429
 1545W        W21825  10.376   6.585  13.855 -0.1451 -0.0712 -0.2190
 1546W        W21826   8.589  19.653   2.072  0.0438 -0.0255 -0.2430
 1547W        W21827  17.731   9.683   1.952  0.1538  0.0758 -0.2372
 1548W        W21828  10.891   1.964   1.851 -0.0947  0.1313 -0.1374
 1549W        W21829   5.317   0.878   3.411 -0.0533 -0.0196  0.0829
 1550W        W21830  10.298  19.688  10.403 -0.0381  0.1152 -0.3384
 1551W        W21831   4.708  13.488  13.843 -0.1992  0.2883  0.3281
 1552W        W21832  13.536   6.329   0.364  0.2589 -0.0443 -0.0681
 1553W        W21833   8.922  19.453   3.534 -0.0592  0.0554 -0.1045
 1554W        W21834  11.638   2.000   2.386  0.0865  0.0062  0.0951
 1555W        W21835  16.775  17.863  12.610  0.1773 -0.4117  0.2366
 1556W        W21836   9.620   3.003   1.848  0.1263 -0.2138  0.0147
 1557W        W21837  18.752   4.446  11.175 -0.1389 -0.1070  0.5446
 1558W        W21838  11.877  17.311   1.687  0.1738 -0.0247  0.2348
 1559W        W21839   0.695  17.441   0.594  0.0745 -0.1157  0.0590
 1560W        W21840  14.466  18.192  10.033  0.0164 -0.0476  0.0489
 1561W        W21841  15.292  13.397   9.867 -0.0810 -0.0180  0.1575
 1562W        W21842   2.394  15.476   0.474  0.1557  0.0767 -0.1075
 1563W        W21843   5.200   3.790  10.729 -0.2112  0.0900  0.1778
 1564W        W21844  14.533  18.094   3.344 -0.1118  0.0835  0.1764
 1565W        W21845   7.148   2.599  13.620  0.0187  0.0071 -0.2128
 1566W        W21846   4.087   0.984  10.205 -0.3277 -0.1646 -0.0980
 1567W        W21847  18.621   1.393   9.898  0.0695 -0.0233 -0.0686
 1568W        W21848  18.361  15.350   1.800 -0.2088  0.1642  0.4005
 1569W        W21849   0.742  16.734  13.244  0.3330  0.1899  0.1559
 1570W        W21850   7.365  19.108   2.992 -0.1062  0.1182 -0.0743
 1571W        W21851   7.526   4.909   2.974  0.0236  0.0701  0.2743
 1572W        W21852  10.571  13.303   2.169 -0.0411 -0.0465  0.3232
 1573W        W21853   3.768   3.264  11.256  0.0063  0.2959  0.0471
 1574W        W21854   9.449   3.019  11.746  0.1955 -0.0844  0.1101
 1575W        W21855  12.889   3.016  12.668  0.0425 -0.0892  0.1480
 1576W        W21856  18.625   3.477   1.121  0.0259 -0.0957  0.2772
 1577W        W21857  11.466  15.537   1.960 -0.0097 -0.0167  0.0252
 1578W        W21858   2.804   8.246  10.460  0.1019 -0.0115  0.0574
 1579W        W21859   0.761   6.727  12.424 -0.0277 -0.0308  0.1586
 1580W        W21860  19.135   8.819   0.940  0.0909  0.0794  0.2649
 1581W        W21861  12.810  19.309   0.361  0.1039 -0.1290  0.0430
 1582W        W21862  12.494   3.244   9.987 -0.0871  0.0765  0.0819
 1583W        W21863   8.811  19.812   0.099  0.0434 -0.0180  0.0098
 1584W        W21864   3.477  16.909   4.393 -0.0081 -0.0323  0.2669
 1585W        W21865  19.199  14.091   1.413  0.0958 -0.0406  0.0683
 1586W        W21866  18.146  18.540   2.966 -0.3546 -0.0211  0.0605
 1587W        W21867  14.127  16.722  13.029 -0.1966  0.2614  0.2792
 1588W        W21868  13.431  10.784   0.846  0.1535  0.2809 -0.0469
 1589W        W21869   4.229   1.284  12.791  0.0413  0.0381  0.1578
 1590W        W21870  19.680  13.440   1.677  0.3564 -0.1007  0.0089
 1591W        W21871   5.595  17.420   4.598  0.2818 -0.2117 -0.0626
 1592W        W21872  12.946   9.287   3.055  0.2789  0.2250  0.0557
 1593W        W21873   9.619   4.315  11.101  0.2576 -0.0120 -0.1439
 1594W        W21874  13.299   8.183   2.413 -0.1374  0.0783  0.2611
 1595W        W21875  17.474  12.749   2.298 -0.1806 -0.2408  0.0350
 1596W        W21876   3.946   7.408  13.843 -0.2611 -0.0312  0.2668
 1597W        W21877  12.899  11.674  10.389  0.0127 -0.2779  0.1737
 1598W        W21878   3.566  18.525  11.730  0.1929 -0.3153  0.1532
 1599W        W21879  18.589  12.722  13.452  0.3874 -0.4199 -0.0519
 1600W        W21880   3.451  16.115   2.851 -0.1446  0.3829  0.3151
 1601W        W21881   9.527   4.790   2.209 -0.1783  0.0061 -0.0930
 1602W        W21882   7.443   6.814  13.136  0.0090 -0.1648  0.1004
 1603W        W21883  11.191  19.105  12.863 -0.1429  0.0276 -0.0543
 1604W        W21884   8.650  13.804   9.352  0.0684  0.1885  0.1308
 1605W        W21885   9.519   9.954   3.929  0.0460  0.0234 -0.1716
 1606W        W21886   0.394   9.952  10.762  0.0939 -0.2252  0.3516
 1607W        W21887   9.095  13.661  12.759 -0.0612  0.0667  0.0820
 1608W        W21888  18.152   7.307   0.137  0.1395  0.2376  0.1295
 1609W        W21889   1.853   2.905   0.091 -0.0325 -0.1560  0.1746
 1610W        W21890  10.647   2.075  12.090 -0.0600  0.0543  0.2906
 1611W        W21891  17.227  18.276   1.163  0.1426  0.3845  0.1912
 1612W        W21892   1.534  12.126   3.965 -0.1907  0.1106  0.1714
 1613W        W21893   2.335   0.122   1.779  0.3169 -0.0005 -0.0349
 1614W        W21894  16.452  14.376  12.270  0.1988 -0.1464 -0.0191
 1615W        W21895   1.149   2.278  12.310  0.0694 -0.1337  0.0944
 1616W        W21896   7.164  10.449  13.403 -0.1414 -0.1323 -0.1774
 1617W        W21897   8.512  17.869   2.509 -0.1712 -0.1626 -0.1913
 1618W        W21898   6.910   7.651   3.150  0.0413  0.3298  0.2062
 1619W        W21899   9.035   9.704   1.302 -0.4095 -0.3341  0.1996
 1620W        W21900   6.332  11.803   3.246  0.1959  0.1563  0.0799
 1621W        W21901  13.622  17.210  12.270 -0.1592  0.0371 -0.0337
 1622W        W21902   9.624  13.783  10.833  0.1186  0.1228 -0.2350
 1623W        W21903   5.826  16.705   2.915 -0.3156  0.0288 -0.2516
 1624W        W21904  17.684   5.790   9.809 -0.1845 -0.1844  0.1884
 1625W        W21905  13.434  18.407  10.839 -0.1098  0.2661 -0.1625
 1626W        W21906   8.832  16.498  11.579 -0.0103 -0.1528 -0.0758
 1627W        W21907  15.499   5.442   3.705 -0.3132 -0.0387 -0.0568
 1628W        W21908  16.767  18.245   1.893 -0.2311  0.1163  0.0692
 1629W        W21909  16.134   6.154  13.671 -0.2934  0.0459  0.2163
 1630W        W21910   3.471   9.398  10.599  0.1208 -0.0350 -0.6356
 1631W        W21911  10.279   5.379  11.431 -0.1206  0.1212 -0.4934
 1632W        W21912   2.420  19.342  11.539  0.0710 -0.0537  0.0074
 1633W        W21913  17.831   8.401  11.923 -0.2318 -0.0926  0.0655
 1634W        W21914  12.751  11.959   3.570  0.0461  0.0203  0.0950
 1635W        W21915   6.222   2.895  12.534 -0.1058 -0.0092  0.3081
 1636W        W21916   4.593   1.763   0.571 -0.2326 -0.4189 -0.1635
 1637W        W21917  11.115  14.891   1.395 -0.1063 -0.3168  0.0136
 1638W        W21918   0.393   4.740  11.782 -0.0955 -0.1561  0.3576
 1639W        W21919   2.598  15.184   2.921  0.0813 -0.0323 -0.0430
 1640W        W21920  12.986  10.166  10.513 -0.1435 -0.2779 -0.0115
 1641W        W21921   2.539   1.947  12.075  0.3807 -0.2483 -0.1168
 1642W        W21922   7.630  10.599  13.388 -0.1158 -0.0133 -0.0714
 1643W        W21923  11.584   1.473   3.197 -0.2399  0.0925 -0.1004
 1644W        W21924   7.444  17.151   0.021  0.0675 -0.3668 -0.2033
 1645W        W21925  13.155   0.740  11.056 -0.2027  0.2401 -0.2392
 1646W        W21926   1.909   4.398   0.703 -0.3241 -0.2165  0.0493
 1647W        W21927  11.097   6.430  12.748 -0.3215  0.3435  0.2238
 1648W        W21928  19.610  17.461   2.258  0.0313 -0.0512 -0.1305
 1649W        W21929   4.058  11.953   4.027 -0.3274 -0.0092  0.0937
 1650W        W21930   3.837   9.456   1.505  0.2382 -0.0602  0.0478
 1651W        W21931   7.587  16.997   3.012 -0.1164 -0.1361 -0.0636
 1652W        W21932  11.511   6.856  11.767 -0.0498 -0.0557 -0.0876
 1653W        W21933   5.350   9.197  13.124 -0.0396 -0.2612  0.0784
 1654W        W21934  10.373  10.547  13.713  0.1523  0.1199 -0.0758
 1655W        W21935  14.387  16.653  11.056  0.1991 -0.0859 -0.1004
 1656W        W21936  16.024   4.556   1.671  0.0673 -0.0317  0.0057
 1657W        W21937  18.187   1.554   0.762  0.0460 -0.0949 -0.0267
 1658W        W21938  13.268   4.474   2.662  0.1304  0.0876  0.3124
 1659W        W21939  10.846   3.552  10.668  0.1496 -0.1482 -0.0655
 1660W        W21940   9.012  14.546  12.240  0.0675 -0.1183  0.0241
 1661W        W21941   0.175   4.278   3.464  0.2066  0.0757 -0.3249
 1662W        W21942  17.908  19.782   0.768 -0.1403  0.1778  0.1306
 1663W        W21943   9.041   4.370  10.631 -0.1193  0.1194  0.0946
 1664W        W21944  10.088  10.299  11.539 -0.1212 -0.3029 -0.1574
 1665W        W21945   0.927  17.998   3.700  0.1584 -0.4941 -0.1025
 1666W        W21946   6.269   8.363  12.745 -0.0675  0.2544  0.1756
 1667W        W21947   3.238   5.797   1.113  0.0080  0.0879 -0.1215
 1668W        W21948  14.519   2.044  13.430  0.2392  0.5214 -0.1472
 1669W        W21949  12.244   5.782  13.158 -0.3735  0.1515 -0.0965
 1670W        W21950  13.788   7.190   1.841  0.3349  0.0577  0.0443
 1671W        W21951   9.226   9.128  11.077 -0.4467 -0.1844 -0.0080
 1672W        W21952  15.685  15.905  10.859 -0.0068  0.0617  0.1222
 1673W        W21953  12.673   4.340   4.015 -0.2467 -0.0048  0.1352
 1674W        W21954  16.385   2.109   2.375  0.4052  0.1190  0.1398
 1675W        W21955  10.572  17.921  11.462 -0.1799  0.0415  0.0533
 1676W        W21956   5.521  14.197   3.215 -0.1666 -0.1172 -0.1072
 1677W        W21957  11.891  16.224  12.774  0.2309  0.2856 -0.1643
 1678W        W21958   1.803   1.844   9.666  0.0250 -0.0313 -0.1393
 1679W        W21959   6.432   9.117   1.184  0.3178 -0.0513 -0.0912
 1680W        W21960  10.090   6.895  11.520 -0.1223 -0.0190  0.0436
 1681W        W21961   7.456  10.812   3.273  0.4401 -0.1440  0.0255
 1682W        W21962   6.677  15.427   1.136 -0.2415 -0.1485 -0.0908
 1683W        W21963   5.723  16.054   0.815 -0.1041 -0.2726 -0.0287
 1684W        W21964   1.334  11.643   2.823  0.0213  0.0223 -0.0340
 1685W        W21965  12.515   8.136   0.695 -0.0294  0.3019 -0.1236
 1686W        W21966   7.790   9.057  10.485  0.0002  0.0843  0.4728
 1687W        W21967  15.930   9.886   9.973 -0.1426  0.0477  0.1045
 1688W        W21968   4.057   6.197   2.400  0.0792 -0.0390 -0.0428
 1689W        W21969  15.436   6.607   4.033 -0.1608 -0.1784 -0.2796
 1690W        W21970   8.300  15.704  10.343  0.0731  0.0827  0.0543
 1691W        W21971   6.096  12.218  11.588 -0.1144 -0.1939  0.1060
 1692W        W21972   0.051   9.330  12.987  0.0468  0.0888 -0.0672
 1693W        W21973   8.194  18.024  12.783 -0.1609  0.0835  0.1679
 1694W        W21974  16.633   8.511  11.822  0.1421  0.1184  0.1713
 1695W        W21975  13.567  19.075  10.653  0.1302 -0.0052  0.0994
 1696W        W21976  14.649   6.972   1.809 -0.2420 -0.1872  0.1366
 1697W        W21977   7.627  19.440  12.066 -0.1214  0.0357  0.1445
 1698W        W21978   2.236   3.386   2.216 -0.0268  0.0852  0.3089
 1699W        W21979   3.733   3.860   0.295  0.1045  0.1618 -0.0541
 1700W        W21980  19.083   3.132  11.965  0.2732 -0.2103  0.4748
 1701W        W21981  16.151   0.624   0.707 -0.0254  0.1940  0.4097
 1702W        W21982  14.038   1.287  13.515 -0.3297  0.0707 -0.2929
 1703W        W21983  15.885  13.424  10.656 -0.3018  0.0563  0.0425
 1704W        W21984  16.666   9.533  12.988 -0.1552  0.0890 -0.2122
 1705W        W21985   2.497  19.834  11.351 -0.1797  0.0723  0.0146
 1706W        W21986   4.604   0.689   0.833  0.0763 -0.1110 -0.1976
 1707W        W21987   8.678  14.678  13.514  0.0337 -0.0721  0.1317
 1708W        W21988  16.733  10.119   0.167  0.0016 -0.0164  0.1299
 1709W        W21989  18.148  17.065   9.861 -0.0646 -0.2720  0.2160
 1710W        W21990  14.272  14.353   2.299 -0.0975  0.0843 -0.2440
 1711W        W21991   7.662   7.508   3.739  0.1411 -0.0349 -0.0021
 1712W        W21992  11.878   5.632  10.090  0.1775 -0.3717 -0.0987
 1713W        W21993  19.380   4.019   3.082 -0.0015  0.0807 -0.2356
 1714W        W21994  14.830  19.777  12.712 -0.0794  0.0243 -0.1966
 1715W        W21995  17.610   0.138   0.238  0.1017  0.0547  0.0518
 1716W        W21996   2.123  12.237  12.627 -0.1290 -0.2841  0.0149
 1717W        W21997   6.331  17.408   4.052 -0.1851  0.0646  0.0134
 1718W        W21998   3.988  17.532  11.894  0.0430 -0.1648  0.0286
 1719W        W21999  13.746  15.632   4.901 -0.1391  0.3424 -0.1445
 1720W        W22000   8.340  12.734  11.339 -0.2558  0.0789 -0.2300
 1721W        W22001  15.200   0.080   1.237 -0.0442 -0.3070  0.1222
 1722W        W22002  17.608  12.247  13.538  0.4843  0.1663 -0.2452
 1723W        W22003   9.960   4.038  11.635  0.1540 -0.1596  0.2679
 1724W        W22004  11.607  13.198   4.466  0.1512 -0.2190 -0.0983
 1725W        W22005   3.130  15.987   0.359  0.1465  0.0041  0.2873
 1726W        W22006   5.553   8.694   0.600 -0.3446  0.1513  0.0055
 1727W        W22007  11.599   5.924  10.894 -0.5789  0.0851  0.2498
 1728W        W22008  12.805   9.111   1.326 -0.0439 -0.0815  0.1082
 1729W        W22009  18.889  13.725   3.234  0.0597  0.1959  0.1307
 1730W        W22010   2.736  11.753  12.206  0.0004 -0.0206  0.1134
 1731W        W22011  15.314   1.066   1.167 -0.1515  0.0891 -0.0990
 1732W        W22012   1.635   8.735   1.124 -0.0214  0.0942 -0.2630
 1733W        W22013   6.046   6.525  11.482 -0.0252  0.2452  0.1373
 1734W        W22014   5.582   2.142   3.008  0.1476 -0.0266  0.0601
 1735W        W22015   4.535  19.695  12.177 -0.2086 -0.0973  0.1698
 1736W        W22016   1.191  12.709   1.378 -0.0595  0.1130  0.0800
 1737W        W22017  19.578   4.501  11.189 -0.1268 -0.0026  0.2407
 1738W        W22018   7.467  15.895  11.864 -0.0380  0.2961  0.2657
 1739W        W22019   3.642   5.443   9.182  0.1058 -0.1193 -0.0250
 1740W        W22020   6.738  10.192  11.399  0.1985 -0.2022 -0.0192
 1741W        W22021   4.769   5.515   2.310 -0.4599  0.2032 -0.2777
 1742W        W22022   2.326  13.870   1.807 -0.1589  0.3183  0.1257
 1743W        W22023   3.560   6.052   4.927 -0.1901  0.0331 -0.0403
 1744W        W22024  18.608  18.026   3.138  0.1570  0.0621 -0.0067
 1745W        W22025   7.387   7.706   3.302 -0.3252 -0.0205  0.2099
 1746W        W22026  14.267  11.093  13.703 -0.0543 -0.0601  0.0466
 1747W        W22027  10.981  15.694   2.249 -0.0011  0.1753  0.1335
 1748W        W22028  13.814  11.855  13.032 -0.1303  0.4346  0.4147
 1749W        W22029  10.885   2.103   2.986 -0.2008 -0.0879  0.1093
 1750W        W22030  12.848   5.987   2.690  0.3170  0.1743  0.1275
 1751W        W22031   3.065   6.686   2.378  0.1295  0.1329  0.0638
 1752W        W22032   3.061  15.273  13.453 -0.3456 -0.4491  0.0993
 1753W        W22033   2.352   5.809   1.975 -0.2639 -0.1390 -0.0275
 1754W        W22034   8.178  10.741  10.768  0.2495  0.0482 -0.2511
 1755W        W22035  17.476  15.731   0.706  0.1057  0.2237  0.0792
 1756W        W22036   0.427  15.884   2.185  0.3682  0.0513  0.0578
 1757W        W22037   4.544  19.297  13.028  0.1604  0.0371 -0.0290
 1758W        W22038  17.307  19.578   8.592 -0.0063 -0.0904 -0.0548
 1759W        W22039   5.788   9.905  10.410 -0.1074 -0.0795  0.0660
 1760W        W22040  14.911  15.639   1.710 -0.3080 -0.0252 -0.1651
 1761W        W22041  18.713   3.472   3.340  0.0945 -0.0197  0.1275
 1762W        W22042  14.864   9.873   1.278  0.0510  0.3636 -0.2573
 1763W        W22043  12.051  16.845   1.853  0.0920  0.2108 -0.2400
 1764W        W22044  17.429  17.992   9.870 -0.3329  0.0196  0.1758
 1765W        W22045   7.500   8.208   3.623  0.1780 -0.1421  0.3683
 1766W        W22046   8.287  15.474  12.989 -0.0765  0.1836 -0.1736
 1767W        W22047   5.618   5.778   2.967  0.2147 -0.1094 -0.0067
 1768W        W22048   9.745  12.897  11.321 -0.0908 -0.2686  0.1370
 1769W        W22049   2.574   7.362  12.467 -0.4411 -0.0964  0.0874
 1770W        W22050   3.044   0.995  13.119 -0.3727 -0.0640 -0.2176
 1771W        W22051  18.689  13.327   2.508  0.4320 -0.1305 -0.3441
 1772W        W22052  16.144  15.705   2.728 -0.2037  0.3583 -0.0523
 1773W        W22053  19.559  12.413   9.166 -0.0540  0.1743  0.3236
 1774W        W22054  11.492  14.440  11.019 -0.1869  0.4113  0.2058
 1775W        W22055   2.803   7.019  13.394  0.0830  0.2815  0.2007
 1776W        W22056   7.761   7.834   2.564  0.0583  0.2110 -0.2116
 1777W        W22057   6.521  14.662   0.874 -0.1538  0.0303 -0.4818
 1778W        W22058  14.352   6.876   0.327  0.0278  0.2645  0.1781
 1779W        W22059  13.317  15.344   1.399  0.1433  0.1715  0.1270
 1780W        W22060   7.904  12.595   1.751  0.0919 -0.1405  0.2296
 1781W        W22061  19.131   9.850   1.744  0.2200  0.1344  0.0051
 1782W        W22062   6.387   4.813  12.646  0.0026  0.1792 -0.0284
 1783W        W22063   2.934   4.000  10.551  0.0380 -0.0438 -0.1227
 1784W        W22064  16.273  12.639   0.942  0.0749  0.0077  0.1571
 1785W        W22065  10.582   8.324  12.009 -0.0199  0.0762 -0.0443
 1786W        W22066  19.305  16.566   2.756  0.0411 -0.0666  0.1708
 1787W        W22067  13.426  12.689   2.742  0.0553  0.1478 -0.2403
 1788W        W22068   7.513   1.237  12.939  0.2364  0.1564  0.0966
 1789W        W22069   3.518   0.689  12.320 -0.2041 -0.0086 -0.1633
 1790W        W22070   1.601   0.420  11.133  0.2011 -0.2682  0.1244
 1791W        W22071  10.349  19.937   0.041  0.0201  0.1439  0.2578
 1792W        W22072  10.151  13.476   0.103  0.0575 -0.1023  0.1137
 1793W        W22073  17.989   0.480  12.588  0.0238 -0.0932  0.3658
 1794W        W22074  17.916  10.543   1.154  0.1005 -0.1951 -0.0569
 1795W        W22075   5.020   8.885  11.592 -0.1967 -0.0378 -0.3309
 1796W        W22076   6.262  18.423  12.155  0.1092  0.1561 -0.1205
 1797W        W22077  13.548   0.470  12.959 -0.0540 -0.3508 -0.0901
 1798W        W22078  18.332   1.489  12.445 -0.0148  0.3158  0.0296
 1799W        W22079   9.857  14.973   2.959 -0.0347  0.0279 -0.1552
 1800W        W22080   6.602   7.383   0.708  0.0668  0.2557  0.2728
 1801W        W22081   4.087  17.394   3.524  0.2456 -0.3307 -0.0617
 1802W        W22082   5.934   7.574   2.340  0.0431  0.0751  0.0259
 1803W        W22083   5.299   5.087  12.926  0.0874 -0.0941 -0.0037
 1804W        W22084  19.009  15.854   3.319 -0.0292 -0.0388 -0.0388
 1805W        W22085  14.618   1.521   3.305 -0.0025 -0.2632  0.1956
 1806W        W22086  12.313   4.171   0.880 -0.0523  0.0667 -0.1072
 1807W        W22087  12.943   3.961  13.506 -0.0764 -0.3151 -0.3552
 1808W        W22088  13.215  17.302  12.652  0.0433  0.3128 -0.0110
 1809W        W22089  10.661  13.999   1.262 -0.0350 -0.0656  0.2127
 1810W        W22090  12.319  18.525  11.081  0.0245 -0.1168  0.1983
 1811W        W22091   6.630  17.825   4.141 -0.1706 -0.1706 -0.1204
 1812W        W22092  10.319  18.858   2.721 -0.3061  0.0809 -0.2517
 1813W        W22093  13.213   9.822  10.264 -0.4278  0.1156 -0.2332
 1814W        W22094  12.619   2.258   3.794 -0.4344 -0.0095  0.0243
 1815W        W22095  19.784  11.766  11.802 -0.0794  0.4519 -0.3344
 1816W        W22096   4.440  13.385  11.103  0.1148  0.0278 -0.3144
 1817W        W22097  19.864   8.041   3.093  0.0772  0.0638  0.0728
 1818W        W22098  13.256   9.417   1.459 -0.1629  0.0824  0.1027
 1819W        W22099   7.658   2.745  11.348  0.2620  0.0879 -0.2518
 1820W        W22100  16.035  16.629   0.591 -0.0466  0.1102  0.0909
 1821W        W22101   2.415   8.355   2.698 -0.2379 -0.0825  0.1430
 1822W        W22102  10.201  15.817  13.371  0.2639 -0.0722 -0.0128
 1823W        W22103   7.961   5.180   4.252 -0.2154  0.2853  0.2070
 1824W        W22104   8.696  13.812   0.112  0.1555  0.0270 -0.0490
 1825W        W22105  13.413   3.223  12.025  0.2365  0.1831 -0.0849
 1826W        W22106  17.549   7.983   2.234  0.1764  0.1477  0.1722
 1827W        W22107   9.453   9.538   2.058 -0.3703  0.1129  0.2030
 1828W        W22108   2.726  14.415  12.242 -0.0999  0.2050  0.0438
 1829W        W22109  12.034   8.446  11.536 -0.4051  0.0205 -0.0242
 1830W        W22110   9.828  18.981   0.043  0.0175 -0.3913  0.0183
 1831W        W22111   5.566   0.916   2.555  0.0492 -0.0788  0.4255
 1832W        W22112  13.418   0.110  11.701  0.1436 -0.2403 -0.1543
 1833W        W22113   1.297  14.860   3.980 -0.1095  0.0555 -0.3711
 1834W        W22114  15.316   9.808   3.200 -0.3193 -0.0137 -0.1335
 1835W        W22115  10.354  11.016   0.013  0.2194 -0.1906 -0.0255
 1836W        W22116  16.618  16.569  12.032 -0.0103 -0.1549  0.1081
 1837W        W22117  17.659  11.367  13.787 -0.1110  0.4102  0.1548
 1838W        W22118   8.553  16.806  12.610  0.0398  0.0207  0.0370
 1839W        W22119   9.744  15.772   1.966  0.0621  0.3753  0.0578
 1840W        W22120   8.257  15.703   0.721  0.1069 -0.2478  0.0868
 1841W        W22121  14.374   8.491  10.343  0.0484  0.0259 -0.2512
 1842W        W22122  13.385  14.914  10.254  0.0203  0.0511 -0.0158
 1843W        W22123  10.621  13.392   1.262 -0.2200  0.1841  0.0302
 1844W        W22124   1.494   5.439  13.788  0.4570  0.1649  0.0236
 1845W        W22125  18.613   2.547   3.636  0.0904  0.2032 -0.3277
 1846W        W22126   2.936  19.000   2.138 -0.2495  0.2634  0.0522
 1847W        W22127   5.071  16.384   2.233 -0.1173  0.0668 -0.0134
 1848W        W22128   7.549   2.487  13.261  0.2326  0.1657  0.2720
 1849W        W22129  12.407   4.865   2.314  0.0126  0.2950 -0.1175
 1850W        W22130   1.884   0.501   0.802 -0.1285  0.1647 -0.0059
 1851W        W22131   2.155  11.415  10.771 -0.0883 -0.0292 -0.0985
 1852W        W22132   3.829   6.790   8.984 -0.1969 -0.2338  0.1995
 1853W        W22133   2.192   4.742  11.608  0.0074  0.1484  0.2356
 1854W        W22134   0.150  10.698   1.351 -0.2389 -0.3815 -0.0382
 1855W        W22135   0.351  17.290  11.945  0.0278  0.0474 -0.0434
 1856W        W22136   8.445  13.584  11.317 -0.0105  0.0313  0.2761
 1857W        W22137   7.429   0.140   4.795 -0.0995  0.0664  0.0004
 1858W        W22138  13.371   3.413  10.962 -0.3698 -0.3629  0.4323
 1859W        W22139   4.549   9.948   3.727  0.2413  0.1567 -0.0700
 1860W        W22140   1.058  15.405  11.504  0.3336 -0.1935  0.1562
 1861W        W22141   3.070   9.961   3.857 -0.0271 -0.1725 -0.1390
 1862W        W22142   9.459  12.410   1.752  0.0638  0.3004  0.0979
 1863W        W22143   4.927  19.543  13.282 -0.2652  0.3650 -0.1490
 1864W        W22144   3.123   5.809  11.683  0.0754  0.0811 -0.1021
 1865W        W22145  13.047  12.667  13.521  0.1777  0.4512  0.1236
 1866W        W22146   5.204  12.369  11.547  0.0670  0.1657 -0.0681
 1867W        W22147  15.290   7.229  11.954 -0.1572  0.0018  0.1211
 1868W        W22148  17.417   2.106  10.213 -0.0365 -0.2889  0.0257
 1869W        W22149   5.525   6.377  11.591  0.0245  0.0181 -0.0203
 1870W        W22150   4.351   2.207   1.855 -0.1829  0.1819  0.3874
 1871W        W22151   6.141   8.652   0.949  0.2241  0.1854 -0.0508
 1872W        W22152  10.489   7.718   3.307 -0.0565  0.1064 -0.0742
 1873W        W22153   5.095  19.126  11.643  0.1954 -0.3633 -0.0008
 1874W        W22154  19.083   3.456   0.777  0.0841 -0.1029 -0.2771
 1875W        W22155  15.547  16.693   2.382 -0.1621 -0.0407  0.0093
 1876W        W22156   9.810   0.335  12.471 -0.0451  0.1276  0.0775
 1877W        W22157  15.783   6.008  12.741  0.4705  0.3080 -0.1256
 1878W        W22158   9.863   4.553   9.452 -0.2139 -0.4175 -0.3355
 1879W        W22159  15.937   1.469   1.338 -0.0225 -0.1175 -0.1818
 1880W        W22160   7.630   2.913   1.207 -0.0030 -0.1299 -0.1992
 1881W        W22161   2.685   2.751  12.030  0.0335 -0.0878  0.2690
 1882W        W22162  19.899   6.915   0.044  0.0732 -0.1976 -0.0764
 1883W        W22163   3.371  18.712   0.642 -0.1648  0.1010  0.0476
 1884W        W22164   6.718   9.835   2.187 -0.0518  0.1143  0.3769
 1885W        W22165   5.612  18.760  10.065 -0.2702  0.0796  0.1146
 1886W        W22166  13.804   3.693   1.878 -0.2900  0.0621 -0.2836
 1887W        W22167  17.241  16.419   9.667  0.2317 -0.0098  0.1574
 1888W        W22168  12.722   7.420   4.198 -0.3635 -0.1856  0.2584
 1889W        W22169   3.055  19.801  11.439  0.2100 -0.0564  0.1884
 1890W        W22170   9.233   2.403   1.276  0.2821  0.1465  0.0830
 1891W        W22171  18.555   1.761   3.621 -0.0299  0.0801 -0.0402
 1892W        W22172  14.283   1.113   0.187 -0.2338  0.0454  0.1692
 1893W        W22173  19.633   4.770  12.491  0.0596  0.0105 -0.3532
 1894W        W22174   5.314  19.235  13.697 -0.2913  0.1003 -0.0276
 1895W        W22175  13.669   7.074  10.055  0.0079 -0.3166 -0.1310
 1896W        W22176  13.441  14.499  11.665  0.3057 -0.1429  0.1919
 1897W        W22177  12.589   9.980   0.889 -0.2979 -0.0863 -0.0093
 1898W        W22178  14.038   3.386   2.645 -0.1278  0.2266 -0.2221
 1899W        W22179  17.994   0.304   9.888  0.0107 -0.1325  0.2221
 1900W        W22180   5.917   7.970   2.676 -0.0026  0.1144 -0.1183
 1901W        W22181  14.126  10.254   0.392 -0.0997  0.0537  0.2037
 1902W        W22182  11.719  11.934  12.654 -0.0482  0.0960 -0.0729
 1903W        W22183  18.468  14.499   0.927  0.0135  0.1800 -0.0457
 1904W        W22184   9.008   9.237   9.453 -0.2826  0.0958 -0.0175
 1905W        W22185  15.797   2.861   0.949 -0.1173 -0.1868  0.1388
 1906W        W22186  12.966   8.536  13.153 -0.3422  0.2857 -0.1139
 1907W        W22187  16.922  15.324   9.845 -0.0190  0.1135 -0.1420
 1908W        W22188  12.656  16.081  12.488 -0.0021  0.3042 -0.0065
 1909W        W22189   3.769   3.000   3.398  0.0343  0.3366  0.0900
 1910W        W22190  17.175  19.609   9.056  0.1932  0.2185  0.0054
 1911W        W22191   9.287   8.046   3.859 -0.1746  0.1014 -0.2369
 1912W        W22192  13.808   9.859  11.920 -0.0116  0.0374  0.0592
 1913W        W22193   8.742   2.634   1.251 -0.0411 -0.4159  0.1425
 1914W        W22194  15.222   2.903  10.846 -0.2489  0.2980 -0.2378
 1915W        W22195   6.209   7.608  10.810  0.2260 -0.1044 -0.1490
 1916W        W22196   9.890   7.392   5.247 -0.1025  0.2193 -0.0110
 1917W        W22197   6.987   1.001   0.867  0.0955 -0.2291  0.1304
 1918W        W22198   3.255   3.598  12.446 -0.0198  0.1178  0.1761
 1919W        W22199  18.806  11.782  13.397 -0.2337 -0.3202  0.0291
 1920W        W22200  19.370  18.674   2.260 -0.1489  0.0888 -0.0510
 1921W        W22201  17.144   3.032  11.927 -0.1884 -0.0122 -0.2474
 1922W        W22202   8.545  10.662   2.099  0.1723  0.1478 -0.2628
 1923W        W22203   2.850   3.740   2.796 -0.3054 -0.1759  0.1252
 1924W        W22204  19.883  14.598   2.518 -0.0341  0.0183 -0.0722
 1925W        W22205  12.272  16.366   4.303  0.0989 -0.0996  0.0804
 1926W        W22206   9.515  15.072   5.197 -0.0212  0.1939  0.1045
 1927W        W22207  14.097   7.469   3.153  0.1214 -0.0728  0.0063
 1928W        W22208  19.746   0.153  12.549 -0.0145  0.1468  0.1015
 1929W        W22209  10.863  14.567  10.107 -0.1550  0.1749 -0.0879
 1930W        W22210   0.531  10.699   2.970 -0.0539 -0.0204  0.2212
 1931W        W22211  17.900   8.546  11.026  0.5411 -0.2460  0.0915
 1932W        W22212   1.606   4.882   0.643 -0.3908  0.0599  0.1378
 1933W        W22213  10.400  13.291   3.290  0.3350  0.0463 -0.0144
 1934W        W22214   8.743  13.553  10.900  0.0032  0.2192  0.3186
 1935W        W22215  11.693  16.913   0.084  0.0444  0.0718  0.2619
 1936W        W22216   6.130   3.719  13.409 -0.0958 -0.0468 -0.0443
 1937W        W22217  14.453  13.821  11.509  0.0021 -0.1077  0.0263
 1938W        W22218  14.150  18.303   0.114  0.1885  0.1575  0.1530
 1939W        W22219   0.879  12.782  12.710  0.3247  0.5290  0.3923
 1940W        W22220  14.517  13.499   3.172  0.0762 -0.0398  0.0057
 1941W        W22221   0.596  17.009   1.779 -0.0298 -0.2742 -0.2160
 1942W        W22222  16.962   4.857   1.384  0.1701  0.2870 -0.0137
 1943W        W22223   1.848  17.532   3.647  0.1665 -0.1498 -0.3325
 1944W        W22224   7.641  19.951   9.807 -0.0384  0.2190 -0.3217
 1945W        W22225  16.891   6.673  13.685  0.1816  0.0156  0.2194
 1946W        W22226  16.131   1.956   0.394 -0.1506  0.0237  0.1346
 1947W        W22227   9.745  13.743   1.066 -0.6316  0.0245  0.0025
 1948W        W22228   1.327   9.226   2.368  0.3725 -0.1564  0.1785
 1949W        W22229   7.817  15.737  10.096 -0.0372  0.2406  0.0410
 1950W        W22230   6.590  16.077   1.085  0.0123 -0.1003  0.0571
 1951W        W22231  17.554  12.829  11.890 -0.0805  0.1178 -0.0401
 1952W        W22232  10.956   5.079   4.752 -0.1849  0.1583 -0.0943
 1953W        W22233   8.215   9.736   1.003 -0.0010  0.1591  0.2368
 1954W        W22234   0.689  15.490   0.402  0.0372 -0.3121 -0.1027
 1955W        W22235  12.794  19.115   1.443 -0.2628  0.3633  0.0725
 1956W        W22236   7.843   2.220  12.544 -0.1638 -0.3798  0.0109
 1957W        W22237   9.141   8.981   0.250  0.0447 -0.3664  0.0585
 1958W        W22238  16.721  13.200   2.381  0.2994  0.0131 -0.0319
 1959W        W22239   5.995  18.714  11.725  0.1529 -0.4418 -0.0746
 1960W        W22240  14.374   9.490   0.765  0.3829  0.0139 -0.0756
 1961W        W22241  18.401  15.737  13.499  0.2861  0.3457 -0.0924
 1962W        W22242   9.936  17.897   0.595 -0.1032 -0.0151 -0.0805
 1963W        W22243  16.156  15.501  12.427 -0.1654 -0.1638  0.2795
 1964W        W22244   2.853  17.133   2.673  0.0877  0.2725  0.1333
 1965W        W22245  13.898   0.281   0.111 -0.0355  0.2836 -0.0862
 1966W        W22246  15.466   9.249   9.588  0.0509  0.2336  0.2249
 1967W        W22247  11.978  18.321   2.864 -0.1593  0.1424 -0.1391
 1968W        W22248   7.942  15.284  12.601  0.2514 -0.2403 -0.1497
 1969W        W22249   2.284   4.585   0.495  0.0620 -0.2690  0.3717
 1970W        W22250  19.197  17.088   0.758  0.0860  0.0138  0.0908
 1971W        W22251   7.780  19.673   0.508  0.1675 -0.4461 -0.0039
 1972W        W22252  10.599   1.560  11.815 -0.0424 -0.1342 -0.2183
 1973W        W22253   3.209  19.882   0.339 -0.1547 -0.2167  0.1473
 1974W        W22254   8.047  14.017  11.398 -0.1685 -0.0189 -0.3809
 1975W        W22255   9.961   8.580  13.659  0.3136 -0.0989 -0.0776
 1976W        W22256  14.428  11.692  11.357 -0.3059 -0.1023 -0.2132
 1977W        W22257  19.540   8.184  13.344 -0.2552 -0.1100 -0.0242
 1978W        W22258   5.728  12.403   0.490 -0.0777  0.0753  0.1630
 1979W        W22259   8.370  13.818   1.264 -0.1750 -0.3004  0.1943
 1980W        W22260   5.258  13.908  12.592  0.1321  0.3408 -0.0871
 1981W        W22261   0.013  19.560   0.124 -0.1553  0.1333  0.0594
 1982W        W22262  17.782   7.443  11.470 -0.3615 -0.2184 -0.1228
 1983W        W22263   5.387   8.146  13.859 -0.2977 -0.1004 -0.1068
 1984W        W22264  14.413  14.939   1.441 -0.1379  0.0096  0.0177
 1985W        W22265   3.816   5.273   2.856 -0.0842  0.2583 -0.0695
 1986W        W22266   2.824   1.849   3.033  0.0081 -0.1464  0.1704
 1987W        W22267  18.040   0.859  12.179 -0.0084  0.0067 -0.0134
 1988W        W22268   7.814   4.375   3.853 -0.5401 -0.0535 -0.1409
 1989W        W22269  11.862   8.658  12.363  0.0113  0.0527 -0.0923
 1990W        W22270  10.065  18.134   3.299 -0.0260 -0.1138 -0.1462
 1991W        W22271   7.407  16.628   0.048  0.0181  0.2823  0.1175
 1992W        W22272  17.755  12.286   9.746  0.1164  0.4186 -0.0251
 1993W        W22273   7.060  12.553   0.269 -0.1083  0.0132 -0.0329
 1994W        W22274   1.735   1.543   2.362  0.0161 -0.0628  0.2097
 1995W        W22275   9.688   1.866  10.604  0.0251 -0.0344  0.0127
 1996W        W22276  17.567   5.681  12.898  0.5082  0.4260 -0.1037
 1997W        W22277  14.559   8.830   1.993  0.1007  0.0532 -0.2053
 1998W        W22278  12.440  17.650  12.655 -0.0778  0.3251  0.0431
 1999W        W22279   3.132  10.200   4.774  0.1756  0.2095  0.1663
 2000W        W22280  14.988   9.876  13.389  0.0957 -0.0690 -0.0358
 2001W        W22281  19.157   3.837  12.971 -0.3585 -0.2452  0.2948
 2002W        W22282   8.532  11.912  11.832  0.1244  0.3375 -0.1340
 2003W        W22283  15.599  12.004   1.203 -0.0367  0.1710  0.1338
 2004W        W22284   4.958   4.275  12.858 -0.0490 -0.2878 -0.3550
 2005W        W22285  13.526  10.784   0.153 -0.2267 -0.0392 -0.2406
 2006W        W22286  13.887  11.256   2.091 -0.0844 -0.0598 -0.0349
 2007W        W22287   5.819  10.539   3.926  0.1133 -0.0363 -0.0795
 2008W        W22288  13.015   1.042   2.452  0.1934  0.2029  0.5934
 2009W        W22289   1.853  10.069   0.739 -0.2039  0.1093  0.0778
 2010W        W22290   2.013   2.950   2.063 -0.1216 -0.1675  0.0901
 2011W        W22291   6.513  14.700  11.653  0.0135 -0.2543 -0.1058
 2012W        W22292  14.111   4.094  10.506  0.1362  0.2417  0.1020
 2013W        W22293   2.393  16.343   2.806  0.1453 -0.1893 -0.1320
 2014W        W22294   3.560   9.584  13.052 -0.0395  0.0181 -0.1273
 2015W        W22295   1.694   3.498   2.515 -0.1020  0.2975 -0.1272
 2016W        W22296   2.562   6.117   4.583  0.1463  0.1921  0.0226
 2017W        W22297   9.674  12.601   3.415  0.0130  0.3553  0.5768
 2018W        W22298   4.177  15.163   0.087 -0.0018  0.3313  0.2078
 2019W        W22299  13.155   7.258  10.591  0.2693  0.1804 -0.0051
 2020W        W22300   1.902  16.929   2.780  0.3694  0.2184  0.0438
 2021W        W22301  11.801   3.338   2.176  0.0406 -0.0660  0.0275
 2022W        W22302  16.240  13.538  11.064  0.0818 -0.0405  0.0492
 2023W        W22303  15.760  17.019  13.350  0.0187 -0.2877  0.1541
 2024W        W22304   8.901  16.031   2.201  0.2106 -0.0358  0.1977
 2025W        W22305   9.691  10.126   2.031  0.1060 -0.0763 -0.1772
 2026W        W22306   1.844   4.755   2.575  0.0479  0.1653 -0.1354
 2027W        W22307  15.111  15.944   0.589 -0.1303  0.0636  0.1199
 2028W        W22308   9.927  15.364  11.934 -0.2017  0.2268  0.1267
 2029W        W22309  14.667   8.789   3.978 -0.0639  0.0357  0.0915
 2030W        W22310  12.276  16.322  10.989 -0.0304  0.1105  0.1009
 2031W        W22311  16.078  13.526  10.203  0.0092 -0.0447 -0.4058
 2032W        W22312  19.811   1.187   1.878  0.1574  0.1197 -0.0107
 2033W        W22313  14.406  12.244   8.710 -0.1694  0.2678  0.0656
 2034W        W22314  13.400  19.672  10.195  0.5892 -0.1555 -0.2019
 2035W        W22315   0.467   1.781  13.240  0.0985 -0.0962  0.2035
 2036W        W22316   4.614  15.733   1.557  0.0510  0.1138 -0.1883
 2037W        W22317  19.040  17.958  11.036  0.1063 -0.0830  0.1207
 2038W        W22318   8.105   7.488  13.296 -0.2933 -0.1883 -0.0064
 2039W        W22319  10.527   3.794  13.386 -0.1482  0.0621  0.1807
 2040W        W22320  11.086  17.687   1.615 -0.0785  0.3412 -0.2162
 2041W        W22321  13.546  19.349   3.647  0.1868  0.2153  0.1886
 2042W        W22322   8.638  18.034   2.958  0.0032 -0.1275 -0.0525
 2043W        W22323  14.114  12.774  13.273 -0.0317 -0.0179 -0.0841
 2044W        W22324  13.302   5.156   2.923 -0.2216  0.4353  0.0081
 2045W        W22325  11.705   4.968   1.588  0.2720  0.0589 -0.3336
 2046W        W22326  10.804  16.226   0.565  0.2716 -0.0727  0.2182
 2047W        W22327   1.605  17.320  11.812  0.1503 -0.0765  0.1180
 2048W        W22328  11.020   8.742   4.604 -0.0321 -0.1622 -0.0089
 2049W        W22329   3.722   3.734  11.080  0.0769 -0.1170 -0.0214
 2050W        W22330  15.539  15.949  11.817 -0.2163  0.1860  0.0438
 2051W        W22331   3.737   0.370   1.683  0.2109 -0.1481  0.0592
 2052W        W22332   8.780  14.590  11.763  0.1530 -0.0583  0.0945
 2053W        W22333   1.895   1.135   2.636  0.1211 -0.0982 -0.2942
 2054W        W22334  19.847  15.979   3.130  0.1199 -0.3653 -0.2468
 2055W        W22335  16.854  14.279   1.749  0.1270  0.2819  0.1380
 2056W        W22336  15.263   6.917  11.502  0.0328  0.2885 -0.1799
 2057W        W22337  12.107   5.590  12.259  0.1394  0.0630 -0.2234
 2058W        W22338   4.745  13.927   9.986  0.0064  0.5183  0.1107
 2059W        W22339   7.652   7.183  10.535 -0.1144  0.1041 -0.0095
 2060W        W22340  17.581   8.278  13.584  0.2898  0.0832  0.0393
 2061W        W22341   4.049  14.484  13.090  0.2486  0.3226  0.1175
 2062W        W22342  12.149  17.758   9.959  0.0016  0.1521 -0.0176
 2063W        W22343  19.561   9.942  12.381  0.2452 -0.2636 -0.0457
 2064W        W22344   9.716  18.420  10.993 -0.1133 -0.1117  0.1153
 2065W        W22345   7.759  19.157   2.363  0.1014  0.3010 -0.0779
 2066W        W22346   3.325   0.321  11.487 -0.1587  0.1187 -0.3553
 2067W        W22347   0.474   3.214   3.908 -0.0868  0.2904 -0.2649
 2068W        W22348  16.235  16.949  12.891 -0.0743  0.1822 -0.0494
 2069W        W22349   7.077  10.167  10.683  0.0376 -0.0875 -0.1761
 2070W        W22350   4.688  14.497   2.117 -0.0063 -0.3724  0.4997
 2071W        W22351   7.821   2.813   3.019  0.1355 -0.0119 -0.3828
 2072W        W22352  14.476  16.883   3.443  0.0641 -0.0199  0.0396
 2073W        W22353  17.783  13.635  10.078 -0.2194 -0.0559 -0.0962
 2074W        W22354   0.099  13.164  13.118  0.1131 -0.0683 -0.2846
 2075W        W22355   2.518   0.663   0.100  0.0104 -0.0679  0.0601
 2076W        W22356  13.819  16.503   2.330 -0.0529  0.2711  0.1422
 2077W        W22357  14.162  10.644  12.921  0.0651 -0.0647  0.0729
 2078W        W22358  18.143  15.371  13.333  0.1507 -0.0463 -0.4689
 2079W        W22359  17.433  11.283   0.806  0.1282  0.0744  0.1348
 2080W        W22360  18.621   6.415   1.392 -0.1459  0.2801 -0.0015
 2081W        W22361   3.666  18.034   5.016  0.0298 -0.0083  0.2417
 2082W        W22362   2.249   4.480  12.686 -0.2796  0.1801  0.2146
 2083W        W22363  19.794  17.148   1.227  0.0176  0.0548  0.2385
 2084W        W22364  13.272  14.023   1.605 -0.1168 -0.1379 -0.3057
 2085W        W22365  15.190  15.722   9.108 -0.1467  0.1641 -0.3478
 2086W        W22366   4.617   1.140   1.023  0.0251  0.1117  0.2093
 2087W        W22367  10.928  14.813   0.131 -0.3493  0.1123 -0.2764
 2088W        W22368   3.911   8.002   1.626 -0.3635  0.0037  0.1300
 2089W        W22369   6.672  18.416   0.635  0.2334 -0.1907 -0.1088
 2090W        W22370  13.140   1.893   9.929  0.0384  0.0749  0.6081
 2091W        W22371  12.681  16.543  13.846 -0.1300 -0.0222  0.0811
 2092W        W22372   2.159  15.909  11.480 -0.1141 -0.2187  0.1976
 2093W        W22373  13.191  15.003   2.801  0.0188  0.2161  0.1077
 2094W        W22374  12.350  17.540   2.963  0.1892  0.1173 -0.2694
 2095W        W22375   2.211  10.464   2.018 -0.1662  0.1166  0.0798
 2096W        W22376  19.266   8.841   2.451  0.0406  0.0724 -0.1389
 2097W        W22377   8.941   5.207  11.239  0.1890  0.0536 -0.2590
 2098W        W22378  17.433  13.166  12.212  0.0998 -0.1591  0.1432
 2099W        W22379   6.158   3.219  13.169  0.1641  0.0273 -0.1668
 2100W        W22380  18.884   7.486  11.260 -0.1614 -0.2334 -0.2077
 2101W        W22381   1.547  18.065  12.377  0.0451  0.2612  0.0664
 2102W        W22382   5.169   6.999   3.786 -0.2468 -0.0430  0.2127
 2103W        W22383   7.539   1.542  10.353  0.1413 -0.0148  0.1341
 2104W        W22384  11.962  17.348  10.259  0.0060  0.0373 -0.0133
 2105W        W22385   5.071  13.784  13.582  0.2622  0.0461 -0.1692
 2106W        W22386  14.303   8.190  11.083  0.2640  0.0211  0.0769
 2107W        W22387  11.533   6.472  10.495 -0.1046 -0.0691  0.2764
 2108W        W22388   1.182   8.143   2.094  0.0144 -0.2243 -0.1768
 2109W        W22389   8.440   0.050   1.234 -0.1731  0.0333 -0.0853
 2110W        W22390   8.253   5.488  11.405  0.0346  0.2484 -0.0476
 2111W        W22391  11.504   1.023  12.449  0.1323  0.1420  0.1298
 2112W        W22392  12.099  16.303   3.830 -0.0194 -0.2381  0.0046
 2113W        W22393  16.509   5.796  13.835  0.0527  0.1715 -0.2143
 2114W        W22394   7.631  14.656  10.977 -0.3668  0.0296  0.1426
 2115W        W22395   9.063  18.329   3.121  0.3903 -0.2007  0.1271
 2116W        W22396   1.521   5.350   0.439  0.0618  0.1831  0.1276
 2117W        W22397  10.955   3.666   0.783  0.3022  0.0338  0.2593
 2118W        W22398  14.601  11.414  11.755 -0.1875 -0.4034  0.0644
 2119W        W22399  11.266   4.708  12.849  0.1709 -0.0954  0.1151
 2120W        W22400   0.484   0.956  10.499  0.2116 -0.0780  0.0463
 2121W        W22401  16.186  19.413   2.490 -0.0003 -0.0463  0.0796
 2122W        W22402   3.627  13.836   1.718 -0.1061 -0.0115 -0.0887
 2123W        W22403  16.252  19.040  10.410 -0.4608  0.0059  0.2288
 2124W        W22404   3.719  18.829   1.440  0.0393  0.5521 -0.1894
 2125W        W22405   2.265   8.708   0.390  0.1671 -0.0458 -0.3447
 2126W        W22406   2.314   5.025  10.366  0.1445  0.0913  0.0901
 2127W        W22407   4.745  13.910   2.141  0.1336 -0.2497 -0.1275
 2128W        W22408  16.309  17.299   0.561 -0.0049 -0.2071 -0.2956
 2129W        W22409  11.280   6.988   0.308 -0.0301  0.3025 -0.0585
 2130W        W22410  13.970  14.642   0.127  0.2504 -0.0790  0.1925
 2131W        W22411   5.229  15.703  13.765  0.0047  0.0062 -0.1492
 2132W        W22412  15.075   7.169   1.563 -0.0164 -0.0326  0.1324
 2133W        W22413  18.598  18.862   0.103 -0.0743  0.1420 -0.1149
 2134W        W22414  12.799   6.401  10.888  0.0068  0.1338 -0.0859
 2135W        W22415   5.100  15.122   2.777  0.1750  0.3376  0.2305
 2136W        W22416  19.385   8.050  11.034  0.0384 -0.1461  0.1009
 2137W        W22417   1.498  14.760  10.974 -0.0841  0.0813  0.0565
 2138W        W22418   2.101   6.879  10.227  0.0648 -0.2937 -0.1603
 2139W        W22419   3.435  10.047   0.856  0.0198  0.0625 -0.0396
 2140W        W22420  18.315  19.053  11.834  0.3621 -0.4248 -0.1970
 2141W        W22421   7.620   9.200   0.360  0.0953  0.0549  0.0877
 2142W        W22422  17.464   8.538  12.321 -0.0088  0.1300  0.1862
 2143W        W22423   4.933   8.648   0.758 -0.4442 -0.0022  0.0946
 2144W        W22424  13.153   9.691   3.390 -0.0702  0.2718  0.2687
 2145W        W22425   7.299   2.505  10.556 -0.0776 -0.2340  0.3651
 2146W        W22426  19.557   2.665   1.930 -0.0960  0.1699  0.1819
 2147W        W22427   7.221   5.342   2.796  0.1893  0.1292  0.2249
 2148W        W22428  14.717   4.240  11.738  0.1264 -0.1776  0.0996
 2149W        W22429  17.652  10.619  13.610  0.1266  0.0644 -0.0076
 2150W        W22430   9.725   4.421   3.377 -0.0859  0.2875 -0.0611
 2151W        W22431  15.754  10.320  10.301 -0.3045 -0.0687  0.0572
 2152W        W22432  18.349  12.100  13.130  0.1012  0.0424  0.2389
 2153W        W22433  16.650   7.064   4.303  0.0230 -0.0923  0.2638
 2154W        W22434   5.421   3.251  10.737  0.3753 -0.3426 -0.2266
 2155W        W22435   8.337  19.370  12.668  0.0108 -0.0303 -0.4829
 2156W        W22436   2.331   5.699   3.778 -0.0646  0.1667 -0.0340
 2157W        W22437   2.231   0.440  10.668  0.0616  0.2435 -0.2007
 2158W        W22438  12.487  19.926   1.457  0.0792  0.2990 -0.1214
 2159W        W22439  10.578  12.543   3.269 -0.0209 -0.0488 -0.0669
 2160W        W22440   0.010  16.759   4.079  0.0843  0.1862  0.0081
 2161W        W22441  19.022  17.381  11.511  0.1256  0.5024 -0.1645
 2162W        W22442  15.162   0.660  11.510 -0.1119  0.0637  0.3393
 2163W        W22443  12.511  18.120   3.999  0.1749  0.2685  0.1174
 2164W        W22444   9.154   6.078  13.540  0.1785  0.2367 -0.0212
 2165W        W22445  15.513   8.432  10.398 -0.1381  0.1574 -0.0213
 2166W        W22446   8.304  12.936   3.135 -0.0173 -0.2060 -0.2325
 2167W        W22447   9.896  14.600   0.579 -0.1504  0.1290  0.2072
 2168W        W22448  13.784  12.182   9.904  0.2669 -0.0354  0.0098
 2169W        W22449   1.350  16.423   0.534  0.2412 -0.2547 -0.1100
 2170W        W22450   5.969   4.769   1.757 -0.0767 -0.0361 -0.2921
 2171W        W22451   5.109   0.402   2.107  0.2014 -0.0107  0.1525
 2172W        W22452   2.785  14.870  13.652  0.0368  0.1291  0.1102
 2173W        W22453   9.796   7.154   3.620 -0.3207  0.1607 -0.0195
 2174W        W22454   3.904   8.443   0.158  0.1833 -0.0673 -0.0476
 2175W        W22455   0.393   9.371  12.634 -0.1049 -0.0659 -0.1480
 2176W        W22456  14.084  19.846   2.983  0.0211  0.2167  0.0668
 2177W        W22457  12.348  18.505  13.155  0.2257 -0.1784 -0.3796
 2178W        W22458  11.097  15.947  11.362 -0.0296 -0.0001 -0.0513
 2179W        W22459  17.472  15.870   9.198 -0.0664 -0.2534  0.4406
 2180W        W22460  19.486   7.883   1.016  0.0738  0.2345  0.2387
 2181W        W22461   8.941   7.650  10.988  0.1557 -0.1361  0.0526
 2182W        W22462   9.548   7.118  13.053  0.0313 -0.2927 -0.1259
 2183W        W22463  11.207  19.803   2.961 -0.0512 -0.0267 -0.1554
 2184W        W22464   1.755   9.048  10.959 -0.1697  0.1915 -0.1357
 2185W        W22465  18.504   5.317   2.108 -0.1616 -0.0480 -0.3119
 2186W        W22466  14.064  15.491   1.342 -0.1248  0.0743  0.3007
 2187W        W22467   7.314  17.450  10.099 -0.2587  0.1188  0.0440
 2188W        W22468   9.606  19.652   2.505  0.0567 -0.0711 -0.1756
 2189W        W22469   7.121   6.991  10.471 -0.0429  0.4711 -0.0022
 2190W        W22470   5.106  18.505   2.915  0.1333 -0.1771 -0.4073
 2191W        W22471  11.357  13.857   2.355  0.1782 -0.0258 -0.2486
 2192W        W22472  18.293  10.316   0.771 -0.0861  0.1726 -0.0510
 2193W        W22473  15.797   2.006   1.195 -0.3233 -0.0258 -0.1318
 2194W        W22474   4.930   1.331   0.345 -0.0618  0.1064  0.2643
 2195W        W22475  12.400   5.370   3.235 -0.1826  0.1234  0.0584
 2196W        W22476  17.192   1.702  13.555 -0.5774  0.2637  0.0486
 2197W        W22477   2.681   9.986  12.871  0.0141 -0.0133  0.1649
 2198W        W22478  12.216  13.381   2.850 -0.2907  0.2722 -0.0436
 2199W        W22479  18.624  14.654  13.851  0.1915 -0.0608 -0.4419
 2200W        W22480  14.419  11.311   1.156  0.0558  0.1391 -0.1290
 2201W        W22481   0.559  17.184  13.131  0.0274 -0.0704 -0.2380
 2202W        W22482  11.492   3.659  10.718  0.5031  0.1626  0.2010
 2203W        W22483  17.789   2.579  10.694  0.1146 -0.1192 -0.0501
 2204W        W22484   9.994  13.268  13.399 -0.0773  0.0883 -0.3407
 2205W        W22485  18.535  19.633   3.591 -0.2859 -0.0252  0.0224
 2206W        W22486   1.610  16.024   1.490 -0.1365  0.3781  0.2963
 2207W        W22487  18.184  13.307   2.596  0.1301  0.1174 -0.1977
 2208W        W22488  19.789  11.685  12.827  0.1966 -0.1840 -0.1163
 2209W        W22489   9.822   0.854  12.314  0.1308 -0.0243  0.1997
 2210W        W22490   4.400  11.552  13.336  0.1320  0.4195  0.0227
 2211W        W22491   4.830  15.898   4.134  0.3646  0.0777  0.0022
 2212W        W22492   8.064  10.100   1.332 -0.2095 -0.2107  0.1310
 2213W        W22493   6.274  12.735   3.803 -0.2170  0.1320 -0.1253
 2214W        W22494   8.293  17.760   3.268 -0.0013 -0.1239 -0.2221
 2215W        W22495  10.301  14.074  10.510 -0.1222  0.2116 -0.3055
 2216W        W22496  17.049   5.109   3.355  0.1564 -0.0821  0.2036
 2217W        W22497   2.349   2.137   3.392  0.3765 -0.2973 -0.0435
 2218W        W22498   7.322  14.538   0.808  0.0519  0.2697 -0.1274
 2219W        W22499   7.361   2.086  12.385 -0.2823  0.0096 -0.0149
 2220W        W22500   2.178  17.739  10.710 -0.1469 -0.0162  0.0808
 2221W        W22501  10.258  11.832   2.143 -0.0128 -0.1017 -0.0225
 2222W        W22502  17.840  16.303  12.702  0.3837 -0.0068  0.0918
 2223W        W22503  17.800   1.139   1.090 -0.1029 -0.2484 -0.1901
 2224W        W22504  14.171   1.709   3.224  0.2283 -0.1984  0.0218
 2225W        W22505  19.871   0.577   0.691 -0.3359  0.0953  0.1680
 2226W        W22506   7.830  14.863   2.700 -0.2798  0.1125 -0.0970
 2227W        W22507  18.393  13.172   0.858  0.0135 -0.2538 -0.2590
 2228W        W22508  17.205   7.032   2.584  0.0384  0.0034  0.4048
 2229W        W22509  10.354   4.363   1.743 -0.1442  0.1543  0.1348
 2230W        W22510   9.618   7.110  13.636  0.0536 -0.0341  0.2152
 2231W        W22511  10.333   8.413  10.695  0.3234  0.3669 -0.2803
 2232W        W22512  19.275  15.962  10.360 -0.0644 -0.1834  0.0773
 2233W        W22513  10.584  18.795   0.620  0.0018  0.1939 -0.0601
 2234W        W22514   8.832  16.089  10.375  0.0603 -0.0629 -0.0608
 2235W        W22515   0.462   0.731   0.820 -0.0866 -0.0584  0.0978
 2236W        W22516  18.585   8.341   1.777 -0.2592  0.2469 -0.0321
 2237W        W22517  11.371   8.418  11.922 -0.3863  0.0745 -0.1778
 2238W        W22518  19.445   3.302  11.686 -0.1459 -0.2772  0.2152
 2239W        W22519   1.491   1.762   0.210  0.2217 -0.1814  0.1375
 2240W        W22520  11.193   1.003   1.697 -0.2170  0.1384 -0.2538
 2241W        W22521  13.227  19.273  12.267  0.0815  0.2083 -0.0756
 2242W        W22522   9.085  13.867   2.977  0.1424  0.0896  0.2765
 2243W        W22523   0.872  10.512  12.059 -0.2693 -0.1048  0.1397
 2244W        W22524   9.557   9.858   3.399 -0.1037  0.0338 -0.3710
 2245W        W22525   0.197  12.214  12.190  0.0509  0.1776 -0.1234
 2246W        W22526  12.896  16.112   2.350  0.1105  0.1398  0.0538
 2247W        W22527  12.498  17.116   3.269  0.1064 -0.3002  0.0524
 2248W        W22528  13.951   1.160   2.388 -0.0651 -0.2106 -0.2556
 2249W        W22529  19.554   7.263   3.512  0.0214  0.0353  0.1315
 2250W        W22530   4.937  17.885   2.882  0.1141  0.1644  0.3058
 2251W        W22531  15.209  12.377   9.791 -0.2114 -0.2685 -0.1145
 2252W        W22532  15.701  12.997   0.179  0.4457 -0.2697 -0.1569
 2253W        W22533  10.038   3.301  10.766  0.0055  0.3038 -0.1627
 2254W        W22534  16.319   4.872   1.393  0.0585  0.1041  0.2514
 2255W        W22535   5.893  11.878   0.739  0.0044  0.0945  0.2779
 2256W        W22536  17.413   4.339   1.434  0.2340  0.0644 -0.2143
 2257W        W22537   9.525   3.890   2.467  0.4639  0.1722  0.0346
 2258W        W22538  13.849   8.171  12.755  0.1132  0.0634 -0.0985
 2259W        W22539  19.712   4.840   0.832 -0.0532  0.3851  0.2490
 2260W        W22540   7.381  13.675   0.822 -0.1693 -0.2073  0.0831
 2261W        W22541  18.488  13.015  12.168  0.1729 -0.1608  0.2532
 2262W        W22542  15.231   1.025   0.261 -0.0757 -0.0781  0.1453
 2263W        W22543  14.127  19.411  12.104  0.0548  0.1614 -0.0938
 2264W        W22544  19.689  16.805  13.481 -0.2776  0.1876  0.0317
 2265W        W22545   3.206  19.656   1.819 -0.2514 -0.2093  0.0752
 2266W        W22546   7.176  13.033   0.260  0.1578 -0.1464  0.2379
 2267W        W22547   7.227  19.807  11.101 -0.0430 -0.0562 -0.1562
 2268W        W22548   8.440  12.529  10.908  0.2319  0.3340 -0.0130
 2269W        W22549  12.761   7.907   0.229 -0.0243  0.1072  0.2123
 2270W        W22550  15.745   2.965   2.738  0.2742 -0.3924  0.0934
 2271W        W22551   0.504  16.331  13.439  0.3006 -0.0042  0.0950
 2272W        W22552  12.993  10.756  13.755 -0.1862 -0.2252  0.1084
 2273W        W22553   2.882   8.127  12.725  0.0438  0.0057  0.1156
 2274W        W22554  16.126   7.620  10.147  0.1956  0.1084  0.2935
 2275W        W22555  11.217  11.071  10.941  0.1740  0.1887  0.0762
 2276W        W22556   0.438   2.589   2.383 -0.3836 -0.0316  0.1872
 2277W        W22557  16.239   1.884  12.505  0.0814  0.0899  0.0327
 2278W        W22558  14.329  17.399   0.512 -0.1442 -0.1059 -0.1327
 2279W        W22559   1.004   6.352  12.145  0.1605 -0.1676  0.1308
 2280W        W22560   0.503  10.153  12.040 -0.1172 -0.3457  0.0456
 2281W        W22561  14.265   0.861  13.337  0.0213 -0.0123 -0.1661
 2282W        W22562  12.712  10.496  12.151  0.0036  0.0331 -0.2500
 2283W        W22563   1.172  18.480  12.875  0.2660  0.0041 -0.0077
 2284W        W22564  14.967  10.332   0.067 -0.2446  0.0740  0.1345
 2285W        W22565  15.632  11.756  10.636 -0.0859  0.2268  0.0891
 2286W        W22566   7.982  10.095  10.390 -0.1325  0.1529 -0.0461
 2287W        W22567  19.662  13.159  13.447 -0.1422 -0.4729 -0.0237
 2288W        W22568  14.687   4.224  10.353  0.2066 -0.2378 -0.0975
 2289W        W22569   2.965  16.509   2.005  0.0732  0.0219  0.0864
 2290W        W22570  10.146  12.827  12.684  0.0833  0.0047  0.1213
 2291W        W22571   4.200   4.375  10.888  0.2211  0.5630  0.1394
 2292W        W22572   1.785   6.805  10.700 -0.1078  0.2211 -0.0408
 2293W        W22573   6.044   3.655   1.403 -0.0307  0.1509 -0.1364
 2294W        W22574  18.257  16.727  13.826  0.3534  0.2621  0.1322
 2295W        W22575   9.784  19.679   2.965  0.1784 -0.0695 -0.0994
 2296W        W22576  14.232   9.198  12.354  0.0223 -0.2103  0.1646
 2297W        W22577   6.899   4.587   0.017  0.2522 -0.1692 -0.2318
 2298W        W22578  17.326  12.047   9.924  0.1097 -0.0923  0.1996
 2299W        W22579   9.581  16.943   0.352  0.1623 -0.3026 -0.2426
 2300W        W22580  14.980  16.830   2.447  0.1057  0.2376 -0.0082
 2301W        W22581  17.572  17.838   1.525 -0.1980  0.3456 -0.4423
 2302W        W22582  18.765   0.367  10.006  0.1184  0.2001  0.2020
 2303W        W22583   3.625   9.196  11.074  0.0158  0.1355  0.1760
 2304W        W22584  14.892  10.446   3.327 -0.2771 -0.1955 -0.0958
 2305W        W22585  10.169  18.189   0.234 -0.0032  0.0176 -0.2603
 2306W        W22586  19.890  14.443   9.854  0.1037  0.0862  0.2286
 2307W        W22587   4.241  12.555   4.444  0.2130 -0.1601 -0.2695
 2308W        W22588   7.000   2.454  12.135 -0.1064 -0.0301  0.0660
 2309W        W22589  14.518  12.483   0.272 -0.0510  0.1764  0.0581
 2310W        W22590   4.269   1.565   3.702  0.1837 -0.1535 -0.0934
 2311W        W22591   5.505   2.283   2.041  0.0766 -0.1048 -0.3837
 2312W        W22592   6.926   7.191   9.998  0.0171 -0.1198  0.0769
 2313W        W22593  14.420   0.852   2.719  0.0084 -0.0171 -0.3116
 2314W        W22594  11.125   4.750   8.775  0.0157  0.4053  0.2065
 2315W        W22595  15.165   1.998  11.276 -0.0503 -0.0593  0.1572
 2316W        W22596   0.281   1.314  13.318  0.1252  0.0908 -0.0024
 2317W        W22597   4.161   2.639   1.690  0.3344 -0.3077 -0.0354
 2318W        W22598  15.461  16.262   0.150 -0.1451  0.3153 -0.1775
 2319W        W22599   5.395  14.511   3.617 -0.2423  0.0857 -0.2906
 2320W        W22600  12.550   1.368   0.853 -0.1684 -0.2613  0.3880
 2321W        W22601  18.676  13.441  13.392  0.1170 -0.5107  0.1381
 2322W        W22602   3.880  13.945  11.499 -0.0538  0.3957 -0.2102
 2323W        W22603   0.211   0.818   1.892 -0.2567 -0.3571 -0.2038
 2324W        W22604   1.739   4.233  13.247 -0.0017 -0.2723  0.1152
 2325W        W22605   6.125  10.027   1.546  0.1368 -0.1608 -0.1446
 2326W        W22606   9.218   4.386  12.151  0.1628  0.0505  0.3073
 2327W        W22607   4.109   6.446   4.186 -0.1611  0.2722 -0.4209
 2328W        W22608  15.530   3.759   1.208  0.1426 -0.4933 -0.0736
 2329W        W22609  13.241   6.183  10.002 -0.0190 -0.2299  0.0926
 2330W        W22610  13.679   5.779   1.718  0.1125 -0.0024  0.2434
 2331W        W22611  16.791  11.919  11.591  0.1019 -0.0355  0.3527
 2332W        W22612   6.305   2.917  13.581  0.1072 -0.1078  0.0161
 2333W        W22613   3.793  17.413   2.688 -0.0875 -0.3673  0.4398
 2334W        W22614  14.225  14.014   0.674  0.1682  0.2647  0.0736
 2335W        W22615   7.924   6.945   4.192  0.1471 -0.0159  0.2036
 2336W        W22616  18.794   2.310   0.376 -0.2384  0.0615 -0.3841
 2337W        W22617  13.005  19.842   3.005  0.4123 -0.1243 -0.0551
 2338W        W22618  10.795  17.925  12.374 -0.1592 -0.4440 -0.0800
 2339W        W22619  18.948  14.189   9.205 -0.3214 -0.1568  0.2404
 2340W        W22620  19.139  14.810   2.630  0.0860 -0.2183 -0.6509
 2341W        W22621   3.970  18.520   1.842  0.1905 -0.0760  0.0021
 2342W        W22622  18.221   0.988   0.175  0.1253 -0.1029 -0.0352
 2343W        W22623  14.364  14.852   0.291  0.1288 -0.0779  0.0643
 2344W        W22624   7.654  17.361   0.605  0.1145 -0.1914 -0.3159
 2345W        W22625  15.372  12.350   1.485 -0.4022  0.0605 -0.3044
 2346W        W22626  11.470  17.635  10.337  0.0783 -0.2689 -0.0940
 2347W        W22627  17.180   6.414  12.279  0.0221 -0.3033  0.0709
 2348W        W22628   0.348   3.062  13.769  0.2964 -0.1031 -0.0114
 2349W        W22629  11.732   1.414  11.905 -0.0098 -0.2816  0.0144
 2350W        W22630   7.163  17.156   2.237 -0.0078  0.0050 -0.0085
 2351W        W22631   5.917   2.619  10.180 -0.2446 -0.3032 -0.0568
 2352W        W22632  15.549   1.366   1.607 -0.3218  0.1363  0.0805
 2353W        W22633   2.449   7.498  10.130  0.4290 -0.1572  0.2113
 2354W        W22634   4.357  15.912   1.985 -0.2619  0.1366 -0.1328
 2355W        W22635  10.130   9.833  11.649  0.3294  0.0940 -0.0312
 2356W        W22636   2.554   4.179  12.842 -0.0805  0.1592  0.1008
 2357W        W22637   6.748   4.521  11.685 -0.0641 -0.3538 -0.0544
 2358W        W22638   2.012  13.736   0.836 -0.0358 -0.0285  0.1187
 2359W        W22639   6.736  10.163  13.122 -0.0336  0.2025  0.3313
 2360W        W22640  13.766   8.202  13.592  0.1627 -0.3179  0.2970
 2361W        W22641  16.005  15.990  12.677 -0.2446 -0.3670 -0.2690
 2362W        W22642  10.013   5.826   1.284 -0.0421  0.3292  0.1109
 2363W        W22643   4.086  11.218   1.275 -0.2656  0.0458  0.1388
 2364W        W22644  10.008   9.908   2.844 -0.0970  0.0807 -0.5256
 2365W        W22645  13.735   4.383  12.795  0.2211  0.1084 -0.2579
 2366W        W22646  12.988  11.656   1.199 -0.0694 -0.2263 -0.4295
 2367W        W22647   5.678   0.304   2.462 -0.3191  0.0287 -0.0989
 2368W        W22648   6.930   7.562  11.251  0.0161 -0.1429 -0.1317
 2369W        W22649  19.817  18.539   1.088  0.0634 -0.1963 -0.2713
 2370W        W22650  13.523   7.122  12.089  0.0431 -0.0906  0.0661
 2371W        W22651  11.359   2.786   2.871  0.0205 -0.0283  0.1740
 2372W        W22652   0.637   5.280   9.893 -0.1364 -0.0553 -0.0100
 2373W        W22653   4.833  10.106   3.373 -0.2092 -0.0533 -0.1435
 2374W        W22654   9.816  14.158   0.253 -0.3333 -0.2544  0.1932
 2375W        W22655  10.318   0.085   3.514 -0.0509 -0.1388 -0.3660
 2376W        W22656   4.788  19.800   0.273 -0.2410  0.4090 -0.1581
 2377W        W22657   5.488   1.334   1.462 -0.2806 -0.1276  0.4518
 2378W        W22658  18.999   3.757  10.227 -0.1297  0.0291 -0.0610
 2379W        W22659  19.271   1.932   1.794 -0.1595 -0.1065  0.0173
 2380W        W22660   9.042  16.324   0.023  0.0585  0.1793  0.0646
 2381W        W22661  14.193   9.446   1.548  0.1032  0.3862 -0.1287
 2382W        W22662   0.540  13.386  10.616  0.1134 -0.3238 -0.1246
 2383W        W22663   4.829   0.116  13.467 -0.2276 -0.0216  0.3717
 2384W        W22664   1.781   4.599  11.286 -0.2860 -0.1671  0.2884
 2385W        W22665  10.858   7.061   1.198  0.2158  0.0542  0.1851
 2386W        W22666   9.857  18.891   2.545 -0.2315 -0.4097 -0.0128
 2387W        W22667   1.548   6.354   3.102 -0.3256  0.2072 -0.1275
 2388W        W22668  10.961  17.013  11.683 -0.2648 -0.0714  0.0470
 2389W        W22669  15.740  12.124  11.909 -0.1124  0.1590  0.0716
 2390W        W22670  12.139  18.997  11.319  0.0475  0.0574 -0.0188
 2391W        W22671  19.908   0.601  11.229  0.0888  0.0390  0.5039
 2392W        W22672   9.620  16.903   2.524 -0.0730  0.3072 -0.0326
 2393W        W22673  10.934  17.385   3.232  0.1503  0.1301 -0.3655
 2394W        W22674  10.909  19.473   0.785 -0.1319  0.0712 -0.0744
 2395W        W22675   0.476  14.314  10.214 -0.2327  0.0138  0.1141
 2396W        W22676   5.019   6.376   1.929  0.1914  0.1232  0.5565
 2397W        W22677  17.327   1.933  11.786  0.1124 -0.1961 -0.1532
 2398W        W22678   8.360  18.724  10.029 -0.0256  0.0358 -0.1775
 2399W        W22679   5.814  18.554   2.563  0.0033  0.0499  0.0435
 2400W        W22680  13.207  16.448  12.047 -0.1679 -0.0876 -0.0179
 2401W        W22681  18.084   6.939  12.888 -0.2148 -0.0687  0.0573
 2402W        W22682   4.837  13.682   4.149 -0.0081 -0.1285  0.2627
 2403W        W22683  18.639  13.188   3.101  0.3508 -0.0539 -0.1685
 2404W        W22684   2.342   6.114   3.452 -0.1322 -0.0452 -0.1499
 2405W        W22685  12.064  16.808   2.418 -0.3139 -0.0445  0.1887
 2406W        W22686  18.406  15.517   8.955 -0.2256 -0.0523 -0.1707
 2407W        W22687   6.027   0.693   3.754 -0.0343 -0.0541 -0.0510
 2408W        W22688   5.133  15.895   3.262 -0.0832  0.0821  0.3081
 2409W        W22689  12.780  13.884   0.191 -0.3138 -0.1847 -0.1714
 2410W        W22690  18.184  11.568  10.516  0.0154 -0.1853 -0.0020
 2411W        W22691   3.970   5.784   9.889  0.1237  0.0067 -0.1327
 2412W        W22692   7.302   6.901   2.314  0.0337  0.1129  0.4519
 2413W        W22693   3.826  15.370  11.720 -0.0959  0.0874 -0.0674
 2414W        W22694  19.854  19.097   3.111 -0.2765  0.2398  0.1044
 2415W        W22695  17.034   9.512  11.397 -0.0680 -0.1780  0.2794
 2416W        W22696   9.767  18.267   0.979 -0.1967  0.2331  0.1031
 2417W        W22697  14.731   3.379   1.531  0.1177 -0.1791  0.1582
 2418W        W22698  11.897   0.710  10.389  0.0555 -0.1433  0.0726
 2419W        W22699   7.919   1.840   4.012  0.0616  0.2907 -0.0381
 2420W        W22700   2.703   3.369   0.837  0.1712  0.0425 -0.1215
 2421W        W22701  19.690   1.205  13.083  0.1248  0.1445 -0.0517
 2422W        W22702  17.309   4.783  11.536  0.0007 -0.3463  0.0651
 2423W        W22703   6.226   9.824   2.003  0.0069 -0.2924 -0.1577
 2424W        W22704   3.013  18.475  12.709  0.0199 -0.1388 -0.0999
 2425W        W22705  14.292  13.140  12.168 -0.0498 -0.0863  0.0604
 2426W        W22706   4.215  14.855   5.330 -0.0591  0.1657  0.2035
 2427W        W22707  10.654  17.310  10.340  0.0865  0.0906 -0.2151
 2428W        W22708  17.604   1.553   3.630  0.0699  0.3366  0.1987
 2429W        W22709   3.910  10.665   9.469  0.0157  0.0008  0.1935
 2430W        W22710   4.157  13.394   1.562  0.1370 -0.1375 -0.1071
 2431W        W22711  15.373  15.677   1.887 -0.1951  0.1905  0.1595
 2432W        W22712  11.445   3.684   0.801  0.0679 -0.2252 -0.0310
 2433W        W22713   2.828   1.271   2.339 -0.1746 -0.1413  0.0767
 2434W        W22714  12.966   9.317   0.538 -0.1111  0.0629  0.1014
 2435W        W22715   8.386   7.130  12.465  0.1399 -0.3325  0.2896
 2436W        W22716   6.743   2.168  12.538 -0.0854  0.4338  0.1284
 2437W        W22717   6.058  12.228  12.115 -0.1567 -0.1414 -0.2667
 2438W        W22718   0.113  17.175  11.466  0.0147  0.2426 -0.1163
 2439W        W22719  14.106   3.576  13.043 -0.1403 -0.2337 -0.2305
 2440W        W22720  18.458  13.286  12.622 -0.2601 -0.3137  0.1371
 2441W        W22721  18.149   1.314  12.016  0.0182 -0.2960 -0.0429
 2442W        W22722   9.914   4.009   1.678  0.3037  0.0610 -0.1226
 2443W        W22723   6.824  15.285  11.767 -0.0553 -0.0894 -0.2826
 2444W        W22724   6.241   9.232  11.991  0.1814 -0.2893 -0.1434
 2445W        W22725  16.487  15.928   0.199  0.0378  0.0125  0.1137
 2446W        W22726  14.432   4.749   3.795 -0.0003 -0.1747 -0.2229
 2447W        W22727  19.399   5.771   4.509  0.4631  0.4771 -0.0565
 2448W        W22728  15.001  11.375   8.414  0.0423 -0.3294 -0.0513
 2449W        W22729  17.201  10.414  10.487 -0.0760 -0.1856  0.0141
 2450W        W22730  18.623   7.331  13.837  0.0121  0.0978 -0.1331
 2451W        W22731  18.949   8.484   2.193  0.0810 -0.0712 -0.2028
 2452W        W22732   9.179  12.564   3.107 -0.0104  0.0422  0.0408
 2453W        W22733   1.107   3.919  13.633  0.0174  0.0156  0.4575
 2454W        W22734   8.769  13.495   3.687  0.0146 -0.1675  0.0930
 2455W        W22735   6.097   1.637   0.113  0.1245  0.2810 -0.1981
 2456W        W22736  14.129   5.705  13.665 -0.2375  0.0407 -0.0501
 2457W        W22737   9.558   8.680   2.458 -0.3656  0.2440 -0.0228
 2458W        W22738  18.594   4.750  13.304  0.2038  0.4033  0.0435
 2459W        W22739  13.879   5.602   0.915 -0.2283  0.0507 -0.1739
 2460W        W22740  10.990   8.798   0.524  0.2572 -0.0684  0.2159
 2461W        W22741   3.024  12.342  13.226  0.0491 -0.0890 -0.0262
 2462W        W22742   2.074  10.530  10.392  0.1260 -0.1613  0.1213
 2463W        W22743  14.694  17.595   2.235  0.0433 -0.1584 -0.2901
 2464W        W22744   0.293   2.174  12.294 -0.0249  0.1719 -0.0016
 2465W        W22745   1.108   8.451  11.202  0.0752  0.0927  0.2070
 2466W        W22746  13.900  14.621   1.119  0.2630 -0.1112 -0.0194
 2467W        W22747   6.647   9.171   3.126 -0.0897  0.2339  0.1927
 2468W        W22748  15.057  12.226  13.557 -0.3739  0.3034  0.3430
 2469W        W22749  10.889  15.098  13.604  0.0609  0.0472 -0.0042
 2470W        W22750   0.383   8.241  13.492 -0.0129 -0.3018  0.3096
 2471W        W22751  10.783  10.757   3.894 -0.0422 -0.0825 -0.2906
 2472W        W22752  11.793  11.134   0.130  0.0352 -0.1658 -0.0495
 2473W        W22753   5.519  11.493  11.157  0.0789  0.0245  0.0640
 2474W        W22754  17.022   3.884  11.691 -0.0361  0.0216  0.0111
 2475W        W22755  10.716   4.848   0.008  0.0473  0.1398 -0.0037
 2476W        W22756  17.041  14.885   0.458  0.0675 -0.0904  0.1903
 2477W        W22757   8.240  10.734  11.856  0.2301 -0.0101  0.0416
 2478W        W22758   3.676  15.760  11.418  0.2722  0.1785 -0.1365
 2479W        W22759   1.617  10.179  13.810  0.0512 -0.1751  0.1542
 2480W        W22760   0.517  11.204  13.451 -0.1116 -0.0701 -0.0078
 2481W        W22761   5.037  12.686   3.642  0.2835 -0.1261  0.1202
 2482W        W22762   5.186  12.193   1.791 -0.0269  0.1728  0.1425
 2483W        W22763   0.221  10.239  10.387  0.2472 -0.1877  0.0420
 2484W        W22764   9.614   1.221  12.103 -0.3801  0.0602  0.1197
 2485W        W22765   2.839   2.566   1.794 -0.0513  0.1422  0.0408
 2486W        W22766  17.040  18.360  10.074  0.0742  0.0194  0.0197
 2487W        W22767  12.400   8.061  11.295 -0.0724  0.1445  0.0874
 2488W        W22768   5.207  18.859  12.084 -0.2387 -0.1678  0.1724
 2489W        W22769   7.771   5.099   0.827  0.1812 -0.0152  0.0517
 2490W        W22770   3.260  16.307   1.596  0.0530 -0.0593  0.1329
 2491W        W22771  17.445   9.284   1.707  0.0126  0.0058 -0.3515
 2492W        W22772   4.375  17.209   1.195 -0.1609  0.1083 -0.2038
 2493W        W22773   6.226  15.946   2.411  0.0738 -0.2332 -0.0840
 2494W        W22774  18.293  13.727  12.420  0.1175 -0.2854  0.0769
 2495W        W22775  14.254   9.448   9.404 -0.1415  0.0164  0.0367
 2496W        W22776  15.438   7.636  12.818  0.0873  0.0727  0.0457
 2497W        W22777  12.610   4.849  12.257 -0.2571  0.1849 -0.1415
 2498W        W22778  15.273  12.056  12.625  0.0665  0.0215  0.3220
 2499W        W22779  18.178  15.954   9.565  0.2005  0.0534 -0.2539
 2500W        W22780  18.386   2.742   1.550  0.5211  0.0251 -0.0621
 2501W        W22781   5.735   8.396   4.045  0.0633  0.1398  0.1163
 2502W        W22782  17.986   4.802  10.312 -0.0171 -0.2711 -0.1103
 2503W        W22783   1.938   0.983   1.001 -0.1759 -0.3783  0.1925
 2504W        W22784   2.724   4.163  11.283 -0.0591  0.0369 -0.0270
 2505W        W22785  15.682   1.751  11.229 -0.2108 -0.1762 -0.1320
 2506W        W22786  17.143   8.340   1.497  0.0792  0.2916  0.2819
 2507W        W22787  10.784   6.496  12.145 -0.2252 -0.0007  0.2285
 2508W        W22788  12.878  15.158   9.091  0.0607  0.2478  0.0787
 2509W        W22789   2.419  18.500  10.166 -0.1231  0.0125  0.0728
 2510W        W22790   2.324  15.893  10.494  0.1355 -0.2451 -0.0860
 2511W        W22791   2.217   0.214   1.249 -0.1243  0.5079  0.1844
 2512W        W22792  16.200   7.145   2.287 -0.3489 -0.0748 -0.1965
 2513W        W22793  16.621  13.528  12.546 -0.3034 -0.1347 -0.3168
 2514W        W22794  12.676   5.718  11.392  0.2483 -0.3828 -0.0444
 2515W        W22795  11.568  13.039   1.403  0.0383  0.1815  0.2243
 2516W        W22796  16.303  11.781   3.314  0.0692  0.1188  0.2966
 2517W        W22797  10.755  15.215   3.449  0.0318  0.2717 -0.1964
 2518W        W22798  18.311  18.528   2.501  0.1770 -0.1962 -0.1482
 2519W        W22799  11.891  15.311  12.617  0.0643  0.2029  0.2191
 2520W        W22800  17.890   1.894   1.899  0.0550 -0.1660  0.1047
 2521W        W22801   1.673  12.695   1.206  0.0539 -0.0496  0.1467
 2522W        W22802   5.438  17.351   3.801  0.0424 -0.0747 -0.1616
 2523W        W22803   7.131  19.719  13.226 -0.0746  0.4453  0.3315
 2524W        W22804  13.011   5.582   0.538  0.2045  0.0562 -0.0895
 2525W        W22805  15.656  12.893   2.819 -0.3472 -0.0309  0.1009
 2526W        W22806  12.769   2.732  11.584  0.0888 -0.0943 -0.0896
 2527W        W22807  11.209  18.294  12.000 -0.4516 -0.1056  0.0940
 2528W        W22808   9.906   7.061  10.764 -0.0343  0.2732  0.0621
 2529W        W22809   2.540   0.241  13.611 -0.0840  0.0363  0.1178
 2530W        W22810  12.677   1.740  11.366 -0.0545 -0.0002 -0.2912
 2531W        W22811  18.094   1.380  13.528  0.3580 -0.0906  0.0702
 2532W        W22812  17.401  19.337  11.404 -0.1395 -0.1905 -0.2973
 2533W        W22813  19.581  15.024   2.464  0.1190  0.0146  0.1690
 2534W        W22814   4.325  16.170  13.856 -0.0514  0.1093  0.0771
 2535W        W22815   1.554  14.124  12.895  0.0399  0.4717  0.2057
 2536W        W22816   2.795  12.225   3.683 -0.2437 -0.2030 -0.2673
 2537W        W22817   3.802   2.779  13.397  0.0511 -0.2218 -0.0495
 2538W        W22818   0.375  10.730  11.182 -0.0111  0.0443 -0.1872
 2539W        W22819   5.570   5.067  11.030  0.2029  0.0905  0.1643
 2540W        W22820   8.862  17.000   0.095 -0.0238  0.1018 -0.0815
 2541W        W22821  17.909  16.586   2.904 -0.1505 -0.1118  0.1460
 2542W        W22822  16.430   3.563   0.638 -0.1846 -0.0902  0.2232
 2543W        W22823   9.847   1.096  12.917 -0.2705  0.0137  0.1891
 2544W        W22824   3.646  14.303   1.509 -0.0372  0.0340  0.4154
 2545W        W22825   4.933  12.004   1.396 -0.2010 -0.3110 -0.0654
 2546W        W22826  16.504  16.394   0.403 -0.1627 -0.0564  0.0434
 2547W        W22827  19.794   9.516   0.564 -0.1202  0.1427 -0.2943
 2548W        W22828  18.309   7.765   1.097  0.1236  0.2141  0.1137
 2549W        W22829  15.193  11.157   9.939  0.0833  0.0059  0.1861
 2550W        W22830   3.380   6.490  10.893 -0.0959  0.2725  0.0650
 2551W        W22831  12.725  13.170   0.887  0.1737  0.0478 -0.1108
 2552W        W22832   7.175  12.103  11.836  0.0901  0.2042  0.0202
 2553W        W22833  14.459  16.732   1.331 -0.1304  0.3510 -0.3457
 2554W        W22834   2.720  15.832   2.274 -0.0446 -0.2022  0.2818
 2555W        W22835  17.338  11.759   0.749  0.0417  0.1911 -0.1101
 2556W        W22836  13.558  18.315   1.444 -0.1465 -0.1605 -0.2038
 2557W        W22837   2.821  10.703   4.763  0.2445 -0.0089  0.1900
 2558W        W22838  16.386   1.216   9.895  0.0233  0.1967 -0.3489
 2559W        W22839  18.678   7.665  12.589 -0.1326 -0.1860  0.0375
 2560W        W22840  17.733   7.883   2.699 -0.0338 -0.1863  0.0300
 2561W        W22841   7.067  18.010   0.271  0.0390 -0.2222 -0.2013
 2562W        W22842  11.472   9.182  11.533  0.3316 -0.1306 -0.1565
 2563W        W22843  15.548   2.170  11.975 -0.1716 -0.0072 -0.0773
 2564W        W22844   6.039   6.844  12.856 -0.1676  0.0555 -0.1383
 2565W        W22845  14.135  19.271  12.884 -0.1440  0.1515 -0.0824
 2566W        W22846  16.070   8.378  11.101 -0.0061 -0.1363 -0.0651
 2567W        W22847   1.831  10.865   2.131  0.3133 -0.2051  0.0507
 2568W        W22848   1.017  14.586   1.397 -0.1430 -0.0814 -0.0967
 2569W        W22849   6.438   0.264   2.090  0.0217  0.0264  0.0851
 2570W        W22850  11.365   4.139   1.562 -0.0852 -0.1223 -0.1911
 2571W        W22851   6.540   7.557  11.548  0.0690  0.1432  0.2629
 2572W        W22852  15.340   3.729  12.312  0.1671  0.3028  0.0749
 2573W        W22853  16.294  14.056  11.106 -0.1625 -0.1731 -0.0729
 2574W        W22854   4.975  14.519   3.916  0.0281 -0.0642 -0.1098
 2575W        W22855  18.483  18.969   2.779 -0.3081  0.0891 -0.0450
 2576W        W22856  17.612   9.039  13.175  0.0327  0.2564  0.1385
 2577W        W22857  18.456   3.263  10.095 -0.0264  0.2433  0.2225
 2578W        W22858   9.963  14.251   3.546 -0.0918  0.0921 -0.2393
 2579W        W22859  16.153  18.876   9.921  0.3656  0.0181 -0.3518
 2580W        W22860  11.684   6.532   3.233 -0.0810  0.1647 -0.0815
 2581W        W22861  17.104  17.139  12.791  0.2390 -0.1209 -0.1255
 2582W        W22862  18.567  13.120   0.376 -0.2304 -0.1611 -0.2603
 2583W        W22863  13.279   0.584  11.554 -0.0685  0.1342  0.0394
 2584W        W22864   8.341  11.622  12.220  0.0510  0.4862  0.0270
 2585W        W22865   8.717  17.477  10.440  0.3998  0.3857 -0.2842
 2586W        W22866  16.404   1.378   2.877  0.2225  0.3108  0.3377
 2587W        W22867  15.105   3.276  11.328  0.2047  0.0679 -0.1368
 2588W        W22868  13.182   3.604  10.543  0.3182 -0.1282 -0.1412
 2589W        W22869   6.809   0.493  10.823  0.0714  0.1164 -0.1107
 2590W        W22870  13.687  13.305   1.020 -0.2491  0.1454  0.1792
 2591W        W22871  12.716   6.561  12.670  0.0746  0.0769  0.0109
 2592W        W22872   0.804   5.530   1.037  0.0877  0.3915  0.2795
 2593W        W22873   8.639  15.138   1.309 -0.0203  0.0579  0.0004
 2594W        W22874  19.375   2.180  13.445  0.1529 -0.0129 -0.1468
 2595W        W22875   3.793   2.204   2.649 -0.0236 -0.1656  0.2479
 2596W        W22876   4.931   6.536  12.792 -0.0898 -0.0303  0.0224
 2597W        W22877  15.756  17.556  13.541 -0.0402  0.1554  0.0461
 2598W        W22878  16.106  17.991   3.500  0.1201 -0.0995  0.2340
 2599W        W22879  14.014   0.512   1.873  0.2790 -0.1425 -0.3468
 2600W        W22880   9.652   6.053  10.631  0.1474  0.1600  0.0630
 2601W        W22881  14.070  19.851   1.466 -0.2468 -0.1151  0.1268
 2602W        W22882   5.821   1.681  10.324  0.1608  0.2265 -0.0260
 2603W        W22883   8.885   2.198   1.590 -0.0339 -0.0307  0.1349
 2604W        W22884  16.446   2.436   0.490 -0.1580  0.2181 -0.0129
 2605W        W22885   3.792   7.969   2.545  0.0328 -0.2046 -0.0706
 2606W        W22886   1.424  19.898   2.190 -0.0613  0.0573  0.2548
 2607W        W22887   2.541  13.905  13.260  0.0085  0.0445 -0.0172
 2608W        W22888   4.569   6.096  11.458 -0.0860  0.1559 -0.0275
 2609W        W22889   5.762   9.641  12.297 -0.1206 -0.1857 -0.0682
 2610W        W22890  18.432   5.342  12.907  0.0510  0.0346 -0.0439
 2611W        W22891   4.762  18.391   4.221 -0.1210 -0.0116  0.1203
 2612W        W22892   9.057   7.697  12.213  0.0148  0.1231  0.3084
 2613W        W22893  16.439  15.311   2.809  0.2384 -0.1156 -0.1422
 2614W        W22894  16.574   8.286  11.172 -0.1879 -0.0313  0.0601
 2615W        W22895  13.281  15.980  11.762  0.0507 -0.1642  0.1034
 2616W        W22896   3.838   7.377  12.926 -0.2829 -0.0953  0.0963
 2617W        W22897   9.927  12.782  11.824  0.0168  0.0962 -0.1365
 2618W        W22898  15.575   2.199   0.389 -0.1611  0.0199  0.0391
 2619W        W22899  10.547   7.718   2.544  0.1024  0.1009 -0.0510
 2620W        W22900   7.192   5.687  10.538  0.1529 -0.2760  0.0007
 2621W        W22901   4.089   4.786   1.982  0.1593  0.2181  0.0451
 2622W        W22902  16.981   1.763   9.536 -0.0478 -0.0136 -0.1252
 2623W        W22903  11.325   8.286   3.666 -0.1440 -0.0064 -0.3609
 2624W        W22904  18.207  15.182  11.982 -0.0662  0.3928 -0.2192
 2625W        W22905  11.458  13.928   4.304  0.2398 -0.3269 -0.0065
 2626W        W22906  17.164   2.063   0.760  0.1741 -0.0510  0.1323
 2627W        W22907   4.506  19.739   2.716 -0.0164 -0.1543  0.0258
 2628W        W22908   1.029   9.441   2.720 -0.1368 -0.2576 -0.1099
 2629W        W22909   4.597  16.228   1.359 -0.2973  0.0156 -0.0864
 2630W        W22910   4.361   4.928   3.787 -0.0203 -0.2086  0.2521
 2631W        W22911  10.057   8.514  12.001  0.0750  0.3478  0.4369
 2632W        W22912  17.910   8.337   0.051 -0.0241  0.0276 -0.0448
 2633W        W22913  17.811   7.906  11.667 -0.2667 -0.1954 -0.1931
 2634W        W22914  14.833   8.242   0.073 -0.2326  0.5777 -0.0842
 2635W        W22915  16.575  10.198   3.126 -0.1750 -0.2547 -0.2894
 2636W        W22916   8.830   6.117   4.077  0.0580  0.1177  0.2441
 2637W        W22917  13.390   1.071  10.489  0.3049 -0.0968  0.2743
 2638W        W22918   0.281   2.128  12.819 -0.1213 -0.2455 -0.2167
 2639W        W22919  19.609  15.170  12.139 -0.0641 -0.0561 -0.0766
 2640W        W22920   5.507   2.370  11.101  0.0467 -0.2921  0.0307
 2641W        W22921   9.081   7.778   2.825 -0.0585 -0.0030 -0.2391
 2642W        W22922  15.762   2.495   1.284 -0.1920 -0.0264 -0.2117
 2643W        W22923   3.783  14.956  13.211  0.0044  0.0998 -0.2021
 2644W        W22924  19.158  17.534  13.355 -0.1297 -0.0598  0.0732
 2645W        W22925  14.197   5.251  11.457  0.0829 -0.0672 -0.2994
 2646W        W22926  18.156  17.097  10.591 -0.0572 -0.0016 -0.2436
 2647W        W22927   5.219   6.774  10.370 -0.2309  0.0690 -0.1767
 2648W        W22928   7.705   4.639  11.637 -0.0871  0.0745  0.3271
 2649W        W22929   5.976   6.317  13.497  0.1394 -0.4033  0.1982
 2650W        W22930   9.351  13.393   2.980 -0.2643 -0.0481  0.1213
 2651W        W22931   0.617   9.682   3.426 -0.1912 -0.0576  0.1490
 2652W        W22932   0.133  19.600  10.834 -0.2269  0.1658  0.3774
 2653W        W22933   5.466   3.461   1.302  0.0988 -0.3219 -0.3743
 2654W        W22934  10.835  17.498   2.736  0.5037  0.0456  0.0366
 2655W        W22935   0.250   5.484   2.870  0.0636 -0.4012  0.2498
 2656W        W22936   6.058   3.046   0.171 -0.0118 -0.0115 -0.1303
 2657W        W22937  18.023   6.496   3.752 -0.0826 -0.0436 -0.1094
 2658W        W22938   9.244   5.319  13.759 -0.0576  0.1563 -0.2988
 2659W        W22939   3.171  13.518   3.141  0.1502  0.0175 -0.1407
 2660W        W22940  19.422  10.724  13.172 -0.1448 -0.1746 -0.2331
 2661W        W22941   2.198   9.669   3.419 -0.3878 -0.0014  0.0392
 2662W        W22942   6.301   2.744  13.077  0.0916 -0.1679 -0.0096
 2663W        W22943   4.037  13.298  11.558  0.0123  0.1872  0.2094
 2664W        W22944   1.405   6.600   9.805 -0.2850 -0.0173  0.0987
 2665W        W22945  12.019  14.232   2.658  0.0148  0.2049  0.1855
 2666W        W22946   7.602  17.309   2.232 -0.3023 -0.1161 -0.0544
 2667W        W22947  17.650  18.892  12.197 -0.2331  0.2938 -0.1242
 2668W        W22948   2.444  10.235  10.240  0.1318  0.3740  0.0923
 2669W        W22949  16.630  13.053  11.805 -0.3207  0.2137 -0.0310
 2670W        W22950   7.342  13.141   1.542  0.0439  0.2044 -0.0394
 2671W        W22951   8.952  13.183   2.799  0.0373 -0.3091 -0.1019
 2672W        W22952  12.145  16.706   0.857  0.0351 -0.1327 -0.0344
 2673W        W22953   5.646   5.307   2.972  0.0117  0.2026 -0.2419
 2674W        W22954   4.734  16.152  10.958  0.1064  0.2264 -0.1853
 2675W        W22955  14.051  15.173  11.105 -0.2701  0.0403  0.0511
 2676W        W22956  19.264   1.289  13.744 -0.0794 -0.1012 -0.0697
 2677W        W22957   3.951  16.170  11.205 -0.2057 -0.0587  0.0615
 2678W        W22958   8.099   8.622  10.646 -0.0003 -0.1601  0.1192
 2679W        W22959  11.022   9.819  13.486  0.0601 -0.1256 -0.0579
 2680W        W22960   4.995   8.896  12.460 -0.0730 -0.0976  0.0063
 2681W        W22961  14.905   4.128   9.432  0.1785  0.0284 -0.2538
 2682W        W22962   0.516  19.928   2.368  0.0770  0.1312  0.2485
 2683W        W22963   4.662   7.186   1.486 -0.0441 -0.0908 -0.2079
 2684W        W22964   0.874  12.344   2.224 -0.2115 -0.0264  0.0087
 2685W        W22965  18.870   1.518   0.405  0.4243 -0.2910 -0.1486
 2686W        W22966   7.774  16.186  11.377 -0.1410 -0.0002  0.1568
 2687W        W22967   5.860  13.035   0.454 -0.4571 -0.1388 -0.3783
 2688W        W22968   9.791  16.398   1.238 -0.0236  0.4373 -0.0215
 2689W        W22969   5.804  17.767   3.401 -0.2192  0.0272 -0.5997
 2690W        W22970  18.329   8.968   1.187 -0.2575  0.2112  0.2480
 2691W        W22971  14.710   7.175   3.554 -0.2806 -0.1483  0.1996
 2692W        W22972  13.930   6.150   9.955  0.1949  0.3027  0.0141
 2693W        W22973   4.676  18.332   2.940 -0.0705 -0.2123  0.2833
 2694W        W22974  15.157   2.421  11.031  0.2720  0.0656  0.2786
 2695W        W22975   6.962  14.468   1.195 -0.3888 -0.0673 -0.0257
 2696W        W22976  12.905  12.837   0.157  0.0264  0.3235 -0.0871
 2697W        W22977  14.614  13.158   2.758  0.2847  0.1241 -0.1143
 2698W        W22978  12.577   6.095  12.759  0.0141 -0.0406 -0.0642
 2699W        W22979   2.732  12.676  12.252 -0.2252  0.1624 -0.2094
 2700W        W22980  10.666  18.554  13.470  0.2116  0.0434 -0.0132
 2701W        W22981   6.016   3.593   0.571 -0.1626 -0.0286 -0.0720
 2702W        W22982   5.748   2.575   1.489  0.1035  0.1489  0.1333
 2703W        W22983  15.845   5.488   1.947 -0.0143  0.2012 -0.1503
 2704W        W22984  15.299  17.469  10.523 -0.3001 -0.1011 -0.2028
 2705W        W22985   4.299  17.831  10.840 -0.2489 -0.2747  0.0700
 2706W        W22986  17.116  13.002  10.625  0.3811  0.2505  0.0934
 2707W        W22987  15.900   1.385   2.863  0.2355  0.2728  0.3026
 2708W        W22988  13.159  13.535   2.991 -0.0835 -0.2079  0.3008
 2709W        W22989   5.365  19.818  10.892 -0.2167  0.0223  0.0265
 2710W        W22990   6.382  18.178   1.433 -0.1450 -0.0905 -0.0074
 2711W        W22991  14.948  17.011   2.899 -0.1221  0.4269 -0.2327
 2712W        W22992   9.664   3.504   0.830 -0.1757 -0.0606 -0.0096
 2713W        W22993  14.745   1.117   0.525 -0.0573  0.1120  0.0913
 2714W        W22994  10.844   0.626  11.815 -0.1729  0.1470  0.2650
 2715W        W22995  13.563  19.825  13.607 -0.0113 -0.0210 -0.1494
 2716W        W22996   4.090   3.257   2.936  0.2415  0.2524  0.1959
 2717W        W22997   8.062  10.271  13.034  0.1641 -0.1507  0.3537
 2718W        W22998   0.012  16.080  13.508  0.0595  0.1982 -0.1790
 2719W        W22999   3.382  17.374  12.524 -0.0660 -0.0540  0.1019
 2720W        W23000  17.540  11.626  12.675  0.0721 -0.2480 -0.3003
 2721W        W23001  18.057   0.222  13.574 -0.1126 -0.1410  0.0524
 2722W        W23002   0.775   2.575   2.830  0.0401 -0.1049 -0.1695
 2723W        W23003   4.171  11.664  11.036  0.4386  0.2795  0.1078
 2724W        W23004  15.418  13.085  13.366 -0.0057 -0.0803 -0.1213
 2725W        W23005  18.601  19.088  10.566  0.1901 -0.1382  0.3356
 2726W        W23006  17.099   1.869  10.515  0.0121 -0.1440  0.1221
 2727W        W23007  12.559   3.629   4.837  0.0586  0.0019 -0.1769
 2728W        W23008   3.595  13.191   0.770  0.0155 -0.1252  0.0207
 2729W        W23009   0.882  13.128  12.207  0.4606 -0.0432  0.0038
 2730W        W23010   5.556  15.561  11.195 -0.3156 -0.1335  0.0099
 2731W        W23011  17.616  15.100   1.676 -0.3130 -0.1535 -0.1191
 2732W        W23012  10.138   3.251  13.744 -0.0682  0.0215 -0.1295
 2733W        W23013  18.115   2.828  13.383  0.2203  0.1013 -0.0773
 2734W        W23014  11.309   2.830  12.277  0.0694 -0.1543  0.1270
 2735W        W23015  19.229  13.336   1.939  0.1734 -0.3748  0.1561
 2736W        W23016   7.141   3.930  10.570  0.2374 -0.0264  0.0589
 2737W        W23017  11.364   4.028  13.762 -0.0264  0.1588  0.1596
 2738W        W23018  19.847   7.235  12.233  0.1497  0.2923  0.2116
 2739W        W23019   9.055  13.377  11.245 -0.1108  0.0965 -0.1886
 2740W        W23020   1.617  18.910   3.894  0.0636 -0.2664  0.0572
 2741W        W23021   9.068   0.561   2.178 -0.1253  0.0758 -0.1067
 2742W        W23022   2.862   9.071  13.392  0.3808  0.0892  0.2934
 2743W        W23023   0.994   2.357  13.375 -0.0308 -0.1746 -0.2516
 2744W        W23024  10.138   0.962  10.590  0.0838 -0.1109 -0.1107
 2745W        W23025  18.086  12.953   2.940 -0.1246 -0.1039 -0.2272
 2746W        W23026   8.935   0.779  10.861  0.1426 -0.0418  0.2731
 2747W        W23027  10.748   8.575   2.730  0.1016  0.0926  0.1080
 2748W        W23028  12.210  11.065   0.370 -0.3244 -0.4161 -0.0965
 2749W        W23029  14.790   4.953   1.175 -0.2475  0.3169  0.2672
 2750W        W23030   8.686   2.075  13.253 -0.0376 -0.1142 -0.4869
 2751W        W23031   7.508   3.146  10.992  0.3552 -0.1841  0.1061
 2752W        W23032  13.603  10.507   9.882 -0.3332 -0.2012  0.1167
 2753W        W23033  14.978  19.088  10.128  0.0725  0.1635  0.2806
 2754W        W23034  18.372  15.332   0.028  0.1129 -0.0185 -0.1627
 2755W        W23035  17.015  15.143  13.820  0.1279  0.0992  0.0946
 2756W        W23036  14.594  19.891   2.403  0.3199  0.0708  0.1446
 2757W        W23037  13.160  13.584  12.623  0.0953 -0.0583 -0.3230
 2758W        W23038   9.993   8.465   0.847 -0.1895 -0.1076  0.0293
 2759W        W23039   4.612  19.642  13.609 -0.0270 -0.0622 -0.0140
 2760W        W23040   9.067   7.466   3.618  0.1994  0.1416  0.0872
 2761W        W23041  10.090  15.766   0.101 -0.3494  0.1631  0.4103
 2762W        W23042  18.261  10.219  12.640  0.1764 -0.1683  0.1303
 2763W        W23043  19.823   8.789   0.056 -0.0133  0.0006  0.0917
 2764W        W23044  11.306   7.854  10.216  0.2116  0.0275 -0.0235
 2765W        W23045   1.043   2.791   9.331  0.1075  0.2223  0.0707
 2766W        W23046  13.885   9.051  13.204  0.1969  0.1216 -0.0614
 2767W        W23047  15.267  17.822  10.910 -0.0803  0.3543  0.0602
 2768W        W23048  17.294  15.955  11.965  0.1048 -0.4152 -0.1432
 2769W        W23049   1.615   1.591   3.259  0.1113  0.3938  0.0556
 2770W        W23050   0.073  17.248   1.832  0.0070 -0.0776  0.1037
 2771W        W23051  15.025  16.784   3.362  0.1605 -0.2749 -0.1018
 2772W        W23052  16.249  16.635   0.975 -0.0541 -0.0124 -0.3142
 2773W        W23053   1.895  11.399  10.246 -0.0447  0.0594 -0.3445
 2774W        W23054   2.274   7.725   3.720 -0.1709 -0.2578  0.2439
 2775W        W23055  11.320   9.824   1.670 -0.1030 -0.3645  0.1294
 2776W        W23056  15.521   4.293  10.752  0.2875 -0.1888  0.1745
 2777W        W23057  14.348   1.034  12.814  0.1372  0.1118  0.0572
 2778W        W23058  13.714  14.337  11.294 -0.0154 -0.0483 -0.3262
 2779W        W23059  14.462   8.242   4.704 -0.0301 -0.3092 -0.2194
 2780W        W23060   8.180   6.451  13.059  0.0824  0.0575  0.3914
 2781W        W23061  16.375  13.446  13.706 -0.2425 -0.2820 -0.2430
 2782W        W23062   7.449  14.104  11.057 -0.1367 -0.3334  0.2089
 2783W        W23063  18.283  14.536  11.476 -0.2626 -0.0535 -0.1788
 2784W        W23064   0.053  18.847  11.498 -0.0634  0.3360 -0.0743
 2785W        W23065  18.444   1.196  10.480  0.1420  0.1457  0.3239
 2786W        W23066   7.224   5.591   1.124 -0.0637  0.1326 -0.0246
 2787W        W23067  17.567   9.921   2.978 -0.1423  0.0981  0.1722
 2788W        W23068   6.607   6.912   1.728  0.0322  0.2059 -0.2802
 2789W        W23069  14.034   6.963  12.132 -0.2934 -0.1602  0.0105
 2790W        W23070   5.894  16.472   3.973 -0.3199  0.1471 -0.1777
 2791W        W23071  19.005  13.599   0.476 -0.0116  0.2751 -0.0872
 2792W        W23072   7.591  17.773  11.289  0.1430  0.0305 -0.1803
 2793W        W23073   8.728   8.627   1.094  0.0872  0.0989 -0.4158
 2794W        W23074  10.474   2.683   1.637  0.0250  0.0876  0.0981
 2795W        W23075  18.381  11.144  10.458 -0.1867 -0.3062 -0.1105
 2796W        W23076  19.724  19.470   2.712  0.4223 -0.2207 -0.0004
 2797W        W23077  10.128  10.222   0.590  0.0883 -0.2389  0.0600
 2798W        W23078   9.720  11.368   9.373  0.0367 -0.1130  0.3002
 2799W        W23079   7.228   9.909  13.303  0.1598  0.0505 -0.0027
 2800W        W23080  12.435  13.883   3.553 -0.1476 -0.3191 -0.1446
 2801W        W23081   5.264   5.251  12.387 -0.2555  0.1723  0.3093
 2802W        W23082  16.857  17.310  11.486  0.3116 -0.4273  0.0228
 2803W        W23083   5.773  11.945  13.638  0.0638  0.2576 -0.2346
 2804W        W23084  17.418  10.249   1.814  0.1379  0.1751  0.0578
 2805W        W23085  17.056  15.835  10.890  0.3605  0.3144 -0.0843
 2806W        W23086   2.267   0.698  11.534  0.0930 -0.0365 -0.0430
 2807W        W23087   1.482   1.474  11.289 -0.0732  0.2233  0.0855
 2808W        W23088  15.066  19.928   2.162  0.0890 -0.1358  0.0225
 2809W        W23089  19.713   2.258   3.315  0.1349  0.2512  0.3615
 2810W        W23090   6.030   3.458   3.084  0.1006 -0.1952 -0.2388
 2811W        W23091  11.520  18.493   9.870 -0.2418 -0.2375  0.2593
 2812W        W23092   6.207  11.867   2.791 -0.0836 -0.1033  0.0787
 2813W        W23093   5.222  17.207   4.223 -0.0011 -0.1531  0.1919
 2814W        W23094  17.524  16.836   2.094  0.2070 -0.2141 -0.2814
 2815W        W23095   9.165   1.675   4.135  0.0246  0.1871  0.0863
 2816W        W23096   1.340   3.867   0.825 -0.0163  0.0996  0.1995
 2817W        W23097  17.818   8.753  13.581 -0.1807  0.2393  0.0210
 2818W        W23098  13.515  12.955   1.466 -0.0105 -0.0372 -0.0409
 2819W        W23099  17.948  13.226   1.112 -0.1149 -0.0993  0.0027
 2820W        W23100   4.558  12.679   3.880  0.1999 -0.0453 -0.0338
 2821W        W23101  15.595  18.850  12.087  0.3224 -0.0561  0.1991
 2822W        W23102  10.988   0.649  10.859  0.1764 -0.2559  0.0625
 2823W        W23103   4.164  11.002  12.136  0.0202 -0.1284 -0.0867
 2824W        W23104   5.956  12.939  13.831  0.1772  0.2330 -0.2770
 2825W        W23105   0.298   2.090  10.313  0.4356 -0.1248  0.0823
 2826W        W23106   0.004   2.636  11.317 -0.1232 -0.2996  0.1136
 2827W        W23107  15.942  11.412  13.026  0.0364  0.1513 -0.4129
 2828W        W23108   3.040   3.330  10.622  0.1001  0.4830 -0.1296
 2829W        W23109  17.950  18.731   9.895  0.1890 -0.1183  0.3176
 2830W        W23110   1.682  17.143  12.778  0.2628  0.1904 -0.1662
 2831W        W23111   6.233  11.313   2.876 -0.0380 -0.3332  0.0496
 2832W        W23112  11.861   0.512   2.398 -0.0785 -0.1026  0.1941
 2833W        W23113  15.588   1.473  10.339  0.0660 -0.0420 -0.0648
 2834W        W23114   4.703   4.252   1.428 -0.0731  0.0739 -0.2321
 2835W        W23115  17.918   9.153   1.586 -0.1749 -0.0855  0.1728
 2836W        W23116   8.825   7.753  10.407  0.1193 -0.0016 -0.0222
 2837W        W23117  15.520   2.009   2.361 -0.2441  0.1011 -0.1118
 2838W        W23118  14.475   7.619   3.396 -0.0301 -0.1202 -0.3248
 2839W        W23119   2.996  14.399  11.242 -0.0693  0.0764 -0.1279
 2840W        W23120   0.206   6.504  10.434 -0.0096  0.0899 -0.0400
 2841W        W23121   4.544  13.971   3.469  0.1878 -0.1210  0.0308
 2842W        W23122   3.149  19.685   2.751  0.0998 -0.1935  0.3721
 2843W        W23123   4.330  10.146   3.306  0.1993  0.0803 -0.2071
 2844W        W23124   8.287   5.579  10.862  0.0113  0.0920 -0.1124
 2845W        W23125   0.649   5.743  11.579 -0.0547 -0.0214 -0.2133
 2846W        W23126   5.822  15.053   4.722 -0.0080  0.1231 -0.0839
 2847W        W23127  15.731   7.323  10.032 -0.0803 -0.1207 -0.0597
 2848W        W23128   5.136   3.363  10.306 -0.1844  0.0510  0.0307
 2849W        W23129   1.802   3.555   3.381  0.0227 -0.0385  0.2477
 2850W        W23130   5.509  17.142  10.752 -0.2164 -0.2323  0.0133
 2851W        W23131  12.170   4.275  10.714  0.3464  0.0083  0.2514
 2852W        W23132   1.827  17.286   3.181  0.2088 -0.1280  0.3713
 2853W        W23133  10.601   2.845   2.073 -0.2635 -0.1653 -0.1756
 2854W        W23134  19.067   9.550   2.780 -0.1787  0.2438  0.0815
 2855W        W23135   7.748   4.454   2.094 -0.0439 -0.0718 -0.0175
 2856W        W23136  16.846   2.926  13.584  0.1618 -0.0306 -0.0050
 2857W        W23137  15.605   8.615  12.839  0.1549 -0.1884  0.2927
 2858W        W23138  16.430   1.388   1.457  0.0692  0.0803 -0.1145
 2859W        W23139   9.574   8.117   0.605 -0.0707 -0.1614  0.3355
 2860W        W23140   8.734   3.000   1.914 -0.0290 -0.1790 -0.1551
 2861W        W23141   6.803   6.248   2.752  0.0434 -0.1500  0.0242
 2862W        W23142   6.679   2.292  11.702 -0.3582  0.1775  0.1508
 2863W        W23143   3.450   7.893  10.978 -0.0437  0.1390  0.1266
 2864W        W23144   5.587  14.994   3.375  0.0598 -0.2606  0.0547
 2865W        W23145  18.661  12.971  10.551  0.1514 -0.0745  0.0760
 2866W        W23146  19.280  17.492  11.098 -0.2431 -0.0178 -0.3047
 2867W        W23147  11.635  19.335  12.877 -0.0765  0.4397  0.1791
 2868W        W23148   3.979  14.976  11.283  0.2568  0.0198 -0.1268
 2869W        W23149  10.947  11.214  10.029  0.0384  0.0901  0.2045
 2870W        W23150   4.923   8.889   3.403  0.3997 -0.2320 -0.0370
 2871W        W23151  12.062  19.173  12.057  0.1833  0.2046 -0.0670
 2872W        W23152  13.548   6.515  13.253 -0.1434 -0.3096 -0.1496
 2873W        W23153   6.655   6.887  13.508  0.4182  0.3230  0.0129
 2874W        W23154  11.598   4.900  10.352 -0.0422  0.0468  0.1536
 2875W        W23155  17.269   1.163   2.456 -0.0280 -0.0987  0.0152
 2876W        W23156  16.061  11.477  10.695 -0.3598 -0.1177 -0.0130
 2877W        W23157  11.606   0.247   3.707  0.0277  0.0307  0.1232
 2878W        W23158   5.280  15.937   3.744 -0.2167 -0.1890 -0.0255
 2879W        W23159  12.393  16.850  12.531 -0.0297 -0.0630  0.0076
 2880W        W23160  15.250  10.162   2.422  0.0413  0.0780 -0.1335
 2881W        W23161  19.076   5.920  12.335  0.1898 -0.2174  0.1659
 2882W        W23162  13.173  17.997  13.226 -0.0999  0.2433  0.3517
 2883W        W23163   2.793  10.422   9.924  0.2773 -0.0510 -0.2095
 2884W        W23164   6.730  16.396  13.401  0.2055  0.0631 -0.2728
 2885W        W23165   8.405   4.324   2.814 -0.1432 -0.3331  0.0402
 2886W        W23166  13.869   0.060  10.797  0.0938  0.1459 -0.2114
 2887W        W23167  10.098  13.854  11.300 -0.0811 -0.1184  0.0949
 2888W        W23168   3.947   5.866   0.347 -0.1495  0.0078 -0.2219
 2889W        W23169  19.428   1.350  10.916 -0.1070  0.1717 -0.0619
 2890W        W23170  19.834  12.372  11.132 -0.0602  0.1321 -0.0827
 2891W        W23171   4.711   2.081   1.450 -0.2180  0.1260  0.1064
 2892W        W23172   2.372  12.676  13.804 -0.0673 -0.2455  0.0040
 2893W        W23173   3.858  17.183  13.350 -0.0906  0.1276 -0.0408
 2894W        W23174   1.902  13.741   1.407 -0.1369  0.2359 -0.0270
 2895W        W23175  11.121  17.131  10.485  0.0685 -0.1181  0.0015
 2896W        W23176   1.425  12.032   9.608  0.0655 -0.1193 -0.0904
 2897W        W23177   7.076  16.436  11.013  0.0479  0.0484 -0.0839
 2898W        W23178   1.034  12.746   0.626  0.1482  0.0602  0.0799
 2899W        W23179   2.436  18.968   2.019 -0.3607 -0.0290 -0.1333
 2900W        W23180  13.293   1.350   0.580 -0.0505  0.1160  0.0182
 2901W        W23181  16.366  15.550   1.318 -0.0746 -0.0300  0.0565
 2902W        W23182   7.527   3.036  10.494  0.2750  0.2052  0.1398
 2903W        W23183  12.957   9.719  12.500  0.1902  0.1648 -0.2010
 2904W        W23184   5.808   3.721   1.890  0.1119 -0.1257 -0.0296
 2905W        W23185   4.784   9.330   2.667 -0.0041  0.1648 -0.4069
 2906W        W23186  18.920  10.419  11.130 -0.1035  0.2351  0.2870
 2907W        W23187   4.311   1.802  10.250  0.1482  0.2372  0.1083
 2908W        W23188   6.602   2.791   0.691 -0.0129 -0.3117 -0.1590
 2909W        W23189  16.252   5.259  13.240  0.3253 -0.1802 -0.1362
 2910W        W23190  18.148   6.097   8.755 -0.1222 -0.0580  0.1096
 2911W        W23191  14.695   5.999   9.100  0.0877  0.0445  0.0061
 2912W        W23192   6.771   6.056   0.014  0.1970  0.0378  0.1272
 2913W        W23193  11.747   4.145   0.938 -0.0774  0.2322 -0.0105
 2914W        W23194   7.304   1.253  13.445 -0.3948 -0.0769  0.1441
 2915W        W23195  10.474   5.235   1.797 -0.0180 -0.1773  0.2736
 2916W        W23196   4.550  18.035  12.549 -0.1015  0.1478  0.5889
 2917W        W23197  10.309  17.295  12.326  0.0085 -0.1908 -0.1376
 2918W        W23198  10.014   6.527  13.440  0.0624  0.4169  0.2451
 2919W        W23199  10.174  15.961  11.043 -0.2879  0.0815 -0.0697
 2920W        W23200   5.074  13.283   1.460  0.0139  0.0342  0.1935
 2921W        W23201  17.013   0.923   1.097  0.0167  0.0728 -0.0928
 2922W        W23202  18.109  12.156  13.813  0.1850 -0.3010  0.2894
 2923W        W23203  16.520   0.445  13.250 -0.1578 -0.1371  0.0922
 2924W        W23204   5.970  15.895  11.896  0.2362  0.0527  0.0445
 2925W        W23205  12.273   2.871   0.920 -0.0749  0.1097  0.1473
 2926W        W23206   3.095  17.683   3.473 -0.0887 -0.0892  0.1379
 2927W        W23207   4.358  18.236  13.022  0.2688 -0.2141  0.1616
 2928W        W23208   9.810  14.202   9.598 -0.0881  0.0060 -0.0495
 2929W        W23209  12.292   7.152   4.020  0.3850 -0.1102 -0.3063
 2930W        W23210   6.342  16.188   3.878  0.0727  0.0125 -0.0345
 2931W        W23211  16.133  10.656   1.584  0.0610 -0.0337 -0.0904
 2932W        W23212   9.265   1.109  10.645 -0.0731  0.2044  0.1630
 2933W        W23213   9.964   9.459   1.260 -0.1387  0.0388  0.0850
 2934W        W23214   7.590  18.439  13.429  0.3975  0.1129  0.1042
 2935W        W23215   3.040   3.849  13.750  0.0976  0.0654  0.2797
 2936W        W23216   4.835   7.755  10.021  0.2496  0.1951  0.0072
 2937W        W23217  13.688  11.538  11.761  0.2346  0.0923  0.1530
 2938W        W23218   8.828  18.749   1.965  0.4365 -0.1116 -0.0710
 2939W        W23219  15.856  14.616  13.094 -0.1734  0.2157  0.1516
 2940W        W23220  12.044   3.729  13.258  0.1372 -0.0797  0.0791
 2941W        W23221  16.687  13.106   0.042  0.2439 -0.4000 -0.1342
 2942W        W23222  11.628   4.833  13.455 -0.0667  0.3919  0.0623
 2943W        W23223   9.566  18.846  11.297  0.0325 -0.2321  0.0860
 2944W        W23224   9.692   7.803  10.953  0.1957 -0.0789 -0.0591
 2945W        W23225   4.822   7.997  13.150  0.1012 -0.4694 -0.1961
 2946W        W23226  14.031   5.135   3.012 -0.4207 -0.0241 -0.0963
 2947W        W23227   0.553   9.672   0.839 -0.0015 -0.0827  0.1470
 2948W        W23228   1.774  13.859   3.113  0.0921 -0.0731 -0.1605
 2949W        W23229   4.606  18.347  11.032 -0.2540  0.1488  0.1414
 2950W        W23230   8.326   8.277   4.386 -0.3002  0.1371  0.0442
 2951W        W23231  10.647   3.365   3.280  0.3664 -0.3571 -0.0573
 2952W        W23232  19.924  14.766   1.521  0.2328 -0.1145 -0.1539
 2953W        W23233  11.117   8.908   2.957 -0.3649  0.0472  0.2314
 2954W        W23234  11.196   4.901  13.727 -0.1943 -0.3303 -0.0127
 2955W        W23235   4.832   7.360  10.977 -0.1844 -0.1131 -0.2190
 2956W        W23236   1.403   2.464   1.533  0.2537 -0.2093 -0.0880
 2957W        W23237   0.373   5.512  12.909 -0.1788  0.0777 -0.1895
 2958W        W23238  16.474   9.365   1.258 -0.0068 -0.1386 -0.0804
 2959W        W23239  12.355  16.012   2.173 -0.5059  0.0455 -0.4002
 2960W        W23240   9.872  19.568  10.197  0.1815 -0.1292  0.1751
 2961W        W23241  13.537  11.679  13.567  0.0002 -0.1765 -0.1279
 2962W        W23242   7.324  13.145   2.707  0.0190  0.2284 -0.0434
 2963W        W23243   4.399  16.992   0.272  0.1638 -0.0650  0.0957
 2964W        W23244  14.894  12.309   1.782 -0.1904 -0.0416 -0.1045
 2965W        W23245   1.714   7.140   0.264  0.1361 -0.0679 -0.0604
 2966W        W23246  19.711   3.823   9.095  0.1775 -0.0929 -0.2348
 2967W        W23247  17.410   9.483  11.809  0.0103  0.2368  0.2673
 2968W        W23248  18.328  16.489  12.951 -0.0626  0.3818  0.0017
 2969W        W23249   8.353   8.834  13.626  0.0683  0.0643  0.2664
 2970W        W23250  11.477   7.696   3.868 -0.0069 -0.1836  0.3126
 2971W        W23251   0.121  10.790   1.842  0.3691  0.1447  0.3228
 2972W        W23252   4.766  10.525   4.174  0.1113 -0.1429  0.1121
 2973W        W23253  16.876   0.410   3.753  0.2049 -0.4447  0.1603
 2974W        W23254   4.463  17.693   3.042  0.2334  0.3914  0.1638
 2975W        W23255  10.988  18.455   9.799  0.2100 -0.0644 -0.2389
 2976W        W23256   0.398   4.443  12.790  0.0810  0.0129 -0.2246
 2977W        W23257  18.135  14.397  10.957  0.3234 -0.0051  0.0834
 2978W        W23258  11.196   3.330   2.736  0.1777  0.3524 -0.0579
 2979W        W23259   9.013  19.425  10.531 -0.1519  0.2696  0.0044
 2980W        W23260   0.593   2.654  13.474  0.1653 -0.0209  0.0125
 2981W        W23261  14.801  18.147  13.057  0.0855 -0.0731  0.3346
 2982W        W23262  13.918  14.932   1.539  0.1283 -0.1990  0.4579
 2983W        W23263   4.042   6.069  13.542 -0.1360 -0.0052 -0.1169
 2984W        W23264  17.538  19.716  12.558  0.2750  0.1290 -0.0302
 2985W        W23265   7.501   4.014   1.601 -0.0964  0.2184 -0.1022
 2986W        W23266  18.599   8.205  10.327 -0.0354  0.3599  0.0657
 2987W        W23267  15.276   9.606  11.627 -0.0038  0.0147 -0.0308
 2988W        W23268   5.865   6.031   1.947 -0.1260 -0.1505  0.0381
 2989W        W23269  10.693  17.164  13.274 -0.0046 -0.2656 -0.3577
 2990W        W23270   8.748   4.751  11.350 -0.0960  0.1821 -0.0507
 2991W        W23271   6.335  14.520   3.950  0.0948  0.1166 -0.2306
 2992W        W23272   8.372  16.275  12.496  0.0180 -0.2899  0.0676
 2993W        W23273  10.020   7.504   0.098  0.1782 -0.0345  0.0253
 2994W        W23274   0.460  10.473   1.601 -0.1127 -0.2640  0.2885
 2995W        W23275  19.071   9.717  12.385 -0.1234 -0.0765  0.2052
 2996W        W23276  17.618   8.116   0.683  0.1805 -0.0449  0.0992
 2997W        W23277   2.483  16.268   3.668 -0.2171  0.0431 -0.0594
 2998W        W23278  17.310   1.713   1.691  0.1864 -0.3184 -0.1052
 2999W        W23279  17.642   2.579   9.690 -0.0038  0.0148 -0.2256
 3000W        W23280   1.740   5.860  11.130 -0.4643 -0.2309 -0.4059
 3001W        W23281   3.642  18.293   0.660  0.1375 -0.0077 -0.0880
 3002W        W23282  11.653   2.854   2.009 -0.1042  0.0564 -0.0804
 3003W        W23283   8.844  18.940   3.525 -0.0807  0.0007  0.1397
 3004W        W23284  18.383  16.191   0.468 -0.2979  0.0645  0.3847
 3005W        W23285  16.077   0.011   3.063 -0.3360 -0.1942  0.1667
 3006W        W23286   1.541   0.182  13.764 -0.0292  0.1492  0.3522
 3007W        W23287  13.296  19.238   1.688  0.2107 -0.0829  0.1209
 3008W        W23288  12.842   4.158   1.888  0.1424  0.0221  0.1118
 3009W        W23289  15.906  11.663  10.231  0.2687 -0.0002 -0.2445
 3010W        W23290  11.088  10.472   0.048 -0.2427 -0.3569 -0.4564
 3011W        W23291  16.202   8.375  11.623  0.0245  0.2946 -0.0314
 3012W        W23292   5.653   9.969   3.178 -0.5095 -0.0311 -0.1452
 3013W        W23293  18.976   4.849   3.108 -0.0949  0.4743 -0.1180
 3014W        W23294   2.409   0.387   0.753 -0.4308 -0.0447  0.3846
 3015W        W23295   3.701  10.392  10.845  0.1739 -0.1051  0.0138
 3016W        W23296   3.760  15.653   1.369  0.1908  0.0923 -0.1728
 3017W        W23297   9.669   7.589  13.274  0.0000  0.1297 -0.0541
 3018W        W23298  14.031   5.712  11.291 -0.0913  0.2734  0.1404
 3019W        W23299   7.867  12.783  12.452  0.0654  0.0703 -0.2579
 3020W        W23300   5.374  10.653   2.097  0.1414  0.1817  0.1845
 3021W        W23301   9.663  12.682   2.946 -0.0049 -0.1774 -0.2126
 3022W        W23302   7.959  18.953   0.235  0.0822  0.0329 -0.2116
 3023W        W23303   8.897  17.888  10.706 -0.0752  0.1792 -0.1405
 3024W        W23304  19.100   3.563   8.911 -0.1296  0.5358 -0.0873
 3025W        W23305  18.203   9.345  12.816 -0.1110 -0.4406  0.1110
 3026W        W23306   0.673   1.112   0.642 -0.0444  0.0587  0.2075
 3027W        W23307   3.671  18.264   2.143  0.2485 -0.0774 -0.0557
 3028W        W23308  11.098   4.511   9.682 -0.0828  0.0178  0.0815
 3029W        W23309   6.550   9.534   9.362  0.0993  0.0506 -0.1115
 3030W        W23310  17.480  16.553  13.026  0.1268 -0.1659 -0.1444
 3031W        W23311  17.659   4.350   2.566  0.1405 -0.0657  0.1305
 3032W        W23312  11.883   7.585   3.113  0.1851  0.0666  0.1638
 3033W        W23313  17.462  15.929  12.515  0.1270  0.2668  0.0010
 3034W        W23314  12.402  12.359   2.852  0.0808 -0.1851 -0.0462
 3035W        W23315   9.478   0.807   3.577 -0.0474  0.1189 -0.0331
 3036W        W23316   6.545  16.221  10.905  0.0322  0.0593  0.2918
 3037W        W23317   3.304   8.590   2.870 -0.4294 -0.0668 -0.0286
 3038W        W23318  19.030  19.624  11.000 -0.0048  0.1414 -0.0301
 3039W        W23319  13.494   0.780   1.063  0.2239 -0.1556 -0.0450
 3040W        W23320  17.290   3.440  11.639  0.3420 -0.1484 -0.1020
 3041W        W23321   8.852  12.699  11.222 -0.0287 -0.0573 -0.6915
 3042W        W23322   1.216  17.391  11.138  0.2701  0.2638 -0.2470
 3043W        W23323   0.398  18.683  12.283  0.2098 -0.0188  0.0163
 3044W        W23324   0.808   3.707  11.738 -0.3750 -0.1958 -0.1248
 3045W        W23325  18.335   8.521   0.978  0.1944  0.0708 -0.4110
 3046W        W23326  10.184  11.559  13.736 -0.0360 -0.0977  0.2428
 3047W        W23327   0.715   5.204   3.340 -0.0268  0.1722  0.0541
 3048W        W23328   5.365   0.164  13.517 -0.0743 -0.1236  0.0139
 3049W        W23329  16.971   5.267   1.105 -0.0700 -0.2215  0.0227
 3050W        W23330   0.651   6.160   2.272  0.0840 -0.1321 -0.0986
 3051W        W23331  15.869   9.527   9.616  0.0276 -0.2950  0.0279
 3052W        W23332  19.422   9.373  12.252  0.3870  0.0595 -0.2134
 3053W        W23333   6.863  17.823  12.508 -0.0006  0.2451 -0.1875
 3054W        W23334  10.632   2.116   1.301  0.0542  0.1006 -0.1186
 3055W        W23335  15.587  11.278  10.815 -0.0695 -0.0630  0.0772
 3056W        W23336  13.627  12.304  12.203  0.4118 -0.4218  0.1356
 3057W        W23337  17.436  14.420  10.327 -0.1575 -0.3076 -0.1471
 3058W        W23338   3.966   2.876   3.973 -0.0387 -0.2582  0.2156
 3059W        W23339   4.681   8.279   2.538 -0.1242 -0.2180 -0.2366
 3060W        W23340   5.379   9.499  10.014  0.2935  0.0131  0.0335
 3061W        W23341  17.876   5.544  13.370 -0.1484  0.0459  0.0863
 3062W        W23342  15.773  19.717   3.920 -0.0329  0.1132  0.3172
 3063W        W23343   7.445   0.557  13.188  0.2455  0.0964 -0.0159
 3064W        W23344   7.498   9.699   0.314 -0.0422 -0.1517 -0.0516
 3065W        W23345  17.933  17.594   9.818 -0.0137 -0.0620  0.3386
 3066W        W23346  12.435   7.023  13.800 -0.1672 -0.0871 -0.0004
 3067W        W23347  18.170  10.500   9.451 -0.1179  0.1566  0.2501
 3068W        W23348  12.940   2.906   1.472  0.0371 -0.1043 -0.0449
 3069W        W23349  19.715  10.070  11.449 -0.3722  0.0827 -0.2957
 3070W        W23350  15.164   5.423  13.677  0.0234  0.2213  0.4287
 3071W        W23351   8.191   8.353  12.700  0.2246  0.1063  0.0828
 3072W        W23352   5.384  18.359   2.310 -0.1730 -0.0902  0.0817
 3073W        W23353   0.982  16.214   4.077  0.4959  0.2321  0.2761
 3074W        W23354   0.573  14.012   1.400 -0.3559 -0.0115 -0.1368
 3075W        W23355  14.280  15.836   3.078 -0.0450  0.2933 -0.2954
 3076W        W23356   2.879   9.089   0.134 -0.0742  0.0425 -0.0284
 3077W        W23357  10.214  18.397   0.712  0.0714  0.1322  0.1328
 3078W        W23358   6.252  18.724   2.768 -0.1043  0.0806  0.0342
 3079W        W23359   0.700   1.906   3.546 -0.2115 -0.1649  0.2020
 3080W        W23360   3.708  10.403  10.304  0.1643  0.1238 -0.0423
 3081W        W23361  13.762  12.432   0.274  0.0306  0.0516 -0.0168
 3082W        W23362   2.459  16.012   3.246 -0.1675 -0.2085 -0.0461
 3083W        W23363   3.534  13.905   1.197 -0.0449 -0.4059 -0.4427
 3084W        W23364  17.687   8.822   1.251  0.2690 -0.3115 -0.0770
 3085W        W23365  15.614  11.230   1.003  0.1173  0.0277 -0.0828
 3086W        W23366  18.024   3.225   2.261 -0.2446  0.1128 -0.1108
 3087W        W23367   0.580   5.263  11.147  0.0733 -0.1585 -0.0227
 3088W        W23368   5.692   4.641   3.638  0.0494 -0.3379  0.3699
 3089W        W23369  16.197  18.131   3.039  0.0262 -0.1253 -0.4721
 3090W        W23370  19.180  19.903   1.758 -0.1154  0.0083 -0.0214
 3091W        W23371  12.706  14.287   3.372 -0.2727 -0.0529 -0.3216
 3092W        W23372   3.921  17.309  10.702  0.0963 -0.0712 -0.0802
 3093W        W23373   7.543  11.570   9.702 -0.2478  0.0648  0.1240
 3094W        W23374  16.942  11.494  10.476  0.2777  0.0678  0.0292
 3095W        W23375   9.781   0.166   1.680  0.0543  0.1681 -0.0033
 3096W        W23376  14.862   5.769   0.343  0.0679  0.1400  0.2904
 3097W        W23377   3.410  17.305   2.256 -0.1202  0.2537  0.0303
 3098W        W23378   5.536   6.894   1.655  0.0513 -0.2363 -0.0894
 3099W        W23379  19.817   8.286   3.541  0.0138 -0.0678  0.0819
 3100W        W23380  10.341   8.581  11.624 -0.1556 -0.2725  0.3436
 3101W        W23381   8.819  17.583   0.519  0.0121  0.3529  0.1252
 3102W        W23382   6.268  10.116  12.069 -0.0292 -0.0468  0.1414
 3103W        W23383  11.314  13.720   3.292  0.2230  0.1761  0.1884
 3104W        W23384   0.702   9.443   0.378  0.0085 -0.0816 -0.0259
 3105W        W23385   8.162   5.696   2.679 -0.0424  0.1580 -0.0123
 3106W        W23386   6.631   8.301   1.983 -0.0292  0.0591  0.0315
 3107W        W23387   0.616   2.351   4.311 -0.0655  0.0823  0.2284
 3108W        W23388   8.193  16.592   0.654 -0.2789  0.0017  0.0660
 3109W        W23389  18.799  16.468  13.082  0.2869  0.2445 -0.0570
 3110W        W23390  10.621  14.094   4.146  0.0273  0.1446 -0.0060
 3111W        W23391   6.996  17.846  13.515  0.0182 -0.1099 -0.4248
 3112W        W23392  12.947   2.372   2.014  0.0391 -0.0317  0.0836
 3113W        W23393  11.593  17.053   2.617 -0.0369 -0.0545 -0.3508
 3114W        W23394  15.854   6.773  10.997 -0.3305  0.0452 -0.1581
 3115W        W23395   6.999  16.705  13.157  0.1763  0.0978  0.0183
 3116W        W23396   6.091   1.194   0.909  0.2296  0.2854  0.2274
 3117W        W23397   9.217  11.208   2.712  0.0918 -0.0369 -0.1020
 3118W        W23398   5.994   9.877   2.771  0.1590 -0.3005  0.1368
 3119W        W23399  10.732  16.217  13.507 -0.0818  0.0057 -0.2184
 3120W        W23400  19.368  13.128  13.047 -0.0138 -0.0617  0.0659
 3121W        W23401  14.851   2.787   9.743  0.2490 -0.1311  0.1203
 3122W        W23402  13.555  17.914  10.881 -0.5210  0.0923 -0.1185
 3123W        W23403   3.336   0.849  11.467  0.3109  0.2219 -0.2151
 3124W        W23404   0.377  12.251   9.017 -0.0086 -0.0163 -0.0642
 3125W        W23405   4.073  18.961  12.232 -0.1948 -0.1090 -0.1100
 3126W        W23406   3.253  15.437   4.073  0.0921  0.0029 -0.1431
 3127W        W23407   7.552   5.873   3.104  0.1341 -0.1752  0.0211
 3128W        W23408  12.728   7.294  11.273 -0.1220 -0.0292 -0.1054
 3129W        W23409  13.426   9.308  13.253  0.0825 -0.2692 -0.3650
 3130W        W23410   3.079   5.645   4.350  0.0396  0.1766 -0.1243
 3131W        W23411   4.384   9.775  12.757 -0.1894 -0.2466  0.1337
 3132W        W23412   4.144   8.311   2.361  0.1534 -0.1994  0.1756
 3133W        W23413  11.074   8.466   2.087  0.1252  0.1648  0.0004
 3134W        W23414  10.048   2.137  12.391 -0.0143  0.1763 -0.3074
 3135W        W23415  11.943  11.687  13.847  0.2562 -0.0064 -0.1944
 3136W        W23416  11.387  17.463   4.261  0.3963  0.1212  0.2240
 3137W        W23417  14.129  18.481  11.354  0.1706  0.2445 -0.2297
 3138W        W23418  19.526   2.944   2.637  0.1690 -0.0895 -0.1011
 3139W        W23419   4.548  12.311   3.026  0.1859 -0.1119  0.2277
 3140W        W23420   3.044  17.575   1.091 -0.0258 -0.0848 -0.2384
 3141W        W23421  14.847  16.727   1.055 -0.3308  0.0872 -0.0035
 3142W        W23422   7.603  13.127   0.683 -0.2217 -0.0639 -0.0892
 3143W        W23423  10.364   4.687  10.768  0.2490  0.2602  0.0031
 3144W        W23424  16.142   0.891  11.238  0.0644 -0.2119 -0.0486
 3145W        W23425  16.186  15.665   0.531 -0.0541  0.2040 -0.3234
 3146W        W23426   6.138  17.332   2.366 -0.2530 -0.1038 -0.1771
 3147W        W23427   5.207   0.112   0.240  0.0075 -0.2163 -0.2163
 3148W        W23428   9.986  14.119  10.910  0.0925 -0.3443  0.2533
 3149W        W23429  14.822   8.339  10.495  0.0129 -0.5232 -0.1837
 3150W        W23430  18.613  14.066   2.647  0.1782  0.0434  0.1118
 3151W        W23431  15.830  10.596   0.162  0.3073 -0.2106 -0.2603
 3152W        W23432   2.893  18.382   0.356 -0.1628  0.1744 -0.2415
 3153W        W23433   0.898   2.355   3.330 -0.4078 -0.1856  0.0924
 3154W        W23434   5.042   1.101   3.752  0.0668  0.1773  0.0929
 3155W        W23435  13.841  13.324   1.486 -0.0322 -0.3014 -0.1355
 3156W        W23436   6.644   3.670  12.533 -0.3819 -0.1160  0.3024
 3157W        W23437   3.481  15.209  10.410  0.1557 -0.1512  0.2360
 3158W        W23438   2.439   7.585   3.204 -0.2363 -0.0491  0.0197
 3159W        W23439   6.398   9.499   2.523  0.3847  0.1240 -0.1278
 3160W        W23440   7.032  19.293   1.764 -0.1240 -0.1990  0.0357
 3161W        W23441   6.444  17.108  11.046  0.0300  0.2445 -0.1381
 3162W        W23442   3.126  18.205  13.176  0.0710 -0.2576 -0.0203
 3163W        W23443   0.457   8.096   9.087 -0.2352  0.1041 -0.2360
 3164W        W23444  19.877   3.851   0.314 -0.1698  0.2476 -0.0621
 3165W        W23445   9.178   8.873   5.020  0.0429  0.2378  0.0091
 3166W        W23446   6.631   1.466   0.087 -0.2903  0.0127 -0.2666
 3167W        W23447   2.094   8.222  13.399  0.0050  0.0269  0.0859
 3168W        W23448  10.120   1.988   2.178  0.4560 -0.2984 -0.0667
 3169W        W23449  18.863   8.157   0.398  0.0044  0.1526 -0.0316
 3170W        W23450  14.000  11.975  12.535  0.0894 -0.1113 -0.0833
 3171W        W23451  15.108  17.973   3.060 -0.1030  0.2471  0.0058
 3172W        W23452   2.347  17.770   3.773 -0.0761 -0.1239  0.0019
 3173W        W23453  15.223  19.632  11.370 -0.0425 -0.2141 -0.3238
 3174W        W23454   9.306  19.153   0.080  0.0494  0.0440  0.0531
 3175W        W23455  18.944  18.074   3.539 -0.0377 -0.3558 -0.2158
 3176W        W23456   3.616  12.613  13.213 -0.1024 -0.1366 -0.0871
 3177W        W23457   5.007  17.864  10.944  0.0760  0.0549 -0.2267
 3178W        W23458   2.738   5.530   2.161 -0.0465  0.3322 -0.0972
 3179W        W23459  17.126  18.574   2.024 -0.0237  0.1387 -0.2436
 3180W        W23460  12.020  16.914   3.295 -0.2783  0.2200 -0.0108
 3181W        W23461  12.289   5.365  10.307 -0.2513  0.1953 -0.2286
 3182W        W23462  10.529   7.732  12.026  0.2596 -0.0100 -0.0927
 3183W        W23463  19.152   1.136  11.338 -0.3856 -0.1530  0.0911
 3184W        W23464   2.333  13.386   3.597  0.3366  0.2233 -0.0368
 3185W        W23465   9.190  17.475   1.630  0.3695  0.0822  0.1886
 3186W        W23466   2.438  15.420   1.432  0.4338 -0.2323  0.0977
 3187W        W23467   8.648  18.204   1.828  0.1179 -0.0239  0.0789
 3188W        W23468   5.901  16.917  10.529 -0.0417 -0.0842  0.0128
 3189W        W23469   5.135  17.104  13.733  0.1479  0.0807 -0.0308
 3190W        W23470  18.637  10.040   0.421  0.0245  0.3364 -0.0494
 3191W        W23471   6.666  16.833   1.481  0.1862 -0.1837 -0.1896
 3192W        W23472   2.388  19.643  13.789  0.3758  0.3411  0.1440
 3193W        W23473  15.273   1.821   0.770  0.2596 -0.2012 -0.0450
 3194W        W23474  13.235  14.229  12.555 -0.1361 -0.0584 -0.2186
 3195W        W23475   1.839   2.229  10.956  0.0732 -0.0015 -0.3683
 3196W        W23476  16.857   6.188  10.427 -0.1262  0.2276 -0.1202
 3197W        W23477   9.603   4.259   1.997 -0.2342  0.0339 -0.0769
 3198W        W23478   0.515  17.289   2.692  0.0158  0.1771 -0.1318
 3199W        W23479   4.073  13.857  10.733 -0.2452  0.1404  0.1595
 3200W        W23480  10.142   8.010   0.606 -0.1146 -0.0338  0.4210
 3201W        W23481  13.944   5.113   1.247  0.2501  0.4281 -0.1157
 3202W        W23482   6.081  10.522   1.579 -0.0266  0.0159  0.3397
 3203W        W23483  14.034   4.031  12.954 -0.3145 -0.0694  0.1655
 3204W        W23484  12.098   7.417  13.758 -0.2763 -0.0840 -0.0392
 3205W        W23485  18.967  19.534   1.507  0.0058  0.2368  0.1814
 3206W        W23486   3.211   0.635  13.682 -0.1136  0.0214  0.1506
 3207W        W23487  19.111   3.470   3.795  0.2654 -0.0361  0.1070
 3208W        W23488   9.319  11.718   4.161  0.0667  0.1150  0.2316
 3209W        W23489   6.446   2.851   1.157  0.1395 -0.0447 -0.2248
 3210W        W23490   9.706  15.983   2.661  0.0374  0.1219 -0.1364
 3211W        W23491  17.459   0.826   0.889  0.3087 -0.0791  0.2893
 3212W        W23492  14.474   6.078  13.661 -0.1657 -0.1471 -0.1963
 3213W        W23493   5.509   5.613   1.413  0.0367  0.0495 -0.1305
 3214W        W23494   0.755  15.232   9.796  0.1569  0.1388  0.2082
 3215W        W23495  19.372   5.891   1.841  0.3680  0.0474 -0.4417
 3216W        W23496  18.264  15.990  10.824 -0.0379  0.2305  0.0196
 3217W        W23497   8.643  18.517   3.219  0.0227  0.2618  0.0697
 3218W        W23498  15.347  19.398   3.323  0.1016 -0.0898  0.2596
 3219W        W23499   8.310  18.721  12.013 -0.1363  0.2354 -0.0746
 3220W        W23500  19.156  18.739  12.589 -0.1786 -0.1218  0.0497
 3221W        W23501  18.444  15.925   9.139 -0.2415 -0.2250 -0.1460
 3222W        W23502  10.500   8.622   4.509  0.1901  0.3936  0.1921
 3223W        W23503  19.002  12.859   2.211  0.1268 -0.4239  0.0216
 3224W        W23504  14.924  15.057  11.148  0.2076 -0.2889 -0.0939
 3225W        W23505  14.329   6.777   3.683  0.1034  0.1060  0.0629
 3226W        W23506   7.541   9.215  11.823  0.1500 -0.0748  0.3561
 3227W        W23507   7.667   4.109   2.888 -0.1538  0.0857  0.2523
 3228W        W23508  19.052   5.346   1.268  0.1048  0.1523  0.3448
 3229W        W23509   4.705  10.108   2.868 -0.2713  0.0757 -0.2162
 3230W        W23510   8.313   5.776   0.927  0.1463  0.2062  0.1974
 3231W        W23511   6.441  17.709   3.658 -0.0764 -0.0854 -0.0464
 3232W        W23512  10.273   9.808   1.934  0.0403  0.1039  0.0324
 3233W        W23513  15.845   8.699   1.585 -0.1183  0.0283 -0.0216
 3234W        W23514  11.334   0.540  12.240  0.2285 -0.2949  0.2552
 3235W        W23515   9.457  10.118   0.517 -0.0394  0.0511  0.4461
 3236W        W23516  15.853  15.698   2.302 -0.0056 -0.0085 -0.1658
 3237W        W23517  12.716   5.681  13.167 -0.1380  0.1661 -0.1279
 3238W        W23518   6.086  19.205  11.740  0.2867 -0.0237 -0.1353
 3239W        W23519  12.043   2.339  11.890 -0.0326 -0.3598  0.3820
 3240W        W23520  13.714   2.294  11.854 -0.0009  0.2949  0.1980
 3241W        W23521  15.000  11.581  13.471  0.1043 -0.0079 -0.1252
 3242W        W23522   9.464  16.770  13.290  0.0514  0.0565 -0.3408
 3243W        W23523   0.777   6.418   3.607 -0.0330 -0.0747  0.2045
 3244W        W23524  15.885  11.767   3.031 -0.0932  0.0780 -0.1003
 3245W        W23525  17.339  19.209  12.450 -0.2958 -0.1730  0.2490
 3246W        W23526  19.473   3.367  11.076 -0.0930  0.1451 -0.3629
 3247W        W23527   7.644  14.437   4.096 -0.1006 -0.0827 -0.1215
 3248W        W23528  18.947  12.942   2.794 -0.1834  0.1663 -0.0689
 3249W        W23529  16.690  19.479   2.572 -0.0135 -0.2326 -0.2286
 3250W        W23530  19.612  16.990   2.072  0.0569  0.1546 -0.0577
 3251W        W23531  11.588  18.505   2.661 -0.1384 -0.0568 -0.0015
 3252W        W23532  17.569   3.048  12.197  0.0748 -0.4608  0.2192
 3253W        W23533  10.628  14.482  11.177 -0.2002 -0.1875  0.2098
 3254W        W23534   4.521   5.753  10.930  0.2827  0.0594  0.3133
 3255W        W23535  12.924  14.854  10.394 -0.0561  0.0378 -0.4492
 3256W        W23536   3.947   7.201  12.314  0.1236  0.0437 -0.1182
 3257W        W23537  15.111  14.190   3.396 -0.1480 -0.2928 -0.1542
 3258W        W23538   8.134   4.705   4.348 -0.1517  0.2149  0.1787
 3259W        W23539  10.081   4.521   4.378 -0.1848  0.1384  0.3515
 3260W        W23540  18.197  13.870   1.834  0.1362  0.1884 -0.1647
 3261W        W23541   3.399   9.927   2.965  0.0619  0.0927  0.3636
 3262W        W23542  12.764   5.375  11.004 -0.7056  0.0099  0.1028
 3263W        W23543   9.501   8.665   0.111  0.0348  0.1418 -0.0964
 3264W        W23544  17.591  19.869  13.513 -0.4021  0.0164  0.0459
 3265W        W23545   8.099   6.089  11.645 -0.1785 -0.2272 -0.2112
 3266W        W23546  10.136  10.385   1.116 -0.3400 -0.0545 -0.1244
 3267W        W23547   8.418   3.389  12.701  0.0922 -0.1730  0.0339
 3268W        W23548  11.097  19.711   4.252 -0.0116 -0.1391  0.1565
 3269W        W23549  11.406  19.893  13.039  0.0506  0.0598 -0.1486
 3270W        W23550  12.602   3.717   3.607 -0.2168  0.1663 -0.4839
 3271W        W23551  10.131  13.503   1.267  0.2834 -0.2308  0.0821
 3272W        W23552   6.591   8.615  13.055  0.1460 -0.0553 -0.2438
 3273W        W23553   7.179   4.840  10.380 -0.0503 -0.2343  0.0683
 3274W        W23554   1.092  18.146   2.219  0.1050 -0.1107 -0.0942
 3275W        W23555   2.274  19.755   3.235  0.2003 -0.0471  0.2043
 3276W        W23556  14.671   8.637   0.812 -0.0947  0.1328 -0.1588
 3277W        W23557  11.982   7.634   2.386 -0.0397  0.1300 -0.1444
 3278W        W23558   1.186  17.006  11.544  0.0350  0.1454  0.1453
 3279W        W23559   4.700   4.129  10.243  0.0909 -0.1963 -0.2007
 3280W        W23560   3.697   6.582   4.992 -0.1284  0.1551  0.2197
 3281W        W23561   9.143  13.302  10.320 -0.1000 -0.3259  0.2342
 3282W        W23562  16.670   5.534  12.624  0.0370  0.1580 -0.1890
 3283W        W23563   3.540  18.761   3.941 -0.0776 -0.3311  0.4018
 3284W        W23564   4.647  12.463  13.307  0.0025  0.1017  0.0374
 3285W        W23565  15.094  18.129   0.359  0.3218 -0.0986  0.0104
 3286W        W23566  17.548   6.169   0.082  0.1440  0.1727  0.3528
 3287W        W23567   4.015   9.001   1.284 -0.0504 -0.0513  0.2555
 3288W        W23568   7.836  19.451  13.035 -0.0627  0.1496  0.0096
 3289W        W23569   2.496   2.631   0.693  0.2121 -0.1717  0.0579
 3290W        W23570   3.657   5.838  11.247  0.0386  0.0233  0.1070
 3291W        W23571   2.171  13.380   2.112 -0.1453  0.3025 -0.0999
 3292W        W23572  14.363   8.486   3.319  0.1935  0.1496  0.1278
 3293W        W23573   3.683  14.727   0.498  0.0953 -0.2103  0.1643
 3294W        W23574   8.486   9.104  12.101  0.0916 -0.1679  0.1496
 3295W        W23575   3.407  18.837  12.662  0.0779 -0.0706  0.3467
 3296W        W23576  15.758   0.362   1.416 -0.2985  0.1705 -0.2020
 3297W        W23577   9.090   2.987   2.637  0.1845  0.0823  0.0194
 3298W        W23578   0.251  12.651   3.408  0.0622 -0.3042  0.1197
 3299W        W23579  15.316  13.251   0.551 -0.0710  0.0963 -0.0547
 3300W        W23580  19.791  14.509   0.303  0.0358  0.1312 -0.0841
 3301W        W23581   6.891   5.057  11.504 -0.0541  0.0500  0.0079
 3302W        W23582  13.893   6.988   3.416 -0.1609  0.1558 -0.0129
 3303W        W23583   8.815  19.276   0.015 -0.2055 -0.1436 -0.1159
 3304W        W23584   5.167  17.847  10.354 -0.2020 -0.0213 -0.2520
 3305W        W23585   8.078   6.709   0.266  0.0338  0.0279 -0.3487
 3306W        W23586   6.459  14.389  13.337 -0.0035  0.0484 -0.0542
 3307W        W23587   1.279  17.681   2.449  0.0057  0.0781 -0.2983
 3308W        W23588   6.747   2.383   9.166  0.2067  0.3106  0.2289
 3309W        W23589   4.557  14.087   1.344 -0.3493 -0.1039 -0.1742
 3310W        W23590  10.023  18.488  11.982 -0.1597  0.0603  0.0027
 3311W        W23591  14.596  17.192   0.093  0.0771  0.4674  0.1943
 3312W        W23592  10.519   5.642   0.954  0.1326  0.1372 -0.3722
 3313W        W23593  13.603  10.999   2.938 -0.1217 -0.2756 -0.0748
 3314W        W23594  17.930  10.732  13.223 -0.3725 -0.1000  0.2619
 3315W        W23595   2.315  16.551  12.255  0.0913  0.0666 -0.3267
 3316W        W23596   4.399   1.818  10.817  0.3128 -0.0893 -0.1685
 3317W        W23597   6.853   1.078  13.685  0.0225 -0.1416 -0.1574
 3318W        W23598  15.453   3.879  11.036  0.0448 -0.1681  0.0543
 3319W        W23599  12.344  17.143   0.760  0.0671  0.2209 -0.1511
 3320W        W23600   2.347   7.062  11.643 -0.1120  0.0085 -0.0306
 3321W        W23601  19.956  17.581  12.158  0.0245  0.2485  0.0590
 3322W        W23602  17.823   3.069  12.724 -0.1368  0.0091  0.1565
 3323W        W23603   9.947   7.319   0.777 -0.0735  0.1494  0.0578
 3324W        W23604   6.416   1.019   2.635 -0.1181 -0.1259  0.3385
 3325W        W23605  15.534  18.149  11.891 -0.2042 -0.1516 -0.0999
 3326W        W23606  16.852   3.421  13.384 -0.0090  0.0276 -0.0701
 3327W        W23607  18.851  10.189   2.319  0.1175  0.1881  0.0238
 3328W        W23608   2.816  18.443   3.310 -0.3397 -0.0597  0.0107
 3329W        W23609   2.085   6.717   3.318  0.1835  0.1178 -0.1197
 3330W        W23610  15.717   0.894   0.429  0.0533 -0.1269 -0.2602
 3331W        W23611   7.337  16.543   2.955  0.1101 -0.0272  0.1207
 3332W        W23612  16.364  11.709   2.808 -0.0725 -0.2512  0.5218
 3333W        W23613   2.342  11.302  12.751 -0.1851  0.4461  0.0356
 3334W        W23614  15.252  13.221   0.004 -0.0399 -0.2274 -0.1540
 3335W        W23615   4.324  14.917   3.094 -0.1207  0.1764 -0.0581
 3336W        W23616  10.874   9.955  11.808  0.1092  0.1908  0.0692
 3337W        W23617  16.307   0.269   2.150  0.0704 -0.0515  0.1529
 3338W        W23618   1.769   7.102   1.168 -0.0182  0.0734  0.1144
 3339W        W23619   5.596  15.074   0.517 -0.2658  0.2707 -0.0602
 3340W        W23620  17.117  15.593  12.283  0.0973 -0.4342  0.2159
 3341W        W23621   0.140   2.345   9.886  0.1831  0.1066 -0.0285
 3342W        W23622   4.541  10.735  12.336  0.0575 -0.2493  0.5851
 3343W        W23623   6.909   6.002  10.963 -0.0812  0.0328 -0.1200
 3344W        W23624  19.724  19.705  11.267  0.0587  0.0947 -0.2303
 3345W        W23625  18.478   9.020  10.036  0.0649 -0.0893  0.2961
 3346W        W23626  13.287   7.927  12.388 -0.1232  0.3144 -0.2849
 3347W        W23627  12.539  10.579   1.620 -0.0175  0.0597 -0.3780
 3348W        W23628   5.962  18.017   0.667 -0.1002 -0.0734 -0.0368
 3349W        W23629   0.525  18.109  13.667 -0.0672  0.5180 -0.1467
 3350W        W23630  16.626   6.662   0.802 -0.0802  0.4145 -0.0822
 3351W        W23631  17.424  14.711  11.919 -0.0012 -0.2280  0.2719
 3352W        W23632  15.031   3.597  10.895  0.1239  0.2384 -0.0272
 3353W        W23633  17.050   0.404   0.136 -0.0559 -0.1003  0.1839
 3354W        W23634   9.686  19.487  13.715 -0.0252  0.0062  0.1124
 3355W        W23635  11.909  13.318  10.665 -0.2844  0.1272 -0.1796
 3356W        W23636   4.681  16.562  10.705  0.1319 -0.2168 -0.0473
 3357W        W23637  13.322  12.567   0.398  0.2142 -0.1958 -0.3109
 3358W        W23638  16.682  17.164  13.224 -0.0031  0.2630 -0.1307
 3359W        W23639  17.726  13.316   9.583  0.1119  0.1833 -0.0097
 3360W        W23640  10.696   2.228  11.127 -0.0171 -0.1274  0.3236
 3361W        W23641   4.127  10.610   0.599  0.0758 -0.1393  0.1073
 3362W        W23642  14.893  10.775  13.695 -0.2781  0.0910  0.2145
 3363W        W23643  11.702  11.214  11.436 -0.0271  0.1388  0.1456
 3364W        W23644  15.792   8.848   0.711  0.2144 -0.0586 -0.1284
 3365W        W23645   3.257  13.083  10.523 -0.0929  0.0264  0.2238
 3366W        W23646   4.777   1.761  12.705  0.0338  0.3038  0.3863
 3367W        W23647  17.599   7.242   3.464  0.0280  0.1885  0.2630
 3368W        W23648   4.640  19.165   5.115  0.1131 -0.1806  0.1151
 3369W        W23649   2.636   0.466  11.950 -0.0776 -0.1345  0.1400
 3370W        W23650   4.202  11.601  12.243 -0.1097 -0.0858  0.0435
 3371W        W23651   0.614  18.933  13.692 -0.0047 -0.0472 -0.0737
 3372W        W23652  17.530   9.881  13.449  0.1044  0.1241  0.2851
 3373W        W23653  11.601   8.443   1.840  0.1169  0.2699  0.0302
 3374W        W23654   0.956  19.030   2.654  0.4859 -0.0700  0.1517
 3375W        W23655   8.802   9.103  13.589 -0.4801 -0.3319  0.1507
 3376W        W23656   8.745   2.806   5.174  0.0020  0.2872  0.1256
 3377W        W23657   3.951  12.604  12.809  0.1660  0.0384  0.0470
 3378W        W23658   7.150  11.434  12.422 -0.0765 -0.2003 -0.0343
 3379W        W23659  19.265   3.401  13.162  0.2794  0.4430 -0.1300
 3380W        W23660   6.674  12.255   1.083  0.0626  0.2246  0.0165
 3381W        W23661   9.907  19.930  11.367 -0.0163  0.1575 -0.1058
 3382W        W23662  10.042  16.015  10.543 -0.5464  0.1268 -0.1383
 3383W        W23663  18.996  19.284   3.114  0.0274  0.1660 -0.0233
 3384W        W23664   9.650   8.206  12.359  0.2368 -0.0347  0.4255
 3385W        W23665   3.451  13.217  11.971  0.1718 -0.3447  0.0805
 3386W        W23666   6.899   6.562   0.116 -0.1947 -0.1673 -0.2495
 3387W        W23667   0.418  12.038   2.218 -0.1228  0.1260 -0.0052
 3388W        W23668   1.046   4.783   2.289  0.0620 -0.5387 -0.0882
 3389W        W23669   4.576  12.972  13.558  0.1761 -0.0983  0.1712
 3390W        W23670  14.090   0.672   3.265  0.2174 -0.0074 -0.0410
 3391W        W23671   3.827  10.474   3.550  0.3378 -0.0171 -0.2547
 3392W        W23672  10.204   8.553   1.338  0.2489 -0.1551 -0.2731
 3393W        W23673  10.258  12.336   1.227  0.2728 -0.2340  0.1368
 3394W        W23674  11.542  12.709  13.075  0.1751  0.0196 -0.0388
 3395W        W23675  16.146   9.719   2.547  0.0940  0.0031 -0.1708
 3396W        W23676   2.970   8.912  12.324  0.1807  0.1128 -0.0731
 3397W        W23677  16.629  18.511   9.613 -0.0186 -0.2008  0.2411
 3398W        W23678   0.824   4.705   1.862 -0.3044 -0.0094 -0.1336
 3399W        W23679   5.226  11.924  11.163 -0.2712 -0.1337  0.2828
 3400W        W23680  18.487  17.406   1.161  0.0097  0.5625 -0.2848
 3401W        W23681   7.483  14.149   2.114 -0.1578  0.0706 -0.0640
 3402W        W23682   8.786   3.088  11.594  0.0133  0.2021 -0.1968
 3403W        W23683   8.553   5.619   9.171  0.1299 -0.4863 -0.0658
 3404W        W23684  19.577  13.196   1.254 -0.0414 -0.1196  0.0816
 3405W        W23685   3.222  12.432   2.825  0.2430 -0.1298  0.1802
 3406W        W23686   1.781   5.588   2.986 -0.1441 -0.0635  0.1641
 3407W        W23687   6.670  17.097  12.879 -0.0664  0.1163  0.2188
 3408W        W23688   9.352  18.922   4.260  0.1317 -0.0745  0.0286
 3409W        W23689   7.062  15.712   1.286 -0.1412  0.3924 -0.1380
 3410W        W23690  18.206   8.603  12.882 -0.1985 -0.1981  0.2665
 3411W        W23691  10.959  17.330   0.699  0.4197 -0.1597  0.1845
 3412W        W23692  14.184  19.644   2.246  0.1376 -0.4392  0.1319
 3413W        W23693  14.821   4.250   1.781 -0.0562 -0.1414  0.2602
 3414W        W23694   7.581  19.331   4.126 -0.1288  0.1241  0.0725
 3415W        W23695  19.454   2.408  11.126 -0.1229  0.0830 -0.4886
 3416W        W23696  13.432   5.820  12.681 -0.0227 -0.1371  0.1208
 3417W        W23697  17.602  19.002   9.662  0.0180  0.1295 -0.0442
 3418W        W23698   6.577  18.702   1.889 -0.1888 -0.0654  0.0750
 3419W        W23699   1.483   3.913  11.287  0.2088 -0.1115 -0.1611
 3420W        W23700  14.687  11.053   4.082 -0.1469 -0.1626 -0.2479
 3421W        W23701  18.360  16.665  11.764 -0.1502  0.2194 -0.0798
 3422W        W23702  11.510  10.465   2.239 -0.2018  0.2676  0.1001
 3423W        W23703   7.310  18.681  11.455 -0.1217  0.2222  0.1919
 3424W        W23704  11.530  18.224  13.714  0.0740 -0.0257 -0.2955
 3425W        W23705   2.056  16.322  13.337  0.0860 -0.0671 -0.0156
 3426W        W23706   7.006   7.507  12.824  0.1226  0.2446  0.1019
 3427W        W23707  15.250  11.506   0.291  0.2630  0.1168  0.1170
 3428W        W23708  19.476  14.686   0.703 -0.2246  0.0811 -0.1825
 3429W        W23709  16.855  14.981   2.809 -0.0173 -0.1639 -0.1148
 3430W        W23710  19.656  10.492  12.458 -0.0939 -0.1398 -0.1025
 3431W        W23711  10.020   3.013  12.797  0.0433 -0.1663 -0.4020
 3432W        W23712   0.674  12.781   1.610 -0.3835 -0.0784 -0.1532
 3433W        W23713  16.727  19.778  12.062  0.1574 -0.4085  0.1640
 3434W        W23714  10.045  10.675   3.546  0.0790  0.0624  0.0624
 3435W        W23715  17.655   9.074   0.764  0.0202  0.1681 -0.4367
 3436W        W23716   6.701   1.263   3.742  0.2480 -0.0097 -0.1808
 3437W        W23717   8.949   6.187   3.575  0.0673 -0.0398 -0.4038
 3438W        W23718   3.738   7.409   3.236 -0.1203  0.3078 -0.0985
 3439W        W23719   8.847   2.550   2.186 -0.1401  0.0399  0.0632
 3440W        W23720  18.255   7.569   0.634  0.2139 -0.0415 -0.2892
 3441W        W23721  16.815   8.582  13.142 -0.4365 -0.0218  0.0582
 3442W        W23722   5.638  14.631   5.054  0.4154 -0.1371 -0.1192
 3443W        W23723  17.416  14.906  13.559  0.1564  0.0229 -0.0249
 3444W        W23724   8.036   6.540   2.226 -0.0830  0.0395  0.1759
 3445W        W23725  15.172  14.418  12.033  0.3131  0.1018  0.2799
 3446W        W23726  19.424  15.122   2.917 -0.0037 -0.0456 -0.1618
 3447W        W23727   0.930   1.247   4.571 -0.2576  0.0704 -0.0209
 3448W        W23728   5.246  17.937  12.480 -0.0946  0.1222  0.0381
 3449W        W23729   6.766   5.633   4.598 -0.0259  0.0877 -0.1071
 3450W        W23730  14.583  18.616   3.345 -0.2385  0.2924  0.1408
 3451W        W23731  10.688  11.253   2.568 -0.1479 -0.1507 -0.2905
 3452W        W23732   4.135   5.197   9.969 -0.1571 -0.1205  0.0049
 3453W        W23733   7.762  10.447  11.429 -0.5196  0.1765  0.1435
 3454W        W23734  15.444   4.198   3.968 -0.0890 -0.4037  0.0162
 3455W        W23735   6.181  19.260   3.784 -0.1285  0.4085  0.0304
 3456W        W23736   8.102   8.141  10.988 -0.1288  0.3269 -0.0779
 3457W        W23737   1.890  18.051   3.544 -0.1108 -0.0545  0.3074
 3458W        W23738   7.180   5.167  12.148 -0.0927  0.1251  0.3045
 3459W        W23739  10.729   4.838  10.477  0.0682  0.4376  0.0837
 3460W        W23740  17.320  16.799  13.712  0.4387  0.0238  0.0120
 3461W        W23741   9.262  18.303   0.305 -0.0504 -0.2452  0.1416
 3462W        W23742  12.528  17.973   9.200 -0.3981  0.2790 -0.0312
 3463W        W23743   8.204   5.721   8.723 -0.1521  0.0771  0.1527
 3464W        W23744   9.897  18.246   4.450 -0.1468  0.3549  0.0415
 3465W        W23745  15.350   3.467   3.437  0.3005 -0.1919  0.0938
 3466W        W23746   8.791  14.033  10.698 -0.0414  0.0622 -0.1763
 3467W        W23747  12.905  17.099  13.520  0.1764 -0.0843  0.0924
 3468W        W23748  14.502  16.114   0.352 -0.0416  0.0108  0.1115
 3469W        W23749  18.643   5.858   3.320  0.1615 -0.0313 -0.0441
 3470W        W23750   2.275  15.606   2.414 -0.0760 -0.1553  0.0505
 3471W        W23751  15.685   5.036  11.035  0.0189  0.0720  0.2181
 3472W        W23752  14.728   1.956   1.538  0.5996 -0.1891  0.0456
 3473W        W23753  11.488  13.888  11.197  0.1077 -0.0048 -0.3258
 3474W        W23754   4.472   3.935  13.797 -0.0288 -0.2613  0.0495
 3475W        W23755  18.407   4.774  12.106  0.2787  0.4579 -0.0106
 3476W        W23756   8.814   5.122   0.491  0.2792 -0.2310 -0.1627
 3477W        W23757  12.064   6.176   3.099 -0.0283 -0.0122 -0.1369
 3478W        W23758  12.653  17.905   2.216 -0.0069 -0.1101 -0.0585
 3479W        W23759  12.988  11.549   2.042  0.1281 -0.0214  0.1207
 3480W        W23760  17.745   9.396  12.724  0.2541 -0.1317 -0.2588
 3481W        W23761   6.526  15.277   3.440 -0.0727  0.0585 -0.1120
 3482W        W23762  17.837  17.326   1.417 -0.0194  0.1150 -0.1574
 3483W        W23763   9.665   0.080  10.970 -0.4162  0.1899  0.0797
 3484W        W23764   5.530   4.825  12.581 -0.1460  0.1405  0.4566
 3485W        W23765  15.541   5.648  11.977 -0.0401  0.1783  0.0706
 3486W        W23766  11.864   6.600  12.876 -0.3815  0.1314 -0.3037
 3487W        W23767   8.206  19.369   0.567 -0.0564 -0.1996  0.1705
 3488W        W23768  14.721  14.542   3.159 -0.0419  0.0843 -0.1831
 3489W        W23769   8.614   5.986   1.327 -0.0417 -0.0179  0.0740
 3490W        W23770   0.654  18.487   0.051 -0.1743 -0.3310  0.0010
 3491W        W23771  10.231  17.687  13.853 -0.0161  0.2068  0.0845
 3492W        W23772  17.642  15.993  13.605 -0.2707  0.0266  0.1862
 3493W        W23773  18.500   5.953  11.531  0.0911  0.0320  0.4464
 3494W        W23774  16.845  18.860  13.589  0.0771  0.0021 -0.0730
 3495W        W23775   2.849  11.323  11.505  0.0703  0.1750 -0.0354
 3496W        W23776   8.014   2.244  13.064 -0.1968  0.2964 -0.0849
 3497W        W23777   7.483  16.404   2.312  0.0212  0.1783 -0.0073
 3498W        W23778   5.041   0.460  13.788 -0.0644  0.0290  0.0031
 3499W        W23779  17.172  10.872   0.973 -0.0594 -0.3326 -0.1127
 3500W        W23780   5.958  18.360   3.950  0.2589 -0.2130  0.1340
 3501W        W23781  17.053  12.093  11.055  0.1379 -0.0274  0.3431
 3502W        W23782  10.142  11.521  10.668 -0.0657  0.1235 -0.0846
 3503W        W23783  10.129  11.827   1.129  0.0339  0.0381 -0.2609
 3504W        W23784   3.959  17.106   2.207  0.1973 -0.1289  0.2432
 3505W        W23785   6.382  17.673  10.457 -0.0641  0.0237  0.0773
 3506W        W23786   7.857   9.476  13.219 -0.0518 -0.0162 -0.1525
 3507W        W23787  19.233  11.735  11.268  0.1181 -0.0796  0.2664
 3508W        W23788  14.842   6.814  10.739  0.3052 -0.3242  0.2935
 3509W        W23789  12.727  15.074  11.811  0.1830 -0.3310  0.0477
 3510W        W23790  18.828   3.765  12.229  0.0536  0.1731  0.0465
 3511W        W23791  16.634  14.426   2.965  0.1123 -0.2386  0.1274
 3512W        W23792   4.764  13.965  11.423  0.2028 -0.0539 -0.1437
 3513W        W23793  19.435  16.606  13.837  0.1407 -0.2614 -0.0517
 3514W        W23794  12.181  10.606   4.236 -0.2420 -0.3086  0.0676
 3515W        W23795   3.963  12.136  13.608  0.1888 -0.1806 -0.2800
 3516W        W23796  12.085  10.105  10.887  0.0805 -0.1953  0.0672
 3517W        W23797   1.916  14.372   2.282 -0.1191  0.1927  0.2613
 3518W        W23798   4.969  19.065  13.181  0.0069  0.1658 -0.2441
 3519W        W23799  10.979  10.646  12.997 -0.0116  0.0159  0.0496
 3520W        W23800  15.443  15.323  13.588 -0.1252 -0.0725  0.0311
 3521W        W23801   2.645   5.018  11.992  0.1497 -0.2001  0.1016
 3522W        W23802  10.117   3.432   1.105 -0.3021  0.2539  0.0470
 3523W        W23803   8.161  12.173   1.634 -0.0072 -0.0547  0.0670
 3524W        W23804  11.680   3.536  13.005 -0.0325  0.0680 -0.1264
 3525W        W23805   9.584  14.162   1.987  0.0068  0.1064 -0.0407
 3526W        W23806   9.991  10.599  12.680  0.1580 -0.1396  0.0210
 3527W        W23807  15.003   4.324   4.214 -0.0001 -0.2985  0.2045
 3528W        W23808   5.555  16.810   1.262  0.2656 -0.1426  0.0357
 3529W        W23809   7.899   0.906   9.548 -0.1541 -0.0757  0.2629
 3530W        W23810  16.662  12.137   1.311  0.1828 -0.0308  0.0714
 3531W        W23811  17.761   8.989  10.822  0.0468 -0.0646 -0.0042
 3532W        W23812   7.761   5.865   3.628  0.0653 -0.0721  0.0755
 3533W        W23813  11.631  14.576   2.024 -0.0546  0.1193  0.1214
 3534W        W23814   7.785  13.362   9.925  0.1962  0.1734  0.0740
 3535W        W23815   0.205   5.480  11.438  0.0919  0.0176  0.0702
 3536W        W23816   4.766   7.083  11.387 -0.0642  0.1819 -0.2899
 3537W        W23817   0.846  17.109   1.272  0.1105  0.3023  0.1896
 3538W        W23818   9.083   2.914  10.657  0.0209  0.2576  0.2761
 3539W        W23819  18.176   8.535   1.471 -0.0657  0.0455  0.1612
 3540W        W23820  15.791   0.722   3.495 -0.2352  0.0975  0.1102
 3541W        W23821  13.191   5.715  12.269  0.1662  0.0027  0.2373
 3542W        W23822   0.386   1.715   2.705  0.0105 -0.1852  0.0605
 3543W        W23823  11.296  11.074  12.348  0.1708 -0.2116  0.0141
 3544W        W23824   0.728  19.190   1.266  0.0733 -0.1857  0.0124
 3545W        W23825  11.596  10.560  13.726 -0.2221 -0.4563 -0.2458
 3546W        W23826   4.203   4.385   1.659  0.2068 -0.0720  0.0654
 3547W        W23827  18.290  18.783  10.216 -0.1426 -0.0135 -0.2033
 3548W        W23828  15.341   8.521   0.250  0.0290 -0.2953 -0.2300
 3549W        W23829  19.227   9.377  11.398  0.1288 -0.1795  0.0697
 3550W        W23830  10.065   3.305  12.348 -0.2452  0.1155 -0.1708
 3551W        W23831   5.315  16.752   9.579 -0.0340 -0.0609  0.3986
 3552W        W23832   3.794  19.312   2.460  0.1219 -0.1881  0.1452
 3553W        W23833  16.282  14.692  13.856 -0.3741  0.1398  0.0465
 3554W        W23834   6.849  14.185  13.575 -0.0754 -0.1161 -0.0526
 3555W        W23835  12.707   6.916  10.552  0.0702 -0.1448 -0.2613
 3556W        W23836   0.221  16.349  10.125 -0.1332 -0.2887 -0.1676
 3557W        W23837  13.985  11.865   8.834  0.1841 -0.1134 -0.1716
 3558W        W23838   3.851  14.218   0.356  0.2001 -0.1853 -0.1199
 3559W        W23839  11.534   8.049   3.227  0.0724  0.2189 -0.1140
 3560W        W23840  18.030  19.761   0.295 -0.2382 -0.1459 -0.1530
 3561W        W23841   0.437  12.049   0.264 -0.2554  0.2551 -0.1734
 3562W        W23842  13.235   1.696  13.033  0.0135 -0.0078  0.1185
 3563W        W23843  18.409   6.392   2.656 -0.0085 -0.3415 -0.1275
 3564W        W23844  10.861  13.254   1.753  0.0335  0.3141  0.2898
 3565W        W23845   5.809  18.571   9.565  0.1338  0.1950  0.2813
 3566W        W23846   0.354  19.683   3.215  0.2243  0.2439 -0.0019
 3567W        W23847   6.837  15.935  12.524  0.2113 -0.1427  0.3339
 3568W        W23848   2.110  17.295   9.515 -0.0542  0.4384  0.1473
 3569W        W23849  13.778  10.234  11.617 -0.0718  0.1677 -0.0059
 3570W        W23850  17.773  10.547   1.711  0.2290 -0.0511  0.1957
 3571W        W23851   2.583  12.188  12.454  0.1613 -0.2664 -0.0131
 3572W        W23852   5.542  15.064  11.712 -0.0700  0.0996 -0.3926
 3573W        W23853   5.192  10.857  10.154 -0.0086 -0.0545 -0.2951
 3574W        W23854   1.152   2.700   1.049 -0.0800  0.1733  0.2754
 3575W        W23855  19.562  12.141  11.432 -0.3233 -0.2493  0.1689
 3576W        W23856  11.200   0.360  13.125 -0.4937  0.1761  0.0789
 3577W        W23857   1.476   3.651  10.852  0.3085  0.2035  0.1916
 3578W        W23858   6.216  19.169  10.295 -0.1923  0.0461 -0.1838
 3579W        W23859   0.610  12.592   0.431 -0.0754  0.0653 -0.2319
 3580W        W23860   8.580   8.952  11.145 -0.1555 -0.2222 -0.0301
 3581W        W23861  19.948  19.027   3.993  0.1493  0.0827 -0.1044
 3582W        W23862  18.491   7.015   0.445  0.1767 -0.0021  0.0130
 3583W        W23863   1.725  13.974  10.862 -0.1134  0.1518 -0.0364
 3584W        W23864   6.524  16.701  13.818 -0.0327  0.0705 -0.0055
 3585W        W23865  15.868  17.528  12.561  0.0534  0.0026  0.2338
 3586W        W23866   8.141   4.366  13.823 -0.0578  0.0963 -0.3446
 3587W        W23867   3.856   0.109   0.114  0.1602 -0.1077  0.0321
 3588W        W23868   0.920   8.014   3.646  0.0528 -0.0618  0.3026
 3589W        W23869   8.641  11.189  10.941  0.1467 -0.4118 -0.3117
 3590W        W23870  14.901   5.084   3.065 -0.0011  0.3209  0.0706
 3591W        W23871   1.508   3.646  11.717 -0.1182 -0.0121 -0.0531
 3592W        W23872  10.045   7.301  12.940  0.0223  0.0701 -0.2298
 3593W        W23873   9.483  12.705   4.167  0.0691 -0.2153 -0.0674
 3594W        W23874  17.003  10.545   1.889 -0.0170 -0.0265 -0.1078
 3595W        W23875   1.874  18.470   1.726  0.0862 -0.0554 -0.1603
 3596W        W23876   7.976  12.281   1.150  0.1704 -0.0026  0.0902
 3597W        W23877  16.952   3.435  12.917  0.2085  0.5725 -0.1798
 3598W        W23878   1.078  18.473   3.892  0.2700  0.0750  0.0407
 3599W        W23879  13.514  14.431   3.135 -0.0898 -0.0768 -0.0907
 3600W        W23880  11.893   8.026   2.017 -0.5019 -0.1375  0.1303
 3601W        W23881  10.706  18.697  10.241 -0.1584 -0.1905 -0.1678
 3602W        W23882  18.664  18.724   1.563  0.1499 -0.1495 -0.1554
 3603W        W23883   6.192  17.379   0.721  0.2150  0.5823  0.0431
 3604W        W23884   1.486  13.546   1.076  0.2124  0.0401 -0.0732
 3605W        W23885  11.622  10.214   2.693 -0.0606 -0.4348  0.0039
 3606W        W23886  18.631  12.541   4.151  0.1358 -0.1465  0.1518
 3607W        W23887   2.069   9.003  12.727 -0.1994 -0.3850 -0.1077
 3608W        W23888  16.446  19.612  11.044 -0.0129 -0.3694  0.1564
 3609W        W23889  12.758   5.042  10.501 -0.1268 -0.2526  0.0434
 3610W        W23890   8.464  12.524   1.799 -0.2254  0.0903  0.0593
 3611W        W23891  18.790  12.287  13.216 -0.0908  0.1062 -0.3109
 3612W        W23892   3.441  12.485   4.981 -0.1930  0.2561  0.0566
 3613W        W23893   8.297   3.963   2.200  0.0900  0.0160  0.0551
 3614W        W23894  14.204   4.486  13.084  0.2899  0.0018 -0.1505
 3615W        W23895  13.696   7.461   9.598 -0.0056 -0.3783  0.4013
 3616W        W23896  15.864  18.092   0.365 -0.3784 -0.1317  0.0644
 3617W        W23897   4.134  15.200  10.500 -0.2828 -0.0684  0.1072
 3618W        W23898  17.654  12.608   4.411 -0.0548  0.0676 -0.2392
 3619W        W23899   0.016  14.778   8.696  0.4417 -0.0884  0.0633
 3620W        W23900   7.814   9.099  13.747 -0.1225  0.0927 -0.2445
 3621W        W23901   4.325   1.382  10.573  0.0101 -0.1189 -0.3468
 3622W        W23902   1.462  18.318   9.250  0.1722  0.0720  0.4230
 3623W        W23903  16.284  19.849   3.840  0.0121 -0.2160  0.1606
 3624W        W23904  11.069   3.798   1.954  0.0785 -0.3535  0.2419
 3625W        W23905  14.417   2.041  12.443  0.0450 -0.3055 -0.0329
 3626W        W23906  12.924  10.414   0.788 -0.1766 -0.1262 -0.1501
 3627W        W23907  13.719  11.927  10.766 -0.1368 -0.1432 -0.1658
 3628W        W23908   3.312   7.946   0.836  0.0423  0.1001  0.1900
 3629W        W23909   5.483  14.683   2.875  0.0010  0.3018  0.0638
 3630W        W23910  11.658   0.034   0.261  0.2704  0.2308  0.1911
 3631W        W23911   7.118  15.649   1.805 -0.0803 -0.3539 -0.3730
 3632W        W23912  10.873  11.918  12.590  0.2760  0.0972 -0.2010
 3633W        W23913  17.043   0.825   2.158 -0.0126 -0.4094 -0.0137
 3634W        W23914   3.813  14.950   3.502 -0.0767  0.1089 -0.2326
 3635W        W23915  13.157   0.587  10.545 -0.0409 -0.1014  0.2848
 3636W        W23916  19.384  14.047   2.345  0.1142  0.4541 -0.0973
 3637W        W23917  10.533  10.821   3.462  0.2220  0.1140  0.1157
 3638W        W23918   4.713  18.790  12.754  0.0043  0.1888  0.0950
 3639W        W23919   3.429  16.264   3.337  0.2952  0.0196  0.0153
 3640W        W23920   1.153  15.652  12.329 -0.1195 -0.3715  0.4159
 3641W        W23921   8.264   3.643   0.893 -0.0636 -0.1740 -0.1265
 3642W        W23922   5.259   6.846   2.223 -0.1572  0.1145 -0.1573
 3643W        W23923  16.611  18.271  10.527  0.1425 -0.1841 -0.2401
 3644W        W23924  11.409  17.987   3.462 -0.0167  0.0569  0.0135
 3645W        W23925  14.046  13.699  10.593 -0.0067  0.0957  0.0009
 3646W        W23926  16.692   7.618   3.156 -0.0174  0.1779  0.0855
 3647W        W23927   5.452   8.781   4.201  0.0424 -0.0934 -0.1857
 3648W        W23928  13.129  19.283  11.169  0.3742  0.0062 -0.0490
 3649W        W23929  12.757  13.404  12.908  0.1661 -0.2354  0.2210
 3650W        W23930   5.846  10.371   1.118 -0.1239 -0.1070 -0.2608
 3651W        W23931   3.410   6.417  12.359 -0.0071  0.1048  0.0380
 3652W        W23932   4.984  18.684   4.697  0.1829 -0.0276 -0.2457
 3653W        W23933   7.074  10.693   3.543  0.2350  0.2383  0.0857
 3654W        W23934  14.499   3.987   9.208 -0.4040 -0.0809 -0.0282
 3655W        W23935   2.688   8.194  11.437  0.1994 -0.0950 -0.0639
 3656W        W23936   4.476   4.495  13.129  0.0093  0.3589 -0.0182
 3657W        W23937  17.069   0.486   0.738  0.0634 -0.0624 -0.0088
 3658W        W23938  17.606  11.063  13.369 -0.1717 -0.1752  0.1324
 3659W        W23939  19.839  19.252  10.486  0.1917 -0.0034 -0.1524
 3660W        W23940   0.448   5.042   2.946 -0.2320 -0.2726  0.3204
 3661W        W23941  15.985  12.602   0.050  0.0566 -0.1173  0.1422
 3662W        W23942   9.118  18.460   9.343  0.2645 -0.0767  0.3047
 3663W        W23943  12.950  15.265  10.099 -0.1081 -0.0845  0.3289
 3664W        W23944   8.880  14.387   0.038  0.3062 -0.3824  0.2531
 3665W        W23945   6.849   0.052   1.202  0.1584 -0.1348  0.1076
 3666W        W23946  14.963   5.596   2.986 -0.1868  0.1718  0.0063
 3667W        W23947  16.425   0.717   9.907  0.0746  0.1906  0.0456
 3668W        W23948  19.194   5.293   0.766 -0.0090  0.3953  0.0691
 3669W        W23949   6.708  13.699   3.785  0.0626 -0.0180 -0.1172
 3670W        W23950   8.732   3.910   0.776  0.0230  0.0826 -0.0717
 3671W        W23951  12.013   3.274  12.101 -0.2725 -0.0883 -0.1858
 3672W        W23952  18.625  13.232  11.112  0.0620 -0.0050 -0.0915
 3673W        W23953  13.236  14.694  11.254 -0.2728  0.2904 -0.2956
 3674W        W23954  13.939   8.464   0.094  0.0184  0.0188 -0.1117
 3675W        W23955  14.685  16.176  11.803 -0.2591  0.0448 -0.0120
 3676W        W23956  11.524  13.723   0.930 -0.1095 -0.1454  0.0697
 3677W        W23957  15.729  17.995   1.727 -0.1193 -0.3147 -0.0245
 3678W        W23958   5.413   8.045   1.130 -0.3048 -0.1667 -0.0572
 3679W        W23959   5.317  12.277   3.618 -0.2237 -0.0269  0.2752
 3680W        W23960  11.937  13.289  11.595  0.2035 -0.3103 -0.1202
 3681W        W23961  12.203   4.755   2.881 -0.0883  0.1693 -0.2270
 3682W        W23962  19.805   9.157  11.233  0.2627  0.1585 -0.1802
 3683W        W23963  10.888   2.967   4.568  0.4270  0.1353  0.1407
 3684W        W23964   1.733   9.604   0.811  0.0983  0.0949  0.1882
 3685W        W23965   2.517   8.842  11.415 -0.2525 -0.1617  0.1330
 3686W        W23966  16.395  12.565   9.780 -0.0611  0.1061  0.1664
 3687W        W23967  12.384  10.200  13.393 -0.1174 -0.2114  0.0083
 3688W        W23968  19.348  16.528  10.078  0.3460  0.0484  0.0180
 3689W        W23969   0.169   6.588   1.335 -0.0246 -0.0303 -0.1704
 3690W        W23970   0.628  18.628   2.672  0.1424  0.1574 -0.1284
 3691W        W23971  18.809  15.922  11.881 -0.0703 -0.2341 -0.0141
 3692W        W23972   4.701  15.365  12.291 -0.0277 -0.0437  0.0503
 3693W        W23973   8.626   6.069  10.143 -0.2622  0.0980 -0.0421
 3694W        W23974  13.805   7.146   2.422  0.1347  0.4843  0.0880
 3695W        W23975  19.224   9.919   3.105 -0.0329 -0.1262 -0.2742
 3696W        W23976  11.756  10.017  10.534 -0.0399 -0.2720  0.2570
 3697W        W23977  10.692  18.181  10.234  0.1629  0.0154 -0.1519
 3698W        W23978   9.595  11.927   1.888  0.0288 -0.0983 -0.0080
 3699W        W23979   5.277  13.989  10.094  0.0662  0.3996  0.1283
 3700W        W23980   1.578   9.520  10.508  0.1035  0.0614 -0.3188
 3701W        W23981  15.602   9.197   1.517  0.1548 -0.1739 -0.1360
 3702W        W23982   6.019  19.030   0.780  0.2998 -0.1150  0.2267
 3703W        W23983   2.336  17.883  11.541 -0.1699  0.2421 -0.0228
 3704W        W23984   2.602   7.990  10.105  0.0634  0.1288 -0.1959
 3705W        W23985  17.087   7.344  10.086  0.3151  0.3333 -0.0928
 3706W        W23986   1.902   7.020   2.340  0.0489 -0.0911 -0.4480
 3707W        W23987   7.198  18.939   3.420 -0.4595  0.1539 -0.1786
 3708W        W23988   4.176   5.169   3.296 -0.1352  0.0719  0.2323
 3709W        W23989   4.076   9.127   2.566 -0.0219  0.2602 -0.1971
 3710W        W23990  17.431  14.611   3.246  0.2755 -0.2198  0.1595
 3711W        W23991  17.658   2.073   2.746 -0.0917  0.2103  0.2775
 3712W        W23992   6.682  11.159   9.959 -0.2601 -0.0829  0.3727
 3713W        W23993  13.482  13.547   3.391  0.0862 -0.2217 -0.0053
 3714W        W23994   8.775  13.986  11.260  0.1538  0.5742 -0.0442
 3715W        W23995  11.461  10.715  11.399 -0.0684  0.1088  0.0909
 3716W        W23996   3.594  13.046  12.427  0.0958 -0.1134 -0.2192
 3717W        W23997  17.378   2.744  10.992 -0.1076  0.1012 -0.1148
 3718W        W23998  11.924   9.958   1.574 -0.3720  0.2195 -0.0350
 3719W        W23999   9.061   9.896   3.621  0.1243  0.1708 -0.0563
 3720W        W24000  18.705  15.626   2.612 -0.2100 -0.2883 -0.0789
 3721W        W24001   7.103   4.324   1.421 -0.1881 -0.0196  0.3244
 3722W        W24002   8.094   2.200   3.506 -0.1959  0.0136 -0.2115
 3723W        W24003   6.800  18.257  13.768  0.0677 -0.0554 -0.1037
 3724W        W24004   4.264  11.431  12.865  0.0296 -0.0461 -0.0371
 3725W        W24005  16.248   0.974   2.601 -0.1003  0.0721  0.1068
 3726W        W24006   1.455  11.648   1.985 -0.0839 -0.0592 -0.0828
 3727W        W24007  15.825   4.339  12.981  0.1076 -0.3046  0.3333
 3728W        W24008   9.184   5.226   2.942  0.0499 -0.5157 -0.1244
 3729W        W24009   4.256   7.151  12.789  0.0146  0.0099 -0.0735
 3730W        W24010  16.434  19.110   2.766  0.0674  0.0874  0.2474
 3731W        W24011  14.593   0.572  12.975 -0.0256  0.1156 -0.4171
 3732W        W24012   2.032  11.683   2.230 -0.2010 -0.2255 -0.0492
 3733W        W24013   9.893  12.832   0.429 -0.0802  0.0078  0.2229
 3734W        W24014  16.583  19.069   2.233  0.1094  0.2241 -0.0957
 3735W        W24015   7.125   7.838   0.701  0.1632 -0.1926 -0.0225
 3736W        W24016   3.988  18.114  13.544  0.1431 -0.2205  0.2441
 3737W        W24017  10.505   7.665  13.127  0.0266  0.1615 -0.1616
 3738W        W24018   3.656  18.064  10.949  0.1592 -0.3244 -0.4066
 3739W        W24019   4.480   0.120  13.011 -0.0366  0.2472 -0.1522
 3740W        W24020  19.650   7.724  10.123  0.0880  0.0303  0.1518
 3741W        W24021   9.890  13.292   0.859  0.1056  0.1299  0.1360
 3742W        W24022  17.625  10.216  11.424 -0.2861  0.1552 -0.0897
 3743W        W24023  12.752   9.770   3.084 -0.1227  0.0276  0.1944
 3744W        W24024  16.344   7.582  11.949 -0.1206  0.0362 -0.0123
 3745W        W24025  18.659  14.899   3.650  0.0768 -0.2161 -0.1107
 3746W        W24026   8.014  10.559   3.327 -0.0427 -0.0259  0.3430
 3747W        W24027  14.928  17.462   2.967 -0.0007 -0.1296  0.2570
 3748W        W24028   9.388  15.572   4.081 -0.0961 -0.5105  0.0177
 3749W        W24029   8.542  17.352   0.867 -0.0583 -0.3155 -0.0275
 3750W        W24030   2.021   8.107   4.168  0.0377 -0.1891 -0.0487
 3751W        W24031  16.054  13.923   0.507 -0.1013  0.3383  0.0123
 3752W        W24032   8.217   3.643  11.362 -0.0921  0.1825  0.1218
 3753W        W24033  11.463  14.930  11.324  0.1620  0.3492  0.0851
 3754W        W24034   2.830   3.869   4.080  0.0950 -0.2214 -0.1793
 3755W        W24035  16.139  14.382   3.164 -0.0128 -0.2687 -0.0157
 3756W        W24036  11.505   3.193  11.953 -0.0380  0.1563  0.0159
 3757W        W24037  10.156  11.936   2.651 -0.1136  0.1368 -0.2145
 3758W        W24038  10.498   4.907  12.683 -0.1109 -0.0940 -0.0079
 3759W        W24039   7.600   5.449  12.132 -0.3618 -0.1958 -0.1674
 3760W        W24040  11.793  13.763  10.370  0.0426  0.1254 -0.0560
 3761W        W24041   8.908   2.488   0.356 -0.0056  0.0920  0.0553
 3762W        W24042   9.340   3.066  10.256 -0.0118  0.0343 -0.0881
 3763W        W24043   5.557  16.703   4.228  0.0034 -0.1280 -0.1686
 3764W        W24044   0.589   6.281   0.497  0.3497 -0.0034  0.4375
 3765W        W24045  12.846  19.462  10.149 -0.1641  0.5674 -0.2158
 3766W        W24046   3.054   0.464   3.300 -0.0634  0.2013  0.0975
 3767W        W24047  18.898   4.999  10.064 -0.1302  0.3374  0.1588
 3768W        W24048  15.885  12.004   3.509  0.3583  0.3486  0.2740
 3769W        W24049  15.737   4.223   1.337 -0.0743 -0.1039  0.2514
 3770W        W24050   3.362   4.205   2.064  0.0248  0.0324 -0.0661
 3771W        W24051  15.098  16.625  12.810  0.1982 -0.2189  0.2494
 3772W        W24052  15.879   5.242   2.789 -0.3829 -0.2825 -0.1716
 3773W        W24053  18.515   6.560  11.108 -0.1264  0.4221  0.2166
 3774W        W24054  11.356   2.363   3.086  0.1574  0.2000  0.1902
 3775W        W24055  10.527  19.558   3.488 -0.1575  0.3258 -0.1961
 3776W        W24056   7.348   6.813   0.971 -0.1814 -0.0250 -0.1295
 3777W        W24057  19.643  12.282  13.755 -0.0585 -0.2158  0.0462
 3778W        W24058   3.533  14.425  13.305  0.2196  0.1564  0.0768
 3779W        W24059  13.834  17.223  11.822  0.0182  0.0243  0.0688
 3780W        W24060  16.852   3.428  11.880  0.0517  0.2331 -0.1039
 3781W        W24061   7.025  13.432   2.163 -0.0804  0.2330 -0.0467
 3782W        W24062   0.209   7.809   2.758  0.2780 -0.3387  0.0769
 3783W        W24063   6.509   5.712  13.069 -0.1869 -0.1076  0.0090
 3784W        W24064   4.617  12.751   2.830  0.0880 -0.0886  0.0159
 3785W        W24065   4.198  16.406  13.379 -0.1714 -0.0913  0.1042
 3786W        W24066  16.971   2.615  11.293 -0.1120 -0.3131  0.0687
 3787W        W24067  19.386  11.448   9.617 -0.1313 -0.0236 -0.1925
 3788W        W24068   5.726   0.649  11.965 -0.1585 -0.1311 -0.0934
 3789W        W24069  15.482   8.535  11.531 -0.3023  0.1073 -0.1659
 3790W        W24070  15.910  19.807   2.287 -0.1141 -0.1260  0.1218
 3791W        W24071  10.121  14.664   3.261  0.1640 -0.2310  0.3316
 3792W        W24072  14.883  12.396   0.655 -0.1597  0.0480  0.0979
 3793W        W24073  18.054  17.919   1.421 -0.2220 -0.4260 -0.5204
 3794W        W24074   0.835   4.499   3.975 -0.3723 -0.2730  0.0092
 3795W        W24075   7.710  15.091  12.226  0.0426  0.0207  0.3334
 3796W        W24076   5.202   9.750   3.174 -0.0575 -0.3853  0.1189
 3797W        W24077   8.889   7.111  10.984 -0.1042 -0.0419  0.0931
 3798W        W24078  14.733   4.166   3.340  0.2824  0.2031 -0.3074
 3799W        W24079   3.433   1.767  12.468  0.1391  0.2914 -0.4325
 3800W        W24080   2.108  18.925  13.679 -0.2480  0.2723  0.3858
 3801W        W24081  11.796   6.601   2.732  0.1803  0.3947  0.4703
 3802W        W24082   5.557  12.700   3.302 -0.3922  0.2917 -0.0306
 3803W        W24083  15.735  18.415  12.945 -0.0815 -0.0707  0.0319
 3804W        W24084  12.282   8.777   3.139 -0.4376 -0.0168 -0.0186
 3805W        W24085   5.935  10.024   3.717 -0.1822  0.1696  0.1181
 3806W        W24086  10.781   4.403   3.098  0.1659 -0.0568  0.1774
 3807W        W24087  13.483   5.877   0.779 -0.0361 -0.0437 -0.0715
 3808W        W24088   8.770   8.719   0.498  0.4528 -0.1901 -0.1807
 3809W        W24089  11.457  17.951   1.228 -0.0841 -0.0707  0.2082
 3810W        W24090  13.705   8.988   1.223  0.1118  0.0515 -0.0686
 3811W        W24091  17.867   8.744   9.558 -0.1644  0.1060  0.1160
 3812W        W24092  10.563   5.760  13.406 -0.2312 -0.1220 -0.2194
 3813W        W24093   1.625   3.301   2.085  0.4179  0.0759 -0.2526
 3814W        W24094   3.056  10.661  12.015  0.2115 -0.0837  0.2288
 3815W        W24095  10.890   6.924  12.506  0.1373 -0.2163  0.0132
 3816W        W24096  10.574  14.744  11.590 -0.2102  0.0694  0.0521
 3817W        W24097  12.407   9.426  12.650  0.2736 -0.2078 -0.2732
 3818W        W24098  17.178  10.003  11.556 -0.3320 -0.1875  0.3262
 3819W        W24099  12.148   4.837  12.311 -0.1072  0.0814  0.0087
 3820W        W24100  12.791  18.400   3.048 -0.1407  0.0001 -0.1042
 3821W        W24101  14.223  14.042   9.328  0.2729 -0.2844  0.1616
 3822W        W24102   2.428  10.438   0.074 -0.0327 -0.0123 -0.1380
 3823W        W24103  18.995  14.809  11.851  0.1440  0.1695 -0.0379
 3824W        W24104  19.806  13.043  11.174 -0.1359 -0.1980 -0.2082
 3825W        W24105   3.281  12.566   4.367 -0.1010 -0.0200  0.3849
 3826W        W24106   2.701   9.130  10.657 -0.2720 -0.1014 -0.1173
 3827W        W24107  17.630  13.664   0.169 -0.1352  0.1021 -0.4604
 3828W        W24108   4.526   3.103  12.412 -0.2144 -0.2200  0.1876
 3829W        W24109  14.381   2.688   1.991  0.0912 -0.2778 -0.1582
 3830W        W24110  14.066   4.598  10.669  0.0186  0.0993  0.1314
 3831W        W24111   1.584   0.565   9.434  0.1046 -0.0003 -0.0313
 3832W        W24112   3.366   0.176   1.105  0.2221 -0.1736 -0.0513
 3833W        W24113   2.945  12.376  13.720  0.1026  0.0510 -0.1996
 3834W        W24114   3.957   8.862  11.721 -0.1725  0.0558 -0.0050
 3835W        W24115  12.699  13.055   2.076  0.1086 -0.2690 -0.2270
 3836W        W24116  13.505  11.239   0.607  0.0848 -0.0242 -0.2236
 3837W        W24117   4.796  16.462   2.613 -0.0607  0.0996  0.0532
 3838W        W24118  12.434  10.424   1.120  0.0945 -0.2109 -0.3148
 3839W        W24119  18.528  16.054  12.226 -0.0294  0.0319  0.3252
 3840W        W24120  10.149  14.728  11.892 -0.2071  0.1805 -0.2685
 3841W        W24121   3.638  13.088  13.789  0.0721 -0.3990 -0.2007
 3842W        W24122   3.861   3.105   2.080 -0.0222  0.1925 -0.0376
 3843W        W24123  16.567  10.575   2.657 -0.3378 -0.0613 -0.0863
 3844W        W24124  12.028   3.936   0.541  0.2344  0.2882  0.1023
 3845W        W24125   5.226   5.777   0.576  0.4197  0.4648 -0.1726
 3846W        W24126  16.857  19.590   0.313 -0.1440  0.0184  0.0564
 3847W        W24127  10.825   7.329  13.418 -0.1922  0.2185  0.2778
 3848W        W24128  15.168   4.630   1.865 -0.1437 -0.3109 -0.0307
 3849W        W24129   5.712  12.750   0.844 -0.1730  0.4656  0.0299
 3850W        W24130   9.017  17.621  12.400 -0.1671  0.1582  0.3436
 3851W        W24131   4.367   7.781  12.174  0.0820  0.1846 -0.0160
 3852W        W24132   5.038  14.124   3.569  0.2203 -0.5521  0.0832
 3853W        W24133  12.110   4.385   3.194 -0.0326 -0.4373  0.4443
 3854W        W24134   1.015  13.126   0.176 -0.2305 -0.1552  0.0919
 3855W        W24135  11.553  16.608   1.022  0.2372 -0.0972  0.1074
 3856W        W24136   4.802  13.919  12.870 -0.2786  0.1520 -0.1702
 3857W        W24137   6.092  10.241   0.693 -0.2641  0.2090 -0.0009
 3858W        W24138   8.645   4.710   0.304 -0.0433 -0.0423 -0.1047
 3859W        W24139  18.005   3.005   0.421  0.0751 -0.1027  0.0330
 3860W        W24140  14.701   1.802   3.762  0.0362 -0.0797  0.0215
 3861W        W24141  14.970   5.590  13.122  0.1354  0.3952 -0.2616
 3862W        W24142   7.458  14.212  12.678  0.1353  0.1010 -0.0177
 3863W        W24143   0.212   6.712  12.359  0.0338  0.1031  0.1356
 3864W        W24144   7.767  13.260  13.502  0.2539 -0.0032  0.0773
 3865W        W24145  18.206  13.141   9.718 -0.1441 -0.1670 -0.0739
 3866W        W24146  12.778   3.243  13.390 -0.4916 -0.1931  0.0174
 3867W        W24147   0.093   4.155   9.003 -0.1817  0.0437  0.1809
 3868W        W24148   1.058  11.336  12.226  0.1070 -0.0543 -0.3933
 3869W        W24149   9.376  16.907  10.549 -0.1284  0.0980 -0.0775
 3870W        W24150  16.795   0.009  11.220 -0.2007 -0.1414 -0.2906
 3871W        W24151  19.288   5.885  13.018 -0.2428  0.2133  0.1224
 3872W        W24152  18.088   9.319   0.392 -0.0060  0.0244 -0.6544
 3873W        W24153  19.890  16.448  13.839 -0.0308  0.0750  0.0091
 3874W        W24154  15.491   5.204  13.171 -0.1764  0.0780 -0.0685
 3875W        W24155  14.065   7.148  10.343 -0.0445 -0.0625  0.1468
 3876W        W24156  10.613  16.818  11.232  0.1668  0.0897 -0.2643
 3877W        W24157  11.394   9.349   3.021 -0.2623  0.1503 -0.2787
 3878W        W24158  12.033   1.961   2.088  0.0096  0.0404  0.0887
 3879W        W24159  12.787   1.163  11.154  0.0521 -0.1441 -0.0004
 3880W        W24160   6.323  18.666   4.178  0.1581 -0.4117 -0.2366
 3881W        W24161  17.888  14.732   0.253 -0.1528 -0.2090  0.0268
 3882W        W24162  14.321   5.377  10.965 -0.0787 -0.0925  0.1529
 3883W        W24163  15.961  19.664   1.779  0.1662 -0.1234 -0.1166
 3884W        W24164   5.503  17.954   4.653 -0.0947  0.2330 -0.1070
 3885W        W24165   0.331  17.148   1.320  0.0651 -0.1269 -0.0271
 3886W        W24166   0.485   5.032  12.180  0.1477  0.1097  0.0699
 3887W        W24167  18.602   4.335  12.210 -0.3694  0.1050  0.0054
 3888W        W24168  19.692  18.689  11.144  0.0709 -0.0006  0.1242
 3889W        W24169   5.229   9.084   0.625  0.1828  0.3419  0.1349
 3890W        W24170   7.673   8.805  11.396 -0.0114  0.0919 -0.0536
 3891W        W24171   0.172   8.091   0.292  0.2815  0.1661 -0.1450
 3892W        W24172   2.925  10.831  11.554  0.1718  0.2717  0.0268
 3893W        W24173   0.836   7.575  11.318 -0.1025  0.1144  0.2119
 3894W        W24174   3.938  10.185   0.804  0.0118  0.1717 -0.0670
 3895W        W24175   1.304  14.205   2.455 -0.0761 -0.0955 -0.1171
 3896W        W24176  11.307  10.282   3.112  0.1544 -0.2216 -0.2202
 3897W        W24177   5.129   7.021  13.550  0.0460 -0.1397 -0.0931
 3898W        W24178  11.840  16.306   0.751 -0.0672  0.2627 -0.0903
 3899W        W24179  19.933  16.709  11.461 -0.0801  0.3507 -0.2464
 3900W        W24180   4.688  15.001  13.249  0.2919  0.0400 -0.1730
 3901W        W24181  17.052  19.341   2.236 -0.0516 -0.2036  0.1128
 3902W        W24182  11.908   5.412  11.530  0.0472  0.0943 -0.1554
 3903W        W24183   9.958  18.065   2.465  0.1299  0.0369  0.1121
 3904W        W24184  10.162  17.619   1.548 -0.1463  0.2922  0.0529
 3905W        W24185  19.285   5.351   2.579  0.2586 -0.1985  0.0033
 3906W        W24186  11.087   4.731  11.373 -0.1106  0.0968 -0.1900
 3907W        W24187   6.008   8.793  11.908  0.1353  0.0469 -0.0438
 3908W        W24188   8.176   5.339  13.600  0.2706 -0.0451 -0.0286
 3909W        W24189   9.747  15.834  12.008 -0.1854  0.2385 -0.2208
 3910W        W24190   2.859  11.074   2.454 -0.2900  0.2488 -0.2498
 3911W        W24191   7.695  14.413  13.859  0.0087 -0.0795  0.0128
 3912W        W24192  18.767  14.993  12.951 -0.1791  0.0459 -0.3573
 3913W        W24193   9.480  18.428   8.938  0.2409  0.0349  0.2673
 3914W        W24194  10.437   7.269   3.144  0.2525 -0.1737  0.3181
 3915W        W24195  10.784  18.928  12.594 -0.0603 -0.1096  0.2575
 3916W        W24196  14.909  11.856   2.027  0.0699 -0.1670  0.0397
 3917W        W24197   9.477   0.289   2.327  0.2418 -0.0830 -0.4546
 3918W        W24198  12.537  17.019   0.030  0.3909 -0.0216  0.0919
 3919W        W24199   9.009  17.532  11.907 -0.0544 -0.2521 -0.0933
 3920W        W24200  13.902  10.796   0.618  0.1144 -0.0472  0.1512
 3921W        W24201  11.366   4.134   3.972  0.4230 -0.0686 -0.0464
 3922W        W24202  10.322  18.041   2.753 -0.0320 -0.3389 -0.3840
 3923W        W24203   8.499   0.342  13.363 -0.1516 -0.1365 -0.2174
 3924W        W24204  18.892  15.264   0.230 -0.0599  0.2413 -0.0462
 3925W        W24205  18.214  16.392   1.997  0.2770  0.1891 -0.2437
 3926W        W24206  19.352  14.861   3.925 -0.0346  0.3393  0.0591
 3927W        W24207   3.839  14.303   4.512 -0.0873  0.0645 -0.1173
 3928W        W24208   7.201  17.498   3.265  0.0883 -0.0606 -0.0626
 3929W        W24209  16.549  12.798  10.197 -0.1169 -0.1161  0.1759
 3930W        W24210   0.987   1.934   0.177 -0.0609  0.3036 -0.0134
 3931W        W24211   6.434   2.272  13.101  0.0433  0.1003  0.0209
 3932W        W24212   9.770   4.384  13.007 -0.0265  0.1867  0.2130
 3933W        W24213  10.382   1.769  12.476  0.0411  0.0020 -0.0668
 3934W        W24214  10.848  11.372  12.496  0.1935  0.1621 -0.0925
 3935W        W24215  11.591   5.066   1.118  0.1299 -0.1091  0.0754
 3936W        W24216   1.205  15.067   8.553  0.0211  0.0315  0.0683
 3937W        W24217  19.146   3.070   3.435 -0.0652 -0.0565 -0.2728
 3938W        W24218   9.789  16.040  11.480 -0.1165  0.2350 -0.3553
 3939W        W24219   8.097   7.681   1.799  0.0659 -0.3128 -0.1594
 3940W        W24220   3.491   2.694   1.183 -0.2119 -0.2471 -0.0509
 3941W        W24221  12.293  11.238   3.719 -0.2111 -0.2047 -0.2804
 3942W        W24222   3.611   7.551   2.265  0.2418 -0.0173  0.3776
 3943W        W24223   3.609  11.775   0.709  0.0869  0.2578  0.0213
 3944W        W24224   7.773  15.470  11.224 -0.0386  0.0145  0.3528
 3945W        W24225  19.380  15.192  12.646  0.1119 -0.1633  0.0350
 3946W        W24226  17.499  10.547   0.315  0.3859 -0.0327  0.0354
 3947W        W24227  11.370   0.670   0.426 -0.2382 -0.1705  0.1558
 3948W        W24228   8.617   6.818  13.398 -0.0439 -0.1038 -0.1610
 3949W        W24229  12.063  12.932  12.988  0.0787  0.1343  0.0828
 3950W        W24230  19.144   4.827   9.620 -0.2323 -0.1657 -0.3724
 3951W        W24231  11.051   1.025  12.265 -0.1016  0.0562 -0.3533
 3952W        W24232   8.654  12.384  11.566  0.0906  0.0526  0.1815
 3953W        W24233  10.965  12.796  11.757  0.0591  0.2065 -0.1064
 3954W        W24234  14.061  19.142   2.284 -0.1332  0.0386 -0.4039
 3955W        W24235  19.105   4.523  11.587 -0.1233 -0.1091  0.0311
 3956W        W24236   4.277  11.411  11.720  0.0634 -0.0867 -0.1424
 3957W        W24237  10.666  15.135  11.240  0.3919 -0.1353 -0.0427
 3958W        W24238   1.958  11.180  12.406  0.0377 -0.0692  0.0624
 3959W        W24239   4.103  12.429   3.996  0.0259 -0.0643 -0.2262
 3960W        W24240  15.061  19.928  12.200  0.0180  0.0220  0.0377
 3961W        W24241  18.061   0.717   1.057 -0.2226 -0.2149  0.2000
 3962W        W24242  13.041   4.902  13.521 -0.0039 -0.0911  0.0219
 3963W        W24243   3.938   6.809  13.069  0.0071 -0.0346 -0.1540
 3964W        W24244   8.217  18.467  11.156  0.3129  0.0578  0.0531
 3965W        W24245   0.060   0.138  10.705 -0.2317  0.0756 -0.1065
 3966W        W24246   3.834   5.097  10.991 -0.0839 -0.1020 -0.1151
 3967W        W24247  14.682   0.452   2.475  0.0347 -0.3067  0.0896
 3968W        W24248   4.132  14.238  12.060 -0.2616 -0.1388 -0.3230
 3969W        W24249   2.600   2.291   2.990  0.3856  0.0999 -0.0549
 3970W        W24250   7.075  15.638   4.936  0.2255  0.3853 -0.0019
 3971W        W24251   8.885   8.598   3.066 -0.3080 -0.0136 -0.0844
 3972W        W24252  15.127   5.162  12.822 -0.2685  0.1778  0.0313
 3973W        W24253  11.271  14.841   0.901 -0.0050  0.0662 -0.1351
 3974W        W24254   9.394   3.144  13.247  0.0116  0.1779  0.2834
 3975W        W24255  11.402  17.229   1.973 -0.1709 -0.1254 -0.2775
 3976W        W24256   7.541  16.014  10.428  0.0519  0.0443  0.0464
 3977W        W24257   0.018  13.372   2.978 -0.2084 -0.1409 -0.1449
 3978W        W24258   8.584   0.854   0.885 -0.3014  0.0708  0.1070
 3979W        W24259  18.410   7.939  11.152 -0.1415  0.1688  0.1246
 3980W        W24260  14.046  19.072  12.428  0.0652 -0.0281 -0.2322
 3981W        W24261  17.267   1.291   9.664 -0.1396  0.0234 -0.1474
 3982W        W24262  10.990  15.937   0.149  0.0058  0.2468  0.2175
 3983W        W24263  16.716  10.267  11.879 -0.0149  0.0065  0.3301
 3984W        W24264   6.712   6.739   2.606  0.2826 -0.2103  0.1722
 3985W        W24265  11.902   7.601   4.051 -0.1103 -0.0427 -0.0670
 3986W        W24266   1.313  15.116   9.832 -0.0768  0.2092  0.2144
 3987W        W24267   9.814   7.704  12.671  0.2021  0.1633  0.0181
 3988W        W24268  17.537  16.013  13.100  0.3770 -0.2972  0.1334
 3989W        W24269  13.030   3.803  12.262 -0.0098 -0.1930 -0.0706
 3990W        W24270   9.220   2.544   3.510 -0.2410  0.0133 -0.1914
 3991W        W24271  11.235  14.540  10.641  0.3090 -0.0602 -0.1053
 3992W        W24272  17.075  13.659  12.275 -0.3857  0.0886  0.0924
 3993W        W24273  17.447   0.223  11.593 -0.3248 -0.0776  0.0817
 3994W        W24274   9.332   6.036   2.532  0.0482 -0.1470 -0.2958
 3995W        W24275  14.069   6.483   3.415 -0.0523 -0.2228  0.1875
 3996W        W24276   7.360  14.835   3.913  0.0852  0.1288  0.0520
 3997W        W24277  12.499   4.908  13.758 -0.0048  0.1869 -0.2695
 3998W        W24278   4.268   1.648   4.228  0.1459 -0.1629  0.0986
 3999W        W24279   3.257  10.712   0.175  0.0755  0.0358  0.3155
 4000W        W24280   6.067   7.394  11.702 -0.0313 -0.2568  0.0599
 4001W        W24281  12.444   8.589   9.983  0.2435  0.1526  0.1449
 4002W        W24282  17.499   7.305   3.957 -0.0736 -0.1188  0.2408
 4003W        W24283   6.075   8.157  13.334  0.0100  0.1359  0.1979
 4004W        W24284   6.335   4.054   1.255  0.1665  0.1729 -0.0022
 4005W        W24285  11.425   8.167  10.666 -0.1323  0.0858 -0.0092
 4006W        W24286  18.513   7.766   0.308 -0.1985  0.2176 -0.5315
 4007W        W24287   0.246   5.635   2.185 -0.0349 -0.1782 -0.3333
 4008W        W24288   3.867  17.058   1.142  0.0111  0.0951 -0.1525
 4009W        W24289  19.393  14.236   0.465 -0.0804  0.0369 -0.0341
 4010W        W24290  17.665   3.316   0.129  0.1995  0.1279  0.1526
 4011W        W24291  13.240   9.382  12.111  0.1969  0.0657 -0.0215
 4012W        W24292   0.926   1.368   3.632  0.2651 -0.0440 -0.1445
 4013W        W24293  19.797   6.599   0.451  0.1312  0.0259  0.0304
 4014W        W24294   9.299   7.392  12.641 -0.1164 -0.2105  0.0671
 4015W        W24295   9.778  14.336   1.475 -0.1928 -0.2884 -0.0663
 4016W        W24296  16.276   5.038   4.079 -0.0650  0.1859 -0.1281
 4017W        W24297   1.442  14.086  10.008 -0.1814 -0.0334 -0.2942
 4018W        W24298   2.449  11.539  11.172  0.2234  0.2476 -0.0656
 4019W        W24299   6.569  15.185  12.903  0.1889  0.1813  0.0471
 4020W        W24300  12.363  12.066   3.241  0.0305  0.0027  0.2463
 4021W        W24301  19.375  12.115   1.393 -0.3326  0.0626  0.1775
 4022W        W24302  16.180   8.669   2.881  0.0717 -0.0719 -0.1590
 4023W        W24303  17.261  12.879   1.790  0.1397 -0.3619 -0.1167
 4024W        W24304   9.351  14.392   0.332  0.2127  0.0536 -0.3797
 4025W        W24305   2.557  19.344  13.453 -0.1236 -0.1787  0.1895
 4026W        W24306  15.312   5.852   9.967  0.3175 -0.0536 -0.0477
 4027W        W24307   9.000   0.725   3.288  0.0286 -0.1040  0.2368
 4028W        W24308  13.115   4.701   3.134 -0.0485  0.0401  0.0130
 4029W        W24309  12.047   4.336  12.430  0.1857  0.1796  0.0361
 4030W        W24310   4.742  19.218   2.031  0.1888  0.1908  0.3516
 4031W        W24311   5.965  16.183  13.770  0.0294  0.0117  0.0332
 4032W        W24312   7.999   6.296   3.474  0.2752 -0.1478  0.0504
 4033W        W24313  18.179  11.268  12.521 -0.1704 -0.2287  0.0766
 4034W        W24314  11.627  19.557   2.895  0.1226 -0.2664 -0.1329
 4035W        W24315   4.272   0.014   2.025  0.0137  0.0493  0.2569
 4036W        W24316   0.650   0.012   0.157 -0.0164  0.0621  0.1835
 4037W        W24317   9.042   0.827  12.796  0.0110  0.1675  0.1558
 4038W        W24318   0.496  17.448  11.063  0.3235  0.3632  0.2869
 4039W        W24319   9.095   6.227  11.293  0.1634  0.1327  0.1370
 4040W        W24320   2.138   9.233  10.563 -0.0660  0.1114  0.0827
 4041W        W24321   4.827  17.376   0.355 -0.1687 -0.1497 -0.0498
 4042W        W24322  13.626   6.887  11.664 -0.2275 -0.0444 -0.0521
 4043W        W24323  15.068  18.473  10.804 -0.1137  0.1769 -0.3210
 4044W        W24324  17.192  13.553  10.641  0.2605 -0.2140 -0.1268
 4045W        W24325  11.089  18.562   1.886  0.1333  0.0644 -0.2624
 4046W        W24326   4.276   9.612   3.470 -0.1118 -0.4031  0.3619
 4047W        W24327  15.698  17.129  13.826  0.2862 -0.0242  0.0242
 4048W        W24328   3.972  11.266  10.647  0.0822 -0.1451 -0.2291
 4049W        W24329  12.580   8.634  13.526 -0.1571  0.1371 -0.0004
 4050W        W24330  11.399  13.028  11.711 -0.0651  0.0157 -0.0779
 4051W        W24331  11.948   1.223  13.282 -0.1618  0.0117 -0.0712
 4052W        W24332   5.729   1.421  12.839 -0.0647 -0.0949 -0.0246
 4053W        W24333   9.780   9.938   0.192  0.2997 -0.0055 -0.1388
 4054W        W24334  16.821  15.694  13.808 -0.0832  0.1769  0.2280
 4055W        W24335   1.872   5.160  10.106 -0.1422 -0.3812 -0.0020
 4056W        W24336  16.838  15.506  12.919 -0.2753  0.0854  0.0798
 4057W        W24337  16.004   3.815   1.325  0.1658 -0.1920  0.0275
 4058W        W24338   2.718   3.958   3.304  0.0154 -0.1194  0.1952
 4059W        W24339  13.930   1.998   1.148 -0.1280 -0.1269  0.2818
 4060W        W24340   0.086   1.317  11.532  0.1976  0.0041  0.2248
 4061W        W24341  17.951  11.273  11.329  0.0365 -0.1878  0.1157
 4062W        W24342  10.848   4.647   0.855 -0.1669 -0.1721  0.2066
 4063W        W24343   2.192  12.724   2.146 -0.0113  0.0692 -0.2342
 4064W        W24344  11.760   2.870   1.502 -0.0787 -0.0549  0.1712
 4065W        W24345   1.265   9.538  12.713 -0.0756  0.0659 -0.0801
 4066W        W24346  16.343   3.855   3.203 -0.0408 -0.0886  0.7000
 4067W        W24347   9.078  11.298  12.567 -0.4681  0.0427 -0.0188
 4068W        W24348   8.770   6.092   0.100  0.1466  0.0981 -0.0413
 4069W        W24349  17.830   1.184  11.630 -0.1632  0.4873 -0.1031
 4070W        W24350  15.656   5.773  10.346 -0.0150  0.0805 -0.0128
 4071W        W24351   4.785  19.197   3.875  0.0743  0.0047 -0.0520
 4072W        W24352   5.405  11.041  10.708  0.0655 -0.1597 -0.2730
 4073W        W24353  18.625  18.514   2.007 -0.1490  0.0513 -0.0316
 4074W        W24354   9.878  10.134  11.972  0.1273 -0.0233  0.0699
 4075W        W24355  19.311  11.704   1.061 -0.3036 -0.2448 -0.1204
 4076W        W24356   5.363   9.096  11.279 -0.2360  0.2224  0.0722
 4077W        W24357   1.398   1.033  10.490 -0.1291  0.0731 -0.4287
 4078W        W24358   4.008   4.837  11.716  0.2582  0.1402 -0.2814
 4079W        W24359  10.004   4.624   9.982  0.0744 -0.3009 -0.0757
 4080W        W24360  18.392  17.973  13.413  0.2602 -0.0590 -0.2155
 4081W        W24361   5.764   1.343  11.127  0.0935 -0.1147  0.2181
 4082W        W24362   0.629   4.070   4.289  0.1825 -0.1116  0.1169
 4083W        W24363  12.648  13.894  11.129 -0.0357  0.0150  0.0092
 4084W        W24364   0.644  13.818   4.574  0.0721 -0.0094 -0.3197
 4085W        W24365  16.291  15.548  12.909  0.0393 -0.1488 -0.2200
 4086W        W24366   9.598   9.770   1.215  0.1764 -0.1588 -0.0478
 4087W        W24367  17.459   9.408   2.950 -0.2611 -0.1422 -0.3049
 4088W        W24368   4.728   3.822   3.843  0.0634  0.0167 -0.1211
 4089W        W24369   0.866   4.666  11.424 -0.3996  0.0685 -0.0755
 4090W        W24370  19.516  17.793  10.762 -0.5487  0.1192 -0.1946
 4091W        W24371   4.030   8.040  12.364  0.2335  0.0543  0.0404
 4092W        W24372   6.655   8.414   3.685 -0.0091  0.1364  0.0203
 4093W        W24373   2.223   3.102   2.654 -0.1725 -0.1836 -0.1776
 4094W        W24374  18.388  15.370   2.302  0.2473 -0.1783  0.0056
 4095W        W24375  10.688   0.333  13.492 -0.2511  0.1317  0.0877
 4096W        W24376  19.653  13.307  10.275  0.0319  0.2441  0.1450
 4097W        W24377   6.900   0.178   0.576  0.1829  0.0845 -0.1019
 4098W        W24378  12.563   7.602  13.668 -0.5104  0.1271  0.2589
 4099W        W24379   3.913   1.829  13.248  0.0170  0.2057 -0.2687
 4100W        W24380   6.515   3.121   0.316  0.1356 -0.2414 -0.2266
 4101W        W24381  16.554   2.991   2.201  0.3337 -0.2002 -0.1487
 4102W        W24382   4.355  14.279  11.486 -0.0846  0.3534 -0.0151
 4103W        W24383  17.169   1.962   0.278 -0.1202  0.2105 -0.1995
 4104W        W24384   1.700   4.861   3.428  0.2472 -0.1782  0.1086
 4105W        W24385   4.253   3.160   2.375  0.1570 -0.0658 -0.1120
 4106W        W24386  12.953   3.992  10.314 -0.2814  0.3146  0.0412
 4107W        W24387  19.919  17.686   4.168  0.0350  0.2000  0.1965
 4108W        W24388  17.505   1.722   0.539  0.1856  0.0214 -0.3717
 4109W        W24389  17.523   1.765   1.070 -0.1020  0.1323  0.1582
 4110W        W24390  15.449   0.283   2.250 -0.2263  0.1377 -0.0967
 4111W        W24391   5.474  10.504  12.506 -0.2208 -0.4609  0.2219
 4112W        W24392   3.801  16.300  11.860  0.2023  0.2188  0.1540
 4113W        W24393   8.398   0.066  10.325 -0.2126  0.0234  0.6487
 4114W        W24394   1.833   8.948  11.493 -0.1450 -0.0022  0.3383
 4115W        W24395  18.696  12.789   1.043  0.1457  0.1370  0.1643
 4116W        W24396  12.648  15.155  13.013  0.2288  0.0868 -0.0706
 4117W        W24397   5.495   6.615  12.744 -0.1793 -0.0324  0.0001
 4118W        W24398   6.691  15.966   0.344  0.0510  0.4674  0.1122
 4119W        W24399  19.620  15.694   1.674  0.0788 -0.1520 -0.2876
 4120W        W24400  16.001   7.163   1.866  0.0993  0.0790  0.2253
 4121W        W24401   8.693  12.708   2.303 -0.1449  0.0595  0.1603
 4122W        W24402   6.667  16.787  12.385 -0.1243  0.1790  0.1027
 4123W        W24403   9.128  10.867   3.584 -0.4943 -0.2120 -0.1120
 4124W        W24404  13.155   3.803   1.227  0.0367 -0.1277  0.1019
 4125W        W24405   4.866  17.417   3.014  0.0709  0.1920 -0.4466
 4126W        W24406  17.488   3.427  12.546  0.2724  0.1367  0.0548
 4127W        W24407   1.050  15.873   0.309  0.3517  0.2453  0.3405
 4128W        W24408  18.354  19.619   1.742 -0.0818  0.0427 -0.0053
 4129W        W24409  13.217  15.493   1.893  0.1466 -0.0592 -0.2655
 4130W        W24410  17.143  14.347   2.953  0.0584  0.0771  0.1853
 4131W        W24411  18.927  11.916   1.546  0.1416  0.0973 -0.2062
 4132W        W24412   8.612  13.974  13.002 -0.2435  0.3046  0.1391
 4133W        W24413  11.430   5.057   1.992  0.0160  0.1775 -0.4679
 4134W        W24414   6.914   1.989   1.603 -0.2930  0.0115 -0.3141
 4135W        W24415  16.404   7.428  11.444  0.0922  0.0380  0.3079
 4136W        W24416  16.552  18.901  11.729  0.0422 -0.0402  0.0369
 4137W        W24417  14.357  15.191   2.858  0.1308  0.0258 -0.1916
 4138W        W24418   5.070   4.434   2.787 -0.0692  0.1153 -0.1345
 4139W        W24419   1.030  15.526  10.538  0.0888  0.1316  0.0225
 4140W        W24420  14.075  12.611  12.076 -0.1388 -0.1559 -0.2265
 4141W        W24421  15.303  14.611   9.780  0.1680  0.0310  0.0899
 4142W        W24422  18.539   0.910  12.202 -0.0743 -0.3354 -0.1204
 4143W        W24423   7.006  11.309  11.949  0.2625  0.2083  0.1507
 4144W        W24424   7.312  13.333  13.692 -0.0735  0.0426  0.0190
 4145W        W24425  10.151  11.337  11.245 -0.0879 -0.0731 -0.2783
 4146W        W24426   3.893   0.853  11.963  0.0960  0.1502 -0.0972
 4147W        W24427  11.384  13.025  10.806 -0.5140 -0.0938 -0.0147
 4148W        W24428   8.595   9.504   1.402 -0.2181 -0.1100  0.0153
 4149W        W24429  19.255   2.232  12.051 -0.1049  0.1004  0.1270
 4150W        W24430   1.993   9.374  13.765  0.0441 -0.1682 -0.1195
 4151W        W24431   2.792   9.570  13.146 -0.3152  0.1289  0.0898
 4152W        W24432   9.078   7.664   1.285  0.3514 -0.2739 -0.1350
 4153W        W24433   8.922   4.400   3.897 -0.0083 -0.1206  0.0573
 4154W        W24434   4.752  14.896  12.099  0.0239 -0.1375 -0.0835
 4155W        W24435  18.809   6.428   1.857  0.0251  0.2723 -0.1674
 4156W        W24436  18.423  12.305   0.931 -0.1478  0.2423 -0.1651
 4157W        W24437   5.633   8.030  11.895  0.0431 -0.1060 -0.2498
 4158W        W24438  12.418   3.222   2.778  0.2563  0.1365  0.2281
 4159W        W24439   1.166   1.778   3.744  0.2381 -0.2711  0.1757
 4160W        W24440   1.656  16.668  12.984 -0.0079  0.0475 -0.1009
 4161W        W24441  17.228  14.078  13.124  0.0446  0.0876 -0.0789
 4162W        W24442  11.912  17.302   3.699  0.1225 -0.2442 -0.1349
 4163W        W24443   8.739   6.540   3.867 -0.0476 -0.1723  0.1344
 4164W        W24444  17.565   4.169   0.202  0.0496 -0.1075  0.0365
 4165W        W24445   2.098   7.075  11.100  0.1625  0.0671  0.2163
 4166W        W24446  10.464   6.084   0.561  0.0500 -0.1853 -0.2304
 4167W        W24447  12.864  10.399  13.282  0.0601  0.1751  0.1811
 4168W        W24448  11.721   9.526  13.416 -0.2001 -0.0037  0.2904
 4169W        W24449  12.497  16.609   1.707  0.2466 -0.0407  0.0596
 4170W        W24450   7.876   2.704   2.015  0.0493 -0.4654  0.1776
 4171W        W24451  17.375   2.927  11.489  0.2701  0.0713  0.0333
 4172W        W24452   8.959  12.762   1.040  0.0272 -0.1049 -0.0793
 4173W        W24453  11.810  12.269  12.191  0.0245  0.2427 -0.0652
 4174W        W24454   9.049  17.350   2.872 -0.3251  0.2938 -0.0821
 4175W        W24455  19.048   8.034   1.198  0.3268  0.3003  0.0772
 4176W        W24456  14.247  11.853  10.719  0.2449  0.1245  0.0795
 4177W        W24457  15.544  14.353  12.845  0.2115  0.2791  0.0542
 4178W        W24458   0.234  15.846  11.426  0.0898  0.1175 -0.1221
 4179W        W24459   9.194  12.295   3.550  0.0894  0.2001 -0.2905
 4180W        W24460  14.801  16.530   3.019  0.0271 -0.0347  0.0388
 4181W        W24461  14.654  16.373  10.314 -0.1986  0.2899  0.1569
 4182W        W24462   3.067  12.755   1.694  0.0982 -0.1957 -0.1209
 4183W        W24463   5.642   0.371   0.430  0.2255 -0.1795  0.0443
 4184W        W24464   8.000  12.747   4.012 -0.0737  0.2573  0.1800
 4185W        W24465   0.519  19.187   2.830  0.1291  0.0069  0.1397
 4186W        W24466   6.343   0.672   1.715  0.2267  0.0088  0.2327
 4187W        W24467   0.291  19.261   1.441  0.2042 -0.0799  0.2363
 4188W        W24468   5.326  15.785   0.950  0.0606  0.1993 -0.1531
 4189W        W24469  13.944  12.012   0.597  0.2055  0.1515  0.0429
 4190W        W24470  12.040   4.687  12.791  0.0598  0.1548  0.0691
 4191W        W24471   0.943   5.482  12.980 -0.1486 -0.1085  0.0379
 4192W        W24472   8.011  10.072   1.810 -0.2039  0.0160  0.0408
 4193W        W24473  13.932   0.755   0.263 -0.2212  0.0490 -0.0987
 4194W        W24474   5.884   9.367  13.839  0.0630  0.1034 -0.2071
 4195W        W24475  16.527  18.258  12.941  0.4267  0.3296  0.1415
 4196W        W24476  13.681   9.515  11.531  0.3521 -0.1080 -0.1360
 4197W        W24477  16.023   4.078   1.742  0.3344 -0.0849  0.3978
 4198W        W24478  15.942  11.898   2.545 -0.3551 -0.0503 -0.1420
 4199W        W24479  13.686   8.986  13.797 -0.0221 -0.1799 -0.0356
 4200W        W24480  10.135  16.078  12.331  0.1702  0.1199 -0.1213
 4201W        W24481  16.205   2.875  12.584 -0.0527 -0.5002  0.0515
 4202W        W24482   2.954  13.009  10.968  0.1150  0.3349 -0.2648
 4203W        W24483  15.009   3.756   4.732 -0.3167 -0.1513 -0.1697
 4204W        W24484  18.793   8.557  12.026  0.1143 -0.1327 -0.1832
 4205W        W24485  15.795   1.985  13.762  0.0160  0.2085  0.2386
 4206W        W24486  15.619  11.612  11.693 -0.0447  0.0583 -0.2119
 4207W        W24487  13.599   1.935  13.360 -0.1932 -0.0962  0.0125
 4208W        W24488  15.415  17.915  13.309 -0.1893  0.0245  0.0268
 4209W        W24489   5.819  10.994  10.403  0.0596  0.2232  0.1128
 4210W        W24490   6.875   4.907   1.229  0.0013  0.2094  0.1604
 4211W        W24491   8.930  11.056  13.547  0.0655  0.0539 -0.3193
 4212W        W24492   0.777   9.271   3.102 -0.1200  0.2584  0.0813
 4213W        W24493   1.557  18.198  11.759  0.2417 -0.1447 -0.1428
 4214W        W24494   4.983  16.966  11.467 -0.3847 -0.0423 -0.2425
 4215W        W24495  15.614   1.382  10.833 -0.1109  0.2658 -0.1992
 4216W        W24496  10.886   3.885  13.788 -0.1348 -0.0810 -0.2164
 4217W        W24497  16.577  12.833   4.445 -0.0142  0.0784  0.0674
 4218W        W24498   4.470   5.501   3.078  0.0401  0.0034  0.5749
 4219W        W24499  17.700  13.208  13.383  0.3836 -0.1168 -0.2378
 4220W        W24500   1.406  15.503  11.882 -0.0159  0.0977 -0.0773
 4221W        W24501  10.141  14.346  11.287  0.3156 -0.1029 -0.1907
 4222W        W24502   4.715   8.481  12.356 -0.0638 -0.0472 -0.1056
 4223W        W24503   2.388   7.352  10.675  0.0513 -0.0916  0.1777
 4224W        W24504  14.956   5.285   2.621 -0.0637  0.0997  0.2232
 4225W        W24505   8.163   1.699   2.095  0.1253  0.2369  0.1764
 4226W        W24506   1.971  12.167   2.967 -0.1207 -0.1142 -0.2282
 4227W        W24507   0.760   8.163  11.403  0.2457 -0.1934 -0.0243
 4228W        W24508   9.079   3.525   3.085 -0.2322 -0.1096 -0.0778
 4229W        W24509  12.060  15.564  11.233  0.0156  0.0284  0.2775
 4230W        W24510  14.284   0.088   1.925 -0.1962  0.2387  0.0941
 4231W        W24511  14.693  10.229   0.456 -0.1813 -0.0042  0.0793
 4232W        W24512  11.591  19.712  10.966  0.0311  0.1955  0.2041
 4233W        W24513  14.923  19.352   1.396 -0.0610 -0.2305  0.3340
 4234W        W24514  14.840   7.941   3.654 -0.0397  0.0856  0.0595
 4235W        W24515  19.846  14.041   2.418 -0.2531  0.2253  0.3570
 4236W        W24516  19.781  12.183  13.218 -0.1390 -0.3074  0.0955
 4237W        W24517  18.706  11.071   2.200 -0.1062 -0.0165 -0.2326
 4238W        W24518   8.461  12.564   4.190 -0.0195 -0.1001  0.3464
 4239W        W24519   2.393  13.268  10.885 -0.1716  0.1636  0.0436
 4240W        W24520   5.529  14.747   1.093 -0.2261 -0.1093 -0.1348
 4241W        W24521   0.212   9.877  12.344  0.2067 -0.1738 -0.1447
 4242W        W24522   6.178  18.510   0.615 -0.2152  0.0747 -0.2616
 4243W        W24523   7.688  19.356  12.549 -0.3558 -0.1017 -0.4998
 4244W        W24524  10.503  15.744   0.434 -0.2993 -0.0723  0.2532
 4245W        W24525   5.423  13.179   4.731 -0.2870  0.0121  0.1302
 4246W        W24526   6.147  12.333   0.825  0.0695 -0.2803 -0.3226
 4247W        W24527  11.539   7.304  12.031  0.1405  0.4041  0.2392
 4248W        W24528  16.129  16.644  11.934 -0.0672  0.0538  0.1850
 4249W        W24529  16.367  19.582   1.068  0.1447 -0.0409  0.5107
 4250W        W24530  11.731  17.528   2.216 -0.0926 -0.1882 -0.0036
 4251W        W24531   6.604   1.617  11.739  0.1564 -0.3506 -0.2398
 4252W        W24532  19.110  14.312   1.972  0.0692 -0.0250  0.0139
 4253W        W24533  13.603  16.724  13.554  0.0352 -0.1844 -0.0895
 4254W        W24534   7.685  13.798  10.264 -0.1302 -0.0960  0.1188
 4255W        W24535  14.113   1.776  13.436  0.0119  0.0842  0.4642
 4256W        W24536   1.522   2.137  13.491  0.1739  0.2033 -0.1635
 4257W        W24537  16.592   5.018  10.979  0.3711  0.1597  0.2831
 4258W        W24538  10.542   5.413   3.807 -0.0065  0.1867 -0.2034
 4259W        W24539  10.556  12.315   2.675 -0.1820  0.1798 -0.2439
 4260W        W24540   3.694   6.670   2.036 -0.0581 -0.0793 -0.0504
 4261W        W24541   7.567  17.088  10.923  0.0387  0.2443 -0.1716
 4262W        W24542   1.243  18.633  11.685  0.3163 -0.2394  0.1203
 4263W        W24543  14.072   3.190  13.843 -0.3883  0.0662  0.0045
 4264W        W24544   4.266   3.193   0.806  0.1755 -0.0660 -0.1308
 4265W        W24545   4.477  13.556  12.813 -0.1568  0.0736 -0.1135
 4266W        W24546  18.704   1.585  10.353  0.1558  0.2024 -0.2294
 4267W        W24547  17.441   4.807   1.249  0.1695 -0.1494 -0.2840
 4268W        W24548  11.269  14.373   0.181  0.0809 -0.0402 -0.3642
 4269W        W24549  19.032   5.015   3.633  0.1784  0.0397 -0.1124
 4270W        W24550   1.616  19.141   0.656 -0.0636 -0.0418 -0.0328
 4271W        W24551  13.989  16.767   3.614 -0.1744  0.2321 -0.0979
 4272W        W24552  13.207   6.292   0.860 -0.2786  0.0123 -0.1606
 4273W        W24553  16.746   4.366  10.483  0.4190 -0.0463 -0.1510
 4274W        W24554   0.427   8.305   4.463  0.0019 -0.0224  0.0277
 4275W        W24555  13.718  14.779  11.918  0.0989 -0.0480 -0.0299
 4276W        W24556  18.232  14.837   2.449 -0.0973 -0.2683  0.2998
 4277W        W24557  14.047   8.045   1.743 -0.0589  0.0722  0.0636
 4278W        W24558   8.182   3.569   1.965  0.2832 -0.0983 -0.0459
 4279W        W24559   9.203  15.110   1.087  0.0704  0.0385 -0.2317
 4280W        W24560   4.037   9.006   0.770 -0.1856 -0.0567 -0.1598
 4281W        W24561  10.072   9.535  11.278 -0.7489 -0.2133  0.1684
 4282W        W24562   1.493   5.747   3.624  0.0541  0.3456 -0.0785
 4283W        W24563   2.663  13.354  12.353  0.3025 -0.0795  0.1066
 4284W        W24564  15.769   3.517   2.689 -0.3928  0.1368  0.0551
 4285W        W24565  14.265  10.759  10.869  0.0337 -0.0298  0.2833
 4286W        W24566  15.141  16.333  10.404  0.1387 -0.0843 -0.1965
 4287W        W24567  11.500  16.614  13.518  0.4382  0.0487  0.0947
 4288W        W24568  18.890  15.147  11.387  0.0035  0.0103  0.0978
 4289W        W24569  16.989   4.993   2.846  0.1081 -0.0132  0.1001
 4290W        W24570   5.006  10.981   3.451  0.1516  0.1328 -0.2982
 4291W        W24571  14.565  15.269   8.840 -0.0184  0.0240  0.0605
 4292W        W24572  19.788   5.091  10.347  0.1312  0.0657 -0.0098
 4293W        W24573  10.352   3.103   3.871 -0.0573 -0.0849 -0.1505
 4294W        W24574  10.078   5.909   1.796 -0.0393 -0.1244 -0.0167
 4295W        W24575   0.104   2.059   1.880 -0.1925  0.0302 -0.1061
 4296W        W24576  16.330   6.177  11.957 -0.4109  0.2450  0.0802
 4297W        W24577  15.290  10.874  12.195  0.0876 -0.0675  0.0481
 4298W        W24578   0.522  18.153   2.435  0.1550  0.2405 -0.1163
 4299W        W24579  18.391   8.481   2.940  0.0152  0.1205  0.2498
 4300W        W24580  11.465   8.370   1.226  0.0260  0.0456  0.1063
 4301W        W24581   3.829  19.555  12.879  0.2726 -0.2296 -0.0058
 4302W        W24582  17.009  19.529  11.147  0.0030 -0.1205  0.1216
 4303W        W24583   4.463   0.866  11.398  0.1718 -0.0300  0.0007
 4304W        W24584  15.580  15.423  10.864  0.1633 -0.3468 -0.4089
 4305W        W24585  12.929  18.497   0.034  0.2191  0.0652 -0.1868
 4306W        W24586   2.465  16.518  11.220  0.1299 -0.0529  0.0643
 4307W        W24587   9.514   1.393  11.093 -0.1134 -0.2055 -0.2346
 4308W        W24588   7.793   1.788  12.280  0.0246  0.2223 -0.0609
 4309W        W24589   4.915   2.705   0.374  0.3586  0.1462  0.1115
 4310W        W24590  17.330  14.416   2.227  0.1490 -0.0954 -0.2333
 4311W        W24591   8.402  10.662   0.272 -0.1522 -0.1731  0.0453
 4312W        W24592   4.275   0.990   3.222 -0.1465  0.1044  0.2168
 4313W        W24593   4.674   3.496  11.618 -0.2385  0.1656  0.3184
 4314W        W24594   1.420  18.935   0.237 -0.3923 -0.0602 -0.1655
 4315W        W24595   5.233   1.781  11.850 -0.2330 -0.2911  0.0320
 4316W        W24596   3.535  10.883  10.547  0.3394 -0.4215  0.1150
 4317W        W24597  14.925  11.005  12.678 -0.2500 -0.1842 -0.0198
 4318W        W24598  18.363  17.631  13.785  0.2406  0.1070  0.2120
 4319W        W24599   6.576  16.659  11.222  0.0365 -0.0315 -0.1887
 4320W        W24600   7.573  11.387   4.525  0.0021  0.0566 -0.0785
 4321W        W24601   9.629   5.016   1.748 -0.2226 -0.1081  0.1871
 4322W        W24602   7.627  14.717  10.420 -0.0585 -0.2430  0.0122
 4323W        W24603  18.168  12.822  12.570  0.1835 -0.0162 -0.0391
 4324W        W24604  19.854   4.301   0.809  0.0488 -0.0448  0.0725
 4325W        W24605  11.008  11.568   3.811  0.3296 -0.3326  0.1310
 4326W        W24606  12.075  17.100  13.342 -0.0644  0.1374  0.0495
 4327W        W24607   9.675  13.323   5.228 -0.2354 -0.1960  0.0261
 4328W        W24608   1.304  15.853  11.439  0.1705 -0.0341 -0.3276
 4329W        W24609  18.994  17.131   3.601  0.0991 -0.2534  0.0340
 4330W        W24610   4.124  16.060   1.370 -0.1825  0.2007  0.0165
 4331W        W24611  19.830   1.771  10.623 -0.1188  0.0968  0.1332
 4332W        W24612  16.357  16.366  12.780  0.0985 -0.1402  0.0146
 4333W        W24613   7.820  15.576   3.816 -0.2597  0.0594 -0.0202
 4334W        W24614   5.344  10.242  11.959 -0.0366  0.0063  0.0012
 4335W        W24615  18.646   0.735   1.087  0.0030  0.3119 -0.1300
 4336W        W24616  10.769   4.315  10.595 -0.2557 -0.1608  0.0096
 4337W        W24617   0.788  14.232  10.637  0.1467  0.0539 -0.2491
 4338W        W24618  15.398   9.033  12.740  0.0014  0.1702 -0.2433
 4339W        W24619   1.530  18.385   2.975 -0.3836  0.1284 -0.1603
 4340W        W24620   0.623   8.078   0.011  0.2741 -0.0767 -0.4907
 4341W        W24621   6.274  10.464  13.166 -0.2837 -0.1000 -0.2307
 4342W        W24622   7.172   1.212   3.021 -0.0200 -0.3750  0.0952
 4343W        W24623  18.726   5.281   2.643  0.1464  0.0535  0.0009
 4344W        W24624  13.747  18.078  12.157  0.0002  0.0333  0.2157
 4345W        W24625  18.875  12.872  11.441  0.0251 -0.2727  0.2609
 4346W        W24626   5.940   9.098   1.360  0.0574 -0.3134 -0.0625
 4347W        W24627   0.164   1.488  12.863 -0.0943 -0.0669  0.2974
 4348W        W24628  15.728   3.364   0.940  0.0945 -0.1520 -0.1664
 4349W        W24629   7.795   4.463  11.130 -0.4623 -0.0182 -0.2784
 4350W        W24630  12.910   4.069  11.428 -0.1588 -0.2997  0.0908
 4351W        W24631   4.557   0.847  13.019 -0.2481  0.1203  0.2468
 4352W        W24632  11.543   2.857   3.515 -0.0929 -0.0495 -0.1491
 4353W        W24633   6.116   3.320   2.616 -0.0099  0.0945  0.0454
 4354W        W24634  13.816   0.363  13.376 -0.2337 -0.1126  0.2611
 4355W        W24635  15.588   2.248   8.651  0.4151 -0.1719  0.0056
 4356W        W24636   9.323  16.662   2.129  0.1330 -0.0483  0.0379
 4357W        W24637   9.230   3.825   0.949 -0.2456 -0.4444 -0.2794
 4358W        W24638  13.528  15.539  10.849 -0.1023 -0.0395 -0.0653
 4359W        W24639   6.149  12.621   1.743  0.1237 -0.1801 -0.2588
 4360W        W24640  11.239   4.216  12.887  0.0894 -0.3757  0.1920
 4361W        W24641   5.754   3.003   0.681 -0.3285  0.0693 -0.0530
 4362W        W24642  16.690  14.610   2.084 -0.0025 -0.0684 -0.1209
 4363W        W24643  16.515  17.377   1.013  0.2955 -0.1279 -0.2101
 4364W        W24644   0.113  12.658  13.032 -0.1517  0.2017  0.0035
 4365W        W24645  12.154   2.768  11.639  0.1056 -0.2135  0.1463
 4366W        W24646  17.517   1.013   2.862  0.3561  0.1384 -0.3270
 4367W        W24647  11.984  18.991   0.121  0.0092 -0.2126  0.0352
 4368W        W24648  18.809   4.066   2.173 -0.1424 -0.0286  0.1854
 4369W        W24649   2.705   5.119   0.624  0.1095  0.5322  0.2505
 4370W        W24650  17.299   2.737  13.746  0.1559  0.0308  0.1956
 4371W        W24651   4.494  11.965   0.907 -0.0833  0.2489  0.2024
 4372W        W24652   9.335   6.316   0.090 -0.1179  0.2555  0.1878
 4373W        W24653  14.872  17.135   2.055  0.1456  0.1584  0.0916
 4374W        W24654   8.208   9.467   3.257  0.1711 -0.0847 -0.1719
 4375W        W24655  19.633  15.010   1.118 -0.1185  0.1032  0.0873
 4376W        W24656   2.803  17.523   1.518  0.3432  0.0329  0.1993
 4377W        W24657   7.863  10.901  13.660 -0.3590  0.3147  0.0860
 4378W        W24658   1.375   1.005  12.601  0.0288  0.1490 -0.3233
 4379W        W24659  16.001  12.755   1.927  0.1298 -0.1277 -0.0743
 4380W        W24660   1.762  17.452   2.675  0.4398 -0.1715  0.0668
 4381W        W24661   1.090  18.136   3.239 -0.0746 -0.0206 -0.3232
 4382W        W24662   8.350  14.031  12.594 -0.1927  0.0855  0.0669
 4383W        W24663   5.835  11.403   2.502  0.5043  0.4136 -0.1479
 4384W        W24664   2.621  11.229  13.547  0.0166  0.0032 -0.1700
 4385W        W24665   4.308  18.255   0.145 -0.1832  0.0656 -0.3674
 4386W        W24666  10.572  14.137  13.575  0.1274  0.1768 -0.1569
 4387W        W24667   6.825   9.962  11.904  0.1135  0.0078 -0.3585
 4388W        W24668   8.897  18.830   4.025 -0.0626 -0.1592  0.1003
 4389W        W24669  11.354  12.144   0.618  0.1610 -0.1015 -0.2130
 4390W        W24670  18.495  15.860   0.102  0.4959 -0.0432  0.0074
 4391W        W24671   1.064  13.370   0.809  0.0312  0.0475  0.0181
 4392W        W24672   0.181   6.090   1.340  0.0250 -0.4749  0.1529
 4393W        W24673  19.309   0.553   2.112  0.3284 -0.1285 -0.0807
 4394W        W24674  17.854   0.209  11.293  0.0349 -0.1125 -0.2743
 4395W        W24675  10.032  14.259  13.570  0.3449 -0.0242 -0.0880
 4396W        W24676  10.283  16.573   2.112  0.2321  0.1158 -0.0144
 4397W        W24677   9.766  12.979   1.813  0.0376 -0.1057 -0.1160
 4398W        W24678   6.256  13.477  13.284 -0.2441  0.3404  0.1209
 4399W        W24679  18.299   7.680  12.989 -0.0427  0.3275  0.0402
 4400W        W24680   4.438   2.451   3.150 -0.0365  0.3886 -0.1343
 4401W        W24681  16.845  10.847  11.108 -0.2865  0.2063  0.1672
 4402W        W24682   3.822  18.885   4.816  0.1881  0.1461  0.0476
 4403W        W24683   7.412  13.475   0.336 -0.3653  0.1330  0.1169
 4404W        W24684  18.607  17.096  11.493  0.2999  0.1207  0.0829
 4405W        W24685   8.887  11.846  11.406 -0.0351  0.0565  0.0343
 4406W        W24686   9.448   0.966   1.402  0.0180  0.0377  0.0020
 4407W        W24687  12.362   5.822   3.503 -0.0469  0.4873  0.2136
 4408W        W24688  12.152  11.888  11.960 -0.3166 -0.2763 -0.1327
 4409W        W24689  10.175   0.069   9.997 -0.1078  0.2565 -0.1161
 4410W        W24690  16.026  10.009   0.983 -0.3037 -0.3266 -0.3372
 4411W        W24691   7.652  18.864  13.175 -0.2260 -0.2366  0.1874
 4412W        W24692  17.763  14.520  11.363 -0.0412  0.1731 -0.0723
 4413W        W24693   0.641  14.674   0.932  0.0638 -0.3024 -0.0483
 4414W        W24694  17.020  19.782   3.464 -0.1719 -0.0303 -0.1394
 4415W        W24695  16.526  16.047   1.816  0.2531 -0.0884  0.0150
 4416W        W24696  12.887  15.647   1.489  0.1362 -0.0441 -0.0589
 4417W        W24697  15.764   0.337  13.328 -0.0340  0.0370 -0.1619
 4418W        W24698  17.272  14.874  10.562  0.1646  0.0459 -0.0780
 4419W        W24699  18.765   9.143   3.456 -0.0091  0.0949  0.3238
 4420W        W24700   8.372   1.582  13.307  0.0706  0.0617  0.2146
 4421W        W24701  11.829   7.363  13.352  0.0700  0.0437  0.2412
 4422W        W24702  10.707   5.178   2.819 -0.1422 -0.0669 -0.3678
 4423W        W24703  18.677   5.250   3.391  0.1606  0.0139  0.1433
 4424W        W24704   5.372  13.487  13.384  0.2968  0.1718  0.1556
 4425W        W24705   8.072   7.959   3.748  0.2516  0.0789 -0.1078
 4426W        W24706  18.998  13.731   2.568 -0.1555  0.1303 -0.2440
 4427W        W24707   1.073   5.237  12.406 -0.0655  0.1573  0.1514
 4428W        W24708   2.320  17.425   1.341  0.1976 -0.1285  0.0529
 4429W        W24709   6.159   5.071   2.119 -0.1046  0.0922 -0.3114
 4430W        W24710  14.996   4.633  12.730 -0.2435  0.3769  0.0932
 4431W        W24711   0.091   8.828  11.881  0.1340  0.1317  0.0348
 4432W        W24712   4.007  18.090   0.965 -0.0173  0.1257 -0.1089
 4433W        W24713   3.781  18.992  10.760  0.0851  0.2736 -0.2017
 4434W        W24714   2.302   1.109  12.680  0.3356 -0.0624  0.0430
 4435W        W24715   8.759  18.260   1.264  0.1737  0.0195 -0.1242
 4436W        W24716   7.641   8.321  13.343  0.1190  0.0268  0.0707
 4437W        W24717  12.552  13.575   0.664 -0.1257  0.3463 -0.1770
 4438W        W24718   7.447  18.312   0.422 -0.1292  0.2482 -0.0361
 4439W        W24719  16.003  11.274  11.661  0.0315  0.0115  0.0290
 4440W        W24720   5.641   0.168  13.080  0.1706 -0.1959 -0.0596
 4441W        W24721   7.142   5.269   1.862 -0.3274  0.2810  0.1641
 4442W        W24722  10.867   8.369   0.701 -0.0378 -0.0758  0.0074
 4443W        W24723  16.810   3.403   0.316  0.0675 -0.4509 -0.1831
 4444W        W24724   5.806   8.430  10.529 -0.0590  0.0860 -0.2085
 4445W        W24725  10.320   1.290   2.608 -0.0893  0.3134 -0.2707
 4446W        W24726  16.207  19.197  10.898 -0.3788  0.1557 -0.2554
 4447W        W24727   0.932   7.544   0.746 -0.0801 -0.2758  0.0638
 4448W        W24728  15.670  18.841   0.646 -0.1228  0.2418  0.1113
 4449W        W24729  16.895  15.928   0.442 -0.0242  0.1615  0.1798
 4450W        W24730  10.311  17.642  10.026 -0.0871  0.2758  0.0548
 4451W        W24731  13.394  10.056   1.489 -0.0429 -0.0113  0.1813
 4452W        W24732  15.106  15.014  11.625  0.2304 -0.2795  0.2045
 4453W        W24733   5.559  19.709  13.832  0.4409  0.0134  0.0862
 4454W        W24734  13.233  16.846  11.709  0.0937 -0.0173  0.2572
 4455W        W24735  10.594  19.767   1.656 -0.0413  0.0563 -0.1020
 4456W        W24736  14.027  17.426   9.814 -0.0775 -0.1215  0.3230
 4457W        W24737  13.074   6.188  12.467 -0.1649  0.0844  0.1213
 4458W        W24738  15.734  15.346   1.910 -0.1222  0.4100  0.1478
 4459W        W24739   7.465  15.187  11.455  0.1404  0.1399  0.0457
 4460W        W24740  16.993   2.340  13.747 -0.0880  0.1179  0.1438
 4461W        W24741   9.435   4.657  10.785  0.0669 -0.1556  0.2264
 4462W        W24742   1.715   0.635  10.710 -0.3054  0.0813 -0.0874
 4463W        W24743   2.708   8.541  10.965  0.2581  0.0690 -0.3146
 4464W        W24744  10.483   1.210  11.489 -0.0087  0.2001 -0.0694
 4465W        W24745   9.826   0.113   2.641 -0.0546  0.2144 -0.0033
 4466W        W24746   8.932   7.071   0.261 -0.1388 -0.0145  0.0562
 4467W        W24747  16.658  16.481   1.435  0.1201 -0.0044  0.0312
 4468W        W24748  15.586  16.316   0.607 -0.4379 -0.0821 -0.0188
 4469W        W24749  17.276   6.089   2.814  0.3352 -0.1330 -0.0184
 4470W        W24750  18.757   0.382  11.965  0.1050  0.1041 -0.0202
 4471W        W24751   0.676  11.911  11.477  0.1556  0.2532 -0.1265
 4472W        W24752   2.725  11.699   3.199  0.0488  0.0254  0.2294
 4473W        W24753  16.706   0.745   4.050 -0.0379 -0.1271 -0.1880
 4474W        W24754  10.296  15.493   5.372  0.2106  0.0743  0.1890
 4475W        W24755   7.248  14.545  13.503  0.1130 -0.0289  0.2671
 4476W        W24756   0.081   8.689  10.985 -0.3204 -0.0845  0.2034
 4477W        W24757  15.290  12.412   2.624  0.3241 -0.4248 -0.1918
 4478W        W24758  16.585  11.059   2.953  0.1828  0.3122  0.0625
 4479W        W24759  18.601  17.482  13.306 -0.0899 -0.0141  0.0858
 4480W        W24760   8.892   0.817   3.803 -0.0653  0.0697  0.2370
 4481W        W24761   6.693   8.117   1.439  0.4332  0.3796  0.0124
 4482W        W24762   2.497  11.038  12.326  0.0380  0.0833 -0.0086
 4483W        W24763   9.956  10.992  12.981  0.3129 -0.2317  0.0755
 4484W        W24764   8.235  16.061   3.593 -0.0657 -0.2959 -0.1876
 4485W        W24765   7.098   4.824   2.697  0.0263 -0.2588 -0.3228
 4486W        W24766   6.620  11.269   1.710 -0.3113 -0.1237  0.4118
 4487W        W24767   3.212  19.250  12.332  0.1560  0.0612 -0.1247
 4488W        W24768  10.618  14.999  13.173 -0.0460 -0.1753  0.1659
 4489W        W24769  15.289   4.180   9.869 -0.3407 -0.2802 -0.1461
 4490W        W24770   1.292  17.655  11.561 -0.1476  0.0474  0.3669
 4491W        W24771  19.002   1.771  12.496  0.2088 -0.6686 -0.1073
 4492W        W24772  17.698  13.664  13.436  0.2153  0.0148 -0.3752
 4493W        W24773   1.429   3.350   1.615  0.3098  0.0595  0.1252
 4494W        W24774   6.954  14.881  11.518 -0.2886 -0.1549 -0.0579
 4495W        W24775  19.417  12.181   3.288 -0.0825  0.0772  0.3276
 4496W        W24776   3.399   7.427   0.926  0.1271 -0.4310 -0.1602
 4497W        W24777  10.412   6.710  11.871 -0.0555 -0.0494  0.3446
 4498W        W24778   0.324   9.030  13.738  0.2710  0.1479 -0.1068
 4499W        W24779  14.954  10.135  10.932 -0.0236  0.2085 -0.1439
 4500W        W24780   5.724  17.313  11.202 -0.1187  0.0747 -0.1597
 4501W        W24781  19.226   0.433  12.755 -0.3139 -0.3441 -0.0531
 4502W        W24782   9.798  18.636   1.331  0.1357  0.0566  0.2244
 4503W        W24783   0.226   0.631   2.783 -0.0444  0.1664  0.3803
 4504W        W24784   1.393   4.491  13.662 -0.0128  0.1635  0.0107
 4505W        W24785  11.733   8.817  10.741 -0.0862 -0.0067  0.0711
 4506W        W24786   5.670  17.148   2.056 -0.2351  0.0086  0.0034
 4507W        W24787  19.416  17.438   0.039 -0.0216 -0.0577  0.2400
 4508W        W24788  16.787  15.791   1.335 -0.2533 -0.1492  0.3330
 4509W        W24789  15.622   7.341   0.305  0.0418  0.2457 -0.1941
 4510W        W24790  14.234   3.169   8.661  0.0017  0.3869 -0.0967
 4511W        W24791   0.608   0.733   0.237 -0.0504  0.0792  0.1168
 4512W        W24792  11.109  11.313   2.885 -0.2645 -0.2109 -0.1208
 4513W        W24793  11.214  11.826   3.285  0.1321 -0.4113 -0.0219
 4514W        W24794  17.343   6.865  12.860 -0.1376  0.0960  0.0882
 4515W        W24795   7.783  17.250  10.004 -0.4161  0.0676 -0.1551
 4516W        W24796  11.078  15.653  13.632  0.0384 -0.0082 -0.1379
 4517W        W24797  11.394   0.568   2.672  0.0914 -0.2456 -0.0797
 4518W        W24798   7.156   5.190   0.244  0.1052 -0.0793  0.0703
 4519W        W24799   5.181   2.779  11.998 -0.1276  0.2002 -0.3102
 4520W        W24800  17.286   7.996   3.168 -0.0450 -0.2384 -0.0740
 4521W        W24801  14.881  15.503  10.386  0.1720  0.3419 -0.1849
 4522W        W24802   6.863  15.671   4.117  0.1357 -0.0786  0.0814
 4523W        W24803  15.231  11.686  11.097 -0.0589 -0.3267 -0.0337
 4524W        W24804   8.787  13.032   3.423  0.2614 -0.3246 -0.2954
 4525W        W24805   9.548  13.882   0.621 -0.0354 -0.2392  0.0168
 4526W        W24806  13.164  12.535  12.048  0.0837  0.1178 -0.2435
 4527W        W24807  15.020   3.516  13.314  0.0397  0.3095 -0.1062
 4528W        W24808   5.467   3.787   0.489 -0.2012  0.3467  0.1011
 4529W        W24809  15.347   7.489   1.223  0.2717  0.0860 -0.2786
 4530W        W24810   5.383  15.797   0.486 -0.0254  0.3864 -0.2739
 4531W        W24811   1.959  17.076  13.145  0.1823  0.0510  0.1365
 4532W        W24812   5.571   9.053   0.276 -0.1306  0.4197 -0.3474
 4533W        W24813   7.246  14.499  12.152 -0.1319 -0.1512 -0.0401
 4534W        W24814   6.160   4.372  10.637  0.1913  0.1755  0.1812
 4535W        W24815   7.207   5.099   0.861 -0.2382 -0.5669  0.1166
 4536W        W24816   8.029   1.905  11.082  0.1564  0.1121  0.1224
 4537W        W24817  13.969  13.862   3.512 -0.3132 -0.2227  0.0923
 4538W        W24818   7.159  12.210   3.662 -0.2813  0.2404  0.0460
 4539W        W24819   6.111  12.954  11.357  0.5229  0.1190 -0.0468
 4540W        W24820  10.061  15.142  10.126 -0.0758 -0.1116 -0.0961
 4541W        W24821  14.600  13.236   4.437 -0.2097  0.1251  0.2203
 4542W        W24822   1.329  12.126  10.764 -0.0868 -0.0707  0.3629
 4543W        W24823  11.200   0.214  10.758  0.1841 -0.0317  0.1989
 4544W        W24824   7.527  11.624   2.652 -0.0384 -0.3117 -0.2998
 4545W        W24825   6.753   6.279   2.031 -0.2561  0.2584  0.2574
 4546W        W24826   0.796  14.611  12.028  0.1747  0.1574 -0.0952
 4547W        W24827   6.428  13.785  12.205 -0.0781 -0.1519  0.0117
 4548W        W24828   0.519  11.564   1.636 -0.1135 -0.1036  0.1568
 4549W        W24829  11.587   5.257   3.455 -0.0789 -0.2349 -0.0260
 4550W        W24830  10.926  11.561   9.685  0.0849  0.2623  0.3779
 4551W        W24831  11.841  19.345   1.376 -0.1106 -0.0900 -0.0104
 4552W        W24832   1.444  11.107   2.860  0.1266  0.0038  0.1986
 4553W        W24833   4.580   3.441  13.836 -0.0946  0.2013  0.2783
 4554W        W24834   2.083   4.300   2.622 -0.1588 -0.0778 -0.0174
 4555W        W24835   6.202   4.361   0.868  0.1962  0.2827 -0.1417
 4556W        W24836  13.269   3.255   2.370 -0.2366  0.3429 -0.2121
 4557W        W24837   1.369  10.817   4.129  0.1785  0.1158 -0.0448
 4558W        W24838  10.814  16.493   1.986 -0.0086  0.3153 -0.0086
 4559W        W24839   2.987  17.014  11.869  0.0160  0.4163  0.1460
 4560W        W24840  13.535  16.065  12.235  0.0591 -0.0907 -0.0647
 4561W        W24841   1.719  16.636   4.228  0.4498  0.1146  0.0985
 4562W        W24842  13.134  19.531  10.686  0.0045 -0.2543  0.1338
 4563W        W24843   9.527  14.525   3.810 -0.2207 -0.1021 -0.2414
 4564W        W24844   8.402   5.208   0.715  0.0008 -0.0018  0.1449
 4565W        W24845  13.942  16.538  10.821  0.1478  0.1702  0.0374
 4566W        W24846   7.774   7.494   2.974  0.1256  0.2599 -0.0593
 4567W        W24847  11.703  18.204   3.827 -0.0646  0.0234 -0.0257
 4568W        W24848   6.274  13.804   0.716  0.0415  0.1050 -0.0564
 4569W        W24849  15.226   6.814  13.019  0.3324  0.1236 -0.1697
 4570W        W24850   5.130   1.891   4.670 -0.2446  0.3516 -0.3803
 4571W        W24851   3.324  12.087  10.897  0.4306 -0.5122  0.0504
 4572W        W24852  19.867  11.407   3.019  0.1666 -0.1629 -0.3319
 4573W        W24853  19.152   5.892  11.379 -0.2219 -0.1120  0.1815
 4574W        W24854  16.422  15.590  13.397  0.4013 -0.1102 -0.1106
 4575W        W24855  12.606   6.086  13.555 -0.2858 -0.3184  0.1035
 4576W        W24856   0.984   6.295  12.650  0.2054 -0.0440 -0.0383
 4577W        W24857   8.378  14.719   1.222  0.0143  0.0838 -0.1245
 4578W        W24858   3.857  18.781   2.311 -0.3048  0.1983  0.0220
 4579W        W24859  11.866  13.412   1.156 -0.2887  0.0935  0.2356
 4580W        W24860  15.132  14.012  13.329 -0.2748  0.0830 -0.3195
 4581W        W24861   2.482   7.546  13.275 -0.1896 -0.1109  0.0801
 4582W        W24862   9.919  17.653  12.092 -0.1525  0.0767  0.1072
 4583W        W24863  15.733   9.361  11.520  0.2534  0.1358  0.2824
 4584W        W24864   2.203  17.009   4.204 -0.1187  0.1599 -0.1712
 4585W        W24865   3.438   6.643   2.786  0.2888  0.1313  0.2544
 4586W        W24866   7.270  17.083   5.242  0.0117  0.0522 -0.1712
 4587W        W24867  12.834   3.055   0.948  0.2641 -0.4062 -0.1135
 4588W        W24868   1.671   1.892   1.031  0.2203  0.0371 -0.1300
 4589W        W24869   6.685  14.213  12.073 -0.2952  0.0734  0.1117
 4590W        W24870   7.637   7.037  11.257  0.2468 -0.1488 -0.0136
 4591W        W24871   8.995   8.453   2.541  0.4750  0.0896  0.0237
 4592W        W24872   0.655   2.841   1.085 -0.2097  0.0557 -0.1427
 4593W        W24873  11.487   4.143  10.599  0.0696  0.3338 -0.1396
 4594W        W24874  14.502  19.682   3.274  0.3928  0.0411 -0.4053
 4595W        W24875   7.789   5.156  11.721  0.1098 -0.0757 -0.2263
 4596W        W24876  14.017   6.968   4.058  0.1552  0.1683 -0.1033
 4597W        W24877  11.186  12.782   0.027  0.0656  0.0904  0.0435
 4598W        W24878  12.633   8.247   3.844 -0.0354 -0.0044  0.2371
 4599W        W24879  11.000  19.848   2.488  0.2361 -0.1307 -0.0483
 4600W        W24880   2.603   6.673  13.018 -0.2596 -0.2141 -0.2470
 4601W        W24881   9.879  15.576   2.406 -0.4969  0.2433 -0.1234
 4602W        W24882  13.516  11.919   0.917 -0.0089 -0.2350 -0.3296
 4603W        W24883   6.651   5.199   0.392 -0.0735  0.0089 -0.2799
 4604W        W24884   5.654   0.904   0.624 -0.0178  0.3771  0.0210
 4605W        W24885  14.025   7.631   0.640 -0.0132  0.1224 -0.2223
 4606W        W24886   4.542   4.794  13.816 -0.1904 -0.1792  0.1064
 4607W        W24887  14.202   9.602  10.213  0.4704  0.1383  0.0353
 4608W        W24888  10.103  10.693   0.443  0.1095 -0.0261 -0.1900
 4609W        W24889   3.557   9.759  13.483 -0.0509  0.0829 -0.2401
 4610W        W24890  19.802   3.728   2.150  0.0962  0.3537 -0.2141
 4611W        W24891  17.813   9.614   1.497  0.0596 -0.0422 -0.0042
 4612W        W24892   1.445   6.218  12.935  0.2263 -0.1496  0.1395
 4613W        W24893  17.360  14.512   0.156 -0.2770  0.0622 -0.2628
 4614W        W24894   4.192  11.957   0.426  0.0560 -0.1969  0.2993
 4615W        W24895   8.198   4.834  10.694  0.4131  0.3510 -0.1508
 4616W        W24896   2.260   2.814   1.607  0.5136 -0.0472 -0.2049
 4617W        W24897   3.953   3.931   2.445 -0.0947 -0.2398 -0.0035
 4618W        W24898  13.471   2.521   0.432 -0.0496  0.1620  0.1741
 4619W        W24899  14.773   8.948  12.467 -0.3332  0.2328  0.0397
 4620W        W24900  14.164   1.918   0.666 -0.3929 -0.3108  0.2927
 4621W        W24901   2.371  12.708  12.592 -0.1341  0.0527 -0.2113
 4622W        W24902  14.524  16.585   8.915 -0.1889 -0.1809  0.0741
 4623W        W24903  12.055  16.087  11.312 -0.1076 -0.0331 -0.0403
 4624W        W24904   4.765  19.296   1.073 -0.2119  0.1329 -0.0453
 4625W        W24905  11.850   0.796  10.990  0.1340 -0.1392  0.1550
 4626W        W24906   1.044   0.939   4.176 -0.2379 -0.2673  0.2057
 4627W        W24907  19.686  11.373  12.416 -0.0826  0.1447  0.3606
 4628W        W24908  10.916   0.400  10.359 -0.1204  0.1590 -0.1903
 4629W        W24909  11.348   1.260   2.156  0.0976  0.0318 -0.1174
 4630W        W24910   9.176  11.915   1.189  0.1104 -0.2563 -0.0725
 4631W        W24911  18.142   4.367  11.848  0.2776  0.0651 -0.1628
 4632W        W24912   6.866  14.571   3.255 -0.0740  0.2588  0.2924
 4633W        W24913  15.434  14.541   2.455  0.1523  0.4980  0.0862
 4634W        W24914   5.653   3.959   1.487 -0.0099  0.0613  0.0994
 4635W        W24915  15.261  18.574   0.988  0.2315 -0.0499  0.2202
 4636W        W24916  17.981  15.654  13.766 -0.1383  0.0617  0.2613
 4637W        W24917   5.753   0.858  12.765 -0.0616  0.1785 -0.1441
 4638W        W24918   6.162  17.545  12.532  0.2210 -0.2573  0.1208
 4639W        W24919   1.179  10.462  13.613  0.3162 -0.1318  0.2611
 4640W        W24920  19.810  14.883  12.759  0.0004 -0.0217  0.0018
 4641W        W24921   5.820  12.320  12.944 -0.0566  0.0146  0.1367
 4642W        W24922  13.314   3.915  10.979  0.1124  0.0894 -0.0371
 4643W        W24923   0.185  13.485  11.977  0.0198 -0.4881  0.0332
 4644W        W24924   0.076   0.953  12.881 -0.0439  0.2620 -0.3079
 4645W        W24925   2.071   6.947   0.729  0.1854 -0.0107 -0.1070
 4646W        W24926   3.762  17.193   1.729 -0.1390  0.0212 -0.1427
 4647W        W24927  15.967  13.057  11.912  0.1138  0.1742  0.2405
 4648W        W24928   0.419   0.559   1.276  0.1842 -0.0045  0.0399
 4649W        W24929  15.069   9.489  12.798  0.4610  0.0831 -0.1004
 4650W        W24930   7.681   8.655  10.916 -0.0875 -0.3306  0.2362
 4651W        W24931  16.086   2.206  10.909  0.3041 -0.0606  0.3364
 4652W        W24932  11.068  11.635  12.120  0.0029 -0.1470  0.0028
 4653W        W24933  13.520   7.881   3.803 -0.2232 -0.1020  0.0459
 4654W        W24934   0.626   5.463   0.531 -0.1574 -0.2289 -0.1388
 4655W        W24935   0.900  10.153  11.736  0.1541  0.1290  0.3603
 4656W        W24936   2.925   2.182   2.582  0.0598 -0.4357 -0.1297
 4657W        W24937  16.731  10.762  12.628 -0.0980 -0.1056 -0.0390
 4658W        W24938   9.292   8.010   2.017  0.0278 -0.2681  0.2980
 4659W        W24939  19.918  19.559   1.239  0.1063  0.1149  0.0401
 4660W        W24940  14.470   6.087   2.178  0.0806  0.0563  0.0054
 4661W        W24941   0.713   6.649   2.455 -0.1864 -0.2439  0.0835
 4662W        W24942   8.120   5.667  10.412  0.0801  0.3915 -0.0369
 4663W        W24943  11.622   8.187  12.393 -0.3661  0.1147  0.1588
 4664W        W24944  18.386   7.242  11.233  0.1071  0.0499  0.0071
 4665W        W24945   2.248   3.115   0.526  0.0680 -0.1291  0.4723
 4666W        W24946  14.810  16.187   1.725  0.0485 -0.2012  0.1173
 4667W        W24947   1.754  11.717   1.200  0.0383 -0.0092  0.0462
 4668W        W24948   2.212  16.749   0.734  0.0494 -0.1880 -0.1579
 4669W        W24949  15.293   0.338   1.666  0.4526 -0.2190 -0.2077
 4670W        W24950  18.018   0.906   2.877  0.1431  0.1137  0.3238
 4671W        W24951   2.281   5.370   3.062 -0.0840  0.1424  0.1488
 4672W        W24952  15.008   9.897   9.888  0.1501  0.1724  0.2095
 4673W        W24953  18.425  12.601  12.982  0.0852 -0.0464 -0.1622
 4674W        W24954  13.555   6.684   2.633  0.0732  0.0838 -0.1802
 4675W        W24955   9.760   3.828   1.199  0.1196  0.1307  0.1305
 4676W        W24956  13.540  11.887   9.576 -0.2009 -0.1091  0.1497
 4677W        W24957   5.575  14.208   1.246 -0.0548 -0.1695 -0.0023
 4678W        W24958   9.879  11.523   2.034  0.1217  0.0744  0.1315
 4679W        W24959   8.807   1.914   1.143 -0.0101 -0.1527 -0.0007
 4680W        W24960  16.592  16.849   0.687  0.0257  0.2077 -0.1732
 4681W        W24961   8.218  17.124  11.628 -0.0690 -0.2222 -0.2930
 4682W        W24962   8.147   6.475   3.009  0.2101 -0.0982 -0.0339
 4683W        W24963  14.263  10.174  13.717 -0.0304  0.1168  0.2139
 4684W        W24964  16.163   6.094   0.813 -0.2716 -0.0597 -0.2031
 4685W        W24965   1.600  18.895   3.061  0.0102  0.0886  0.0491
 4686W        W24966  10.631  16.359   3.025 -0.1618 -0.1498 -0.1864
 4687W        W24967   3.890  14.612   1.771  0.1112 -0.2613 -0.0785
 4688W        W24968   5.516  11.810  12.893  0.0124 -0.5289  0.3435
 4689W        W24969   8.598   2.369  13.730  0.2845 -0.0648  0.0763
 4690W        W24970   6.280  16.313   0.751 -0.3156  0.0845 -0.1765
 4691W        W24971  15.700   7.273   3.354 -0.1232  0.1566 -0.1910
 4692W        W24972  12.062  15.693   3.290 -0.0054  0.3014  0.0553
 4693W        W24973  18.125   5.143   0.745 -0.2620 -0.2832 -0.4657
 4694W        W24974   9.006  10.008   4.123  0.0160  0.1864 -0.0058
 4695W        W24975  19.294   7.511  12.701  0.1081 -0.0317 -0.0158
 4696W        W24976   1.380  18.371  11.300  0.1790  0.1837 -0.0884
 4697W        W24977  10.274  19.904  12.420 -0.1204  0.0190 -0.0147
 4698W        W24978   2.384  18.286   3.784 -0.0113 -0.1978 -0.3457
 4699W        W24979  19.470  14.365  12.546 -0.0485  0.3712  0.0033
 4700W        W24980  17.252  18.220  12.791  0.1536 -0.1289  0.1045
 4701W        W24981   7.393   5.144   1.331  0.1738 -0.1256 -0.4550
 4702W        W24982  14.850  15.216   0.629 -0.1790 -0.6217  0.0509
 4703W        W24983   8.535   3.370   1.610 -0.4221  0.0306 -0.0158
 4704W        W24984   0.334  11.888  12.594  0.0370 -0.2487  0.1695
 4705W        W24985   3.651   8.398   1.455 -0.0004 -0.1328  0.0526
 4706W        W24986  16.504   8.878  13.729 -0.1193 -0.2610 -0.0411
 4707W        W24987   8.710  12.726   2.955 -0.1725 -0.2940 -0.2008
 4708W        W24988   0.298   6.781  11.029 -0.0142  0.3053  0.2376
 4709W        W24989   5.754  11.498   9.536 -0.1845 -0.2776 -0.1210
 4710W        W24990  11.861  19.236   0.519 -0.1673  0.1042  0.1332
 4711W        W24991   0.149   8.081  12.542  0.0208  0.2128 -0.1270
 4712W        W24992   1.433   7.161   2.846  0.0072 -0.3551 -0.4146
 4713W        W24993  13.099   9.180  12.567 -0.0690 -0.1538  0.1039
 4714W        W24994   3.179  13.333  13.601  0.1128  0.1352 -0.1158
 4715W        W24995  12.006  15.203   2.539  0.1271 -0.0390 -0.0582
 4716W        W24996  14.092   9.742   2.467  0.0862  0.0540  0.1221
 4717W        W24997   9.191  11.962   1.679 -0.0772 -0.0193 -0.0182
 4718W        W24998   7.379   6.257  10.768 -0.0768 -0.0980 -0.2775
 4719W        W24999   6.134  14.328   0.975  0.1756  0.0997  0.0231
 4720W        W25000   0.063  15.979   1.802  0.0636  0.2334  0.0201
 4721W        W25001  19.589  16.153   2.561 -0.1885 -0.0306  0.0514
 4722W        W25002   6.668  19.024   4.271 -0.0496 -0.1894  0.0957
 4723W        W25003   2.811   5.346  10.992  0.0845 -0.0712 -0.2203
 4724W        W25004  13.645   9.489  10.970  0.0723 -0.1773  0.0551
 4725W        W25005   7.205  18.702   2.854  0.1804  0.0788 -0.1077
 4726W        W25006   5.966   5.770   1.528 -0.1312  0.1890 -0.0436
 4727W        W25007  14.462  11.672   1.938  0.1344  0.3338 -0.0105
 4728W        W25008  18.288   1.182   1.092 -0.0900 -0.0097  0.1859
 4729W        W25009   1.412   7.647  13.756 -0.1106  0.2355  0.0904
 4730W        W25010   1.576  14.969   2.448 -0.0592  0.0470 -0.0773
 4731W        W25011  17.999   1.254  10.648  0.2198 -0.2974 -0.0479
 4732W        W25012   1.847  17.740  13.626 -0.1415 -0.3549  0.1332
 4733W        W25013  14.797  17.335  11.206  0.3467 -0.0619 -0.0500
 4734W        W25014  11.413  14.016   1.254 -0.2586 -0.0843 -0.1912
 4735W        W25015  18.236   2.149  12.970 -0.1453 -0.0102 -0.0291
 4736W        W25016   3.516  18.571  10.805 -0.0260  0.0973  0.0122
 4737W        W25017  13.856  18.294   1.899  0.0010  0.0305  0.0677
 4738W        W25018  11.181  10.828   3.063 -0.0603 -0.0771 -0.1167
 4739W        W25019  19.444   2.770  13.205  0.4107  0.2727 -0.0486
 4740W        W25020   4.889   7.187   9.457  0.1737  0.0333  0.2368
 4741W        W25021   6.900  18.462  11.720  0.2939  0.1806  0.3748
 4742W        W25022  13.713   3.341  13.495 -0.1348  0.1452  0.1312
 4743W        W25023  11.087   0.516   1.784  0.4028  0.2172  0.0677
 4744W        W25024  11.514   3.198   1.716 -0.0205 -0.2882  0.1115
 4745W        W25025  10.328   3.794   3.047 -0.2149 -0.2923 -0.0879
 4746W        W25026  19.148   8.854  10.721  0.0330 -0.4015  0.0767
 4747W        W25027   2.950  16.420  11.657  0.0405 -0.0301 -0.0831
 4748W        W25028   7.120   2.850  10.897  0.2899  0.0243 -0.2501
 4749W        W25029  14.397  13.966  11.043  0.1785  0.1126  0.1737
 4750W        W25030  15.884  10.643  12.377  0.0696  0.0314 -0.0589
 4751W        W25031   8.374   8.507  11.743  0.0056 -0.1878  0.1761
 4752W        W25032   3.951   5.573  13.735  0.1717  0.0046 -0.0935
 4753W        W25033  12.661  16.915   2.626  0.3480 -0.0650 -0.0085
 4754W        W25034   4.070   6.608   9.458 -0.1405 -0.3126  0.0110
 4755W        W25035   2.741  16.689   0.822  0.1280  0.0583  0.0011
 4756W        W25036   0.943   2.253  10.999  0.0045  0.0129  0.0257
 4757W        W25037  11.379   6.905   2.063 -0.3780  0.2116  0.1900
 4758W        W25038  12.251   7.788   2.772  0.0026  0.2031  0.0073
 4759W        W25039   2.256   5.504  10.161  0.1100  0.0020  0.3778
 4760W        W25040  17.619   6.921   1.342 -0.2238  0.1329  0.2679
 4761W        W25041  16.385  11.610  11.702 -0.0966 -0.0549 -0.0825
 4762W        W25042  16.143   0.941  10.282 -0.2327 -0.0356 -0.2099
 4763W        W25043  11.812  16.350  12.256  0.1807  0.0441 -0.0429
 4764W        W25044   1.730   9.856  12.875  0.3169  0.0680  0.0722
 4765W        W25045  12.119   6.133  13.840  0.1620  0.2600  0.0368
 4766W        W25046   0.064  14.619   1.049  0.0379 -0.1728  0.1202
 4767W        W25047  15.587  12.194   4.135 -0.0058  0.2090  0.3838
 4768W        W25048   0.328   4.359  13.289 -0.0614 -0.1562  0.0794
 4769W        W25049  17.614  15.981   8.738 -0.0060 -0.3007 -0.2186
 4770W        W25050   9.276  11.598   2.118 -0.1535 -0.0351 -0.2800
 4771W        W25051  12.621  12.583   3.443  0.0269  0.1239 -0.1258
 4772W        W25052   8.626   4.775  10.459 -0.2336 -0.0829  0.3354
 4773W        W25053  18.807  17.671   2.104 -0.2424 -0.0272 -0.3445
 4774W        W25054   8.358  11.943   3.154  0.0101 -0.0855 -0.3306
 4775W        W25055   6.923  15.884   2.447  0.2927 -0.2535 -0.0417
 4776W        W25056  19.618  16.740  12.836  0.1974  0.0260 -0.1647
 4777W        W25057  17.447  16.735  10.517  0.0273  0.1527 -0.0459
 4778W        W25058  11.651  14.633  10.391 -0.1145 -0.1666 -0.0423
 4779W        W25059  19.123  16.815   2.343 -0.1262 -0.3119  0.0776
 4780W        W25060   5.903   3.826   0.991 -0.0648 -0.0218 -0.0233
 4781W        W25061   0.525  10.391   2.548 -0.0443 -0.1358  0.3501
 4782W        W25062  11.040  15.111   0.521 -0.4446  0.1839  0.0405
 4783W        W25063   8.857  13.057   3.923 -0.1506  0.2376 -0.3046
 4784W        W25064  14.278  10.763   1.122  0.1977 -0.0084  0.1541
 4785W        W25065   1.256  12.732   3.467 -0.0961  0.2747 -0.0840
 4786W        W25066  18.407  17.623  12.267  0.1885  0.0946  0.1025
 4787W        W25067   3.955   9.272  13.067  0.1727 -0.2316  0.1277
 4788W        W25068   5.409   2.863   0.286  0.1218 -0.0373 -0.0276
 4789W        W25069  17.073   0.665   2.689 -0.1046  0.3152  0.0729
 4790W        W25070  16.297  11.969  10.878  0.1564 -0.1491 -0.3297
 4791W        W25071   3.890  14.454  11.543  0.2420 -0.0863 -0.1133
 4792W        W25072  15.582  16.814   0.799 -0.1193  0.0231 -0.2285
 4793W        W25073   7.007   7.244  12.004 -0.2179  0.3209  0.0820
 4794W        W25074   4.087   3.492  10.842  0.0664  0.1461  0.2378
 4795W        W25075   3.998  12.590  11.353 -0.1529 -0.0858 -0.0030
 4796W        W25076   6.208   8.733   1.430  0.2363 -0.0561 -0.1528
 4797W        W25077   8.771  11.599   1.728  0.0202 -0.3281  0.0562
 4798W        W25078  12.000  12.337   0.870  0.3427  0.0076  0.2770
 4799W        W25079   6.995   6.901  11.140  0.1631 -0.2600 -0.1394
 4800W        W25080  11.170   2.117   1.072 -0.1393 -0.3529 -0.1891
 4801W        W25081   7.808   9.915   3.128 -0.1765  0.2066  0.2852
 4802W        W25082  15.136   4.864   0.826 -0.2172 -0.0026  0.0483
 4803W        W25083  12.182   6.512   9.952  0.2457  0.0350  0.2288
 4804W        W25084  17.703   6.588  13.656  0.1013  0.0395  0.1161
 4805W        W25085  17.808  11.799  13.716  0.0898  0.2609 -0.1283
 4806W        W25086  12.424   4.963   0.521  0.0888  0.1940 -0.0507
 4807W        W25087   3.103   2.569  10.859  0.1651  0.0291  0.0695
 4808W        W25088  14.167  15.658   9.420  0.1901 -0.0436 -0.0983
 4809W        W25089  19.090  17.266  10.203  0.1324  0.1456 -0.0366
 4810W        W25090  12.662  16.536  10.446  0.0168 -0.2699  0.1334
 4811W        W25091   3.291   4.401  10.512 -0.0456  0.1309 -0.2787
 4812W        W25092   1.489   8.577  11.682  0.0873 -0.0786 -0.0556
 4813W        W25093  15.129  18.738  13.673 -0.1164  0.1854 -0.0002
 4814W        W25094   9.485  19.281  11.495 -0.0861 -0.0986  0.3398
 4815W        W25095  11.752  16.374   1.740 -0.0035  0.1572  0.0229
 4816W        W25096   2.222  10.629  11.271  0.0129 -0.1008 -0.1093
 4817W        W25097  15.537   9.771   2.308 -0.3832 -0.4207 -0.0709
 4818W        W25098  16.872   2.030  13.417  0.3248 -0.3107 -0.0609
 4819W        W25099  18.842   5.311   1.696  0.3690  0.0087  0.0136
 4820W        W25100  17.013  10.020   2.008  0.0690 -0.0904 -0.0844
 4821W        W25101  17.336   8.582  11.787  0.1397  0.1715  0.2165
 4822W        W25102   9.497   5.552   2.630  0.2248  0.0132 -0.2599
 4823W        W25103  17.707   6.548   1.927  0.0915  0.1446 -0.1776
 4824W        W25104  12.687   4.926   2.825  0.1051  0.2240  0.2033
 4825W        W25105  11.555   0.621   1.001  0.5605  0.0283 -0.2994
 4826W        W25106   2.966   8.120  11.016 -0.3968 -0.1434  0.0608
 4827W        W25107   9.881   3.863  10.759  0.3576  0.1361  0.1506
 4828W        W25108   8.279  17.455  12.002  0.3297  0.2935 -0.1682
 4829W        W25109   7.648   4.425  12.080 -0.1408  0.0358 -0.2214
 4830W        W25110  14.941   1.968   2.060 -0.2448  0.0565 -0.2749
 4831W        W25111   9.282  17.688  12.818 -0.1979 -0.2184 -0.1179
 4832W        W25112   8.271  10.134   3.288 -0.3826  0.1944 -0.1838
 4833W        W25113  12.339  15.321   1.016 -0.0332 -0.1851 -0.0426
 4834W        W25114  16.481   1.857   2.821 -0.0461 -0.2479  0.1317
 4835W        W25115  15.772  10.575  11.488  0.1833  0.0579 -0.1826
 4836W        W25116  11.087  17.749  11.182 -0.0528 -0.1440  0.2696
 4837W        W25117   0.462   3.552  13.155  0.0432 -0.0225  0.0132
 4838W        W25118   8.370   5.519  13.199 -0.0402  0.1901  0.0294
 4839W        W25119   6.913  17.374   4.024 -0.2509  0.0439  0.0068
 4840W        W25120   7.483   3.976   3.767  0.3024  0.0095 -0.2359
 4841W        W25121  13.323  18.101  11.837  0.0791 -0.0498  0.1561
 4842W        W25122  16.132   1.021   1.603  0.3070 -0.4116  0.0370
 4843W        W25123   3.836   6.286  12.166  0.1953  0.1791 -0.0587
 4844W        W25124  19.162  18.070   0.557  0.0799  0.0895 -0.3038
 4845W        W25125   3.308   8.705   1.658  0.2841 -0.0097  0.2614
 4846W        W25126  17.232   5.430  13.290 -0.1602 -0.1127  0.0235
 4847W        W25127   7.385   3.517  13.845 -0.4196  0.2692 -0.0727
 4848W        W25128   1.544  10.794  12.818  0.0673 -0.0555  0.0992
 4849W        W25129   6.511  13.933  13.086 -0.1051  0.1674 -0.0102
 4850W        W25130  10.671  10.625   2.586  0.0086 -0.2350 -0.2469
 4851W        W25131  18.555  17.911   1.221 -0.0575 -0.0552  0.0215
 4852W        W25132   5.437   1.071  12.025 -0.0385  0.0386  0.0097
 4853W        W25133  13.279   2.833  11.792  0.0370 -0.0959  0.4378
 4854W        W25134   1.829  18.697   0.758  0.1013 -0.1387 -0.0737
 4855W        W25135  18.095   4.040  12.815  0.0776  0.1114 -0.2234
 4856W        W25136   1.926  16.350   0.644  0.0075  0.4467  0.0615
 4857W        W25137  14.345   8.751  12.354  0.1042  0.1502  0.2948
 4858W        W25138  18.328  10.847  10.917  0.1119  0.1689  0.2172
 4859W        W25139   2.782   3.653   1.777 -0.0075 -0.1966  0.0503
 4860W        W25140   6.253   8.252   1.541 -0.2935 -0.0765  0.0069
 4861W        W25141   1.884   5.355   1.639 -0.0448  0.1452 -0.1578
 4862W        W25142   4.526   2.239  11.120 -0.2070 -0.0304  0.0636
 4863W        W25143   7.478   6.566   4.018 -0.4207 -0.0530 -0.1230
 4864W        W25144   7.287   3.990  11.849  0.2377 -0.0028 -0.1832
 4865W        W25145  15.692   4.811   0.782  0.3620  0.0506  0.0766
 4866W        W25146  16.169   6.447  12.343  0.0150  0.1446  0.2111
 4867W        W25147  17.056   4.263  13.859 -0.0714  0.2530 -0.0658
 4868W        W25148   4.205   0.908   0.108 -0.3183 -0.0813 -0.1937
 4869W        W25149   1.355   9.887  12.321 -0.0936 -0.0096 -0.1970
 4870W        W25150   8.799  11.619   4.115 -0.1716  0.1566  0.1552
 4871W        W25151  17.910   2.044  10.095 -0.2066  0.1774 -0.0826
 4872W        W25152   4.003   9.000  10.736 -0.0419 -0.1356  0.1023
 4873W        W25153   8.979  12.144   5.495 -0.2772 -0.3883  0.2452
 4874W        W25154  10.499   7.070  12.787  0.2573 -0.1095  0.0302
 4875W        W25155  15.484   6.670  11.921 -0.0551 -0.4161  0.1387
 4876W        W25156   1.686  12.151  12.778 -0.1419 -0.2095 -0.0569
 4877W        W25157   9.125  16.506   1.721  0.0864 -0.0041  0.1944
 4878W        W25158   2.998   4.543   2.363  0.3045  0.4014  0.0974
 4879W        W25159   4.544   8.901  10.710 -0.3454 -0.0060 -0.1356
 4880W        W25160   1.124  17.274   4.157  0.0649  0.0123  0.1797
 4881W        W25161   1.113  10.982  11.323 -0.0237  0.0207 -0.1670
 4882W        W25162  15.893   8.345   3.129  0.0220 -0.1145  0.2596
 4883W        W25163   7.852   3.044   1.632  0.2210 -0.1738 -0.0859
 4884W        W25164   4.419   4.349   9.456  0.3832  0.0024  0.0148
 4885W        W25165   3.163  11.484   4.192 -0.1316 -0.0802 -0.1373
 4886W        W25166   6.833  18.284   1.677 -0.2595 -0.0358 -0.1815
 4887W        W25167   6.294   8.205   1.007 -0.4201 -0.0584 -0.0710
 4888W        W25168   2.156   8.225  12.213 -0.1855 -0.0589 -0.4113
 4889W        W25169  12.138   6.186   0.553 -0.3099  0.2492  0.1071
 4890W        W25170   8.253  19.497  11.512  0.1518  0.1935  0.0421
 4891W        W25171  18.234   7.103  13.340  0.0704  0.0512 -0.1003
 4892W        W25172   3.107  17.014  13.536  0.0160 -0.1541 -0.0821
 4893W        W25173   8.179  10.316   2.744 -0.1014  0.2080  0.0942
 4894W        W25174   1.598  12.573   1.678 -0.0333 -0.1166 -0.1495
 4895W        W25175  10.186  16.124   2.568  0.1111  0.0318 -0.0633
 4896W        W25176   4.778   9.391   3.238 -0.0354 -0.1935  0.2346
 4897W        W25177   2.893  14.386  11.738  0.0120 -0.1041 -0.2236
 4898W        W25178  15.334  18.175   2.045 -0.1027 -0.2473  0.0012
 4899W        W25179  14.977   1.155   3.593  0.2157 -0.2244 -0.0045
 4900W        W25180  16.871   5.406   9.919  0.3190  0.1294 -0.0153
 4901W        W25181   4.499   8.015  11.722 -0.0795 -0.1593 -0.0715
 4902W        W25182  10.538  15.803  13.757  0.1485 -0.0844  0.1922
 4903W        W25183   8.856   4.832   3.045  0.3218 -0.3077  0.2406
 4904W        W25184   7.300  10.929  13.649 -0.0430 -0.0906 -0.2817
 4905W        W25185   8.422   8.719  12.977 -0.2952 -0.1294  0.0254
 4906W        W25186  11.216   7.139   2.487  0.2699 -0.0583 -0.2336
 4907W        W25187   7.561  15.356   0.317 -0.2185  0.1307 -0.4572
 4908W        W25188  12.318   1.113   0.478  0.0728  0.1819 -0.3770
 4909W        W25189  15.603   3.859   3.092  0.0359 -0.0432  0.2819
 4910W        W25190   8.977  11.226   1.934  0.0647 -0.1819  0.6052
 4911W        W25191  12.167  11.545  11.514 -0.2797 -0.1510 -0.0219
 4912W        W25192   8.263  10.203   4.331  0.0512  0.2844 -0.0979
 4913W        W25193   7.723   0.742   1.713 -0.0534 -0.1558 -0.3527
 4914W        W25194  19.356   0.647  11.283  0.3385 -0.0656  0.1857
 4915W        W25195  18.355   6.744  13.718 -0.0309  0.1486 -0.0696
 4916W        W25196  17.180  15.574   1.428  0.0538  0.1265 -0.2716
 4917W        W25197   7.019   2.403   3.064  0.1013 -0.0732 -0.2593
 4918W        W25198  14.775  11.427   1.527  0.1260 -0.1983  0.0666
 4919W        W25199   2.362  11.543   0.680 -0.3603  0.0827  0.0687
 4920W        W25200   1.205  14.789  12.223  0.0786  0.1833 -0.1573
 4921W        W25201  18.905  15.645   9.139 -0.3288  0.0565  0.4204
 4922W        W25202  18.366   0.847  10.086 -0.2700 -0.2700  0.0524
 4923W        W25203   5.284  19.054   0.401 -0.0758  0.2885  0.0925
 4924W        W25204   4.204  14.505   4.757  0.2107  0.4245  0.0213
 4925W        W25205  18.436  10.999   9.982  0.0106  0.4712 -0.2306
 4926W        W25206  14.453  19.530   1.396 -0.0669  0.1021 -0.0074
 4927W        W25207  10.003  11.013  12.297 -0.1357 -0.2886 -0.0691
 4928W        W25208  15.115  11.345  11.703  0.0724  0.1254 -0.0728
 4929W        W25209  16.789  19.091   0.213  0.3397 -0.1559  0.2979
 4930W        W25210   6.043  13.004   2.988 -0.0342  0.0934 -0.1504
 4931W        W25211   7.615   2.900   2.404 -0.0809 -0.1858  0.1647
 4932W        W25212   1.348   0.505   4.972  0.2682 -0.1500  0.1844
 4933W        W25213   6.057  15.586   3.478 -0.2748 -0.0397  0.2307
 4934W        W25214   0.674   0.640   3.102 -0.0059 -0.2345  0.1009
 4935W        W25215   0.742  12.379  10.828 -0.3293  0.1493  0.0104
 4936W        W25216  16.699   7.749   1.002  0.3031 -0.1692  0.0669
 4937W        W25217   1.410   9.755   0.385  0.0703 -0.0850 -0.3125
 4938W        W25218  13.679  14.929  11.301  0.2151 -0.0734  0.1024
 4939W        W25219   6.862  14.449  12.492 -0.1937 -0.0242 -0.2235
 4940W        W25220   9.835   2.484  10.614 -0.0858 -0.1957 -0.0327
 4941W        W25221  10.820  15.360  10.819  0.2996  0.0728 -0.3675
 4942W        W25222  18.643   7.604   9.847 -0.2316  0.2109  0.0575
 4943W        W25223   6.076   7.683   3.802  0.1963  0.0381 -0.1872
 4944W        W25224   2.380  11.678  13.555 -0.1291 -0.0300 -0.2809
 4945W        W25225   9.581   4.909  13.794 -0.0333  0.1227 -0.3660
 4946W        W25226  19.026  11.063   9.497 -0.6099 -0.0222  0.3004
 4947W        W25227  19.034   7.113   3.334 -0.2221  0.4096  0.0912
 4948W        W25228   2.905  13.104  10.158 -0.2764 -0.1621 -0.3207
 4949W        W25229   2.767   6.883   8.941  0.0147 -0.0495 -0.1128
 4950W        W25230  17.976  16.997  11.554 -0.0014  0.0225 -0.1226
 4951W        W25231   3.786   1.721   0.504  0.1521  0.1538 -0.0240
 4952W        W25232  19.009   5.509   2.941 -0.1852 -0.1157  0.0084
 4953W        W25233   0.621  14.144  12.826  0.1539 -0.1104 -0.0333
 4954W        W25234  18.344  14.243  12.405 -0.3918  0.1387  0.0910
 4955W        W25235   3.558  16.153   1.250  0.0405 -0.0405  0.3807
 4956W        W25236  12.111   3.876   2.259 -0.0609 -0.4186  0.2435
 4957W        W25237   8.713   8.679   4.008 -0.1648 -0.2178  0.1063
 4958W        W25238  15.106   4.689  10.913  0.1666  0.0290  0.1581
 4959W        W25239  12.735   6.798   3.956  0.2410 -0.1914 -0.1404
 4960W        W25240   4.865   8.202   1.014  0.0070  0.0340  0.0964
 4961W        W25241   5.506   0.725   2.084  0.3301 -0.1406 -0.1086
 4962W        W25242   2.718  16.120  12.321 -0.0558  0.0257  0.0390
 4963W        W25243   0.030  11.878  10.390 -0.0472  0.0001  0.0996
 4964W        W25244   7.360  12.660   1.689 -0.3556 -0.0543  0.0413
 4965W        W25245  12.661  10.797  11.654 -0.3271 -0.1333  0.1119
 4966W        W25246  10.153   5.753  13.733 -0.2327 -0.2844  0.1083
 4967W        W25247   1.255  17.105  12.117  0.3361  0.0634 -0.1223
 4968W        W25248   8.583   6.772   1.706 -0.0732 -0.0296  0.0802
 4969W        W25249   3.765   1.087   1.504 -0.4286  0.1682 -0.0928
 4970W        W25250   5.875   2.931  10.590  0.0015 -0.0619  0.0204
 4971W        W25251   8.510  11.515  11.338 -0.0954  0.1334  0.0510
 4972W        W25252   3.517  11.028   1.234 -0.0331  0.0273  0.0388
 4973W        W25253  14.761  18.832  11.973 -0.0424 -0.0196 -0.2049
 4974W        W25254   0.359  16.424   0.770  0.1256  0.0330  0.0501
 4975W        W25255  19.807   9.573  12.042  0.0884  0.0998 -0.0732
 4976W        W25256   8.970  14.703   3.979  0.3075 -0.0531 -0.3502
 4977W        W25257   8.658  15.660   2.704 -0.0995  0.2782  0.0359
 4978W        W25258  18.503  17.730   1.716 -0.3246 -0.0899 -0.0899
 4979W        W25259   9.405   9.271  12.887 -0.1001  0.0752  0.0011
 4980W        W25260  16.062   9.291  11.980  0.2637  0.1356 -0.4619
 4981W        W25261   9.655   7.684   0.362  0.3602  0.4343  0.1476
 4982W        W25262  13.653   1.626  12.140 -0.0461  0.0292 -0.0474
 4983W        W25263  12.164  19.355   0.896 -0.0574 -0.0682 -0.0717
 4984W        W25264   6.099  14.178  12.036 -0.1159  0.0419 -0.2184
 4985W        W25265   9.288  14.237  10.892 -0.0101 -0.2730  0.0519
 4986W        W25266  14.548   6.667   9.936 -0.0408 -0.4122 -0.0395
 4987W        W25267  16.738   9.018   1.026 -0.0379  0.1390 -0.1376
 4988W        W25268   4.767  13.329  10.681 -0.1660  0.1199  0.2166
 4989W        W25269   1.411  19.812  12.241  0.3014 -0.1568  0.4473
 4990W        W25270   3.327  10.513  11.619 -0.1155 -0.1832 -0.0137
 4991W        W25271   6.831  15.895   5.300  0.0904 -0.5139 -0.0202
 4992W        W25272   6.459  13.015   1.701  0.1212 -0.0963  0.0827
 4993W        W25273   5.657   2.866  13.736  0.1451  0.3149  0.0745
 4994W        W25274   2.811  13.899   2.957 -0.0694  0.1198 -0.2916
 4995W        W25275  18.097   8.278  11.402 -0.2921  0.0171 -0.1930
 4996W        W25276  19.269  12.813   1.465 -0.1633  0.2194 -0.1535
 4997W        W25277  15.868   1.806  10.144 -0.1673  0.1818  0.0974
 4998W        W25278   2.287   3.654   3.199  0.0342  0.2234 -0.1000
 4999W        W25279   6.010   4.834  12.266 -0.2211 -0.0427 -0.1484
 5000W        W25280  18.130  16.838   1.183 -0.1849 -0.1599 -0.2208
 5001W        W25281  18.297   5.634   1.798  0.0646  0.1699  0.2341
 5002W        W25282   6.310   7.522   4.253  0.0268 -0.2054  0.0686
 5003W        W25283  19.166   1.070  13.286 -0.1112  0.0921 -0.1120
 5004W        W25284   7.404   6.368  12.409  0.1734 -0.1245 -0.1128
 5005W        W25285   0.193   9.346  11.703 -0.0625  0.0944  0.0472
 5006W        W25286  17.385  11.256  10.647 -0.1371 -0.3964  0.0090
 5007W        W25287  18.582   6.878   1.222  0.2145 -0.0645 -0.3481
 5008W        W25288  18.232   6.941  12.393 -0.2755 -0.0142 -0.2116
 5009W        W25289  11.471   8.178  11.519 -0.0043  0.2063 -0.0236
 5010W        W25290  11.784  12.127  13.640 -0.0341  0.0134 -0.1124
 5011W        W25291   2.933   0.420   3.819 -0.0381 -0.2812  0.0176
 5012W        W25292   7.686   8.196  10.778  0.1474 -0.3183 -0.0199
 5013W        W25293  14.152  19.877  12.303 -0.1583  0.4260  0.2839
 5014W        W25294  14.166  16.846  11.701 -0.1142  0.1967  0.1665
 5015W        W25295   7.942  13.211  11.026  0.0260  0.0991  0.0836
 5016W        W25296   9.636  14.064   3.973 -0.0622 -0.0873 -0.1222
 5017W        W25297  12.062  18.818   2.639 -0.1023  0.2338  0.2415
 5018W        W25298  19.314  10.444  13.572  0.1103 -0.0651 -0.2323
 5019W        W25299   2.033   4.526   3.100  0.1713 -0.3666 -0.1700
 5020W        W25300   3.749   5.551   1.969  0.4243  0.5698  0.1031
 5021W        W25301   9.509  19.303   4.527 -0.0366  0.0220  0.1219
 5022W        W25302  13.267   7.183  11.346  0.0250  0.2385 -0.0735
 5023W        W25303   4.549   7.668  10.538 -0.2926  0.3332  0.2164
 5024W        W25304   9.302  13.216   4.025 -0.0460  0.0520 -0.0176
 5025W        W25305   6.652   0.395  12.063 -0.3919  0.0462  0.0525
 5026W        W25306   1.690   9.501   3.363  0.1133  0.0025  0.2828
 5027W        W25307   8.107   6.882   2.683 -0.2895  0.1321  0.0845
 5028W        W25308   5.108   1.379   3.340  0.3314 -0.1520  0.2519
 5029W        W25309   8.101  19.311  10.725 -0.2407  0.0199  0.1634
 5030W        W25310   0.949  10.342   2.894  0.0066 -0.3235 -0.0337
 5031W        W25311   2.602  19.702   1.523 -0.0751 -0.1135  0.1890
 5032W        W25312   5.193  16.623  13.648 -0.0500 -0.0346  0.3044
 5033W        W25313   1.046   9.414  10.272 -0.0731  0.1311  0.2136
 5034W        W25314   2.138  16.603  12.913 -0.0166 -0.2360  0.0312
 5035W        W25315   3.520   8.737   0.454 -0.0143  0.0138  0.2580
 5036W        W25316   7.476  11.459  13.263  0.1283 -0.2082  0.0277
 5037W        W25317  12.625  11.790  13.786  0.1207  0.0470 -0.2848
 5038W        W25318   5.514   9.754   2.657 -0.0416  0.0879  0.1495
 5039W        W25319  17.700  16.191   9.571 -0.3451 -0.3124  0.0804
 5040W        W25320  19.208   0.140  10.111 -0.0266 -0.2583  0.0834
 5041W        W25321  15.160  19.007  12.187  0.1031 -0.1423 -0.6065
 5042W        W25322   4.627   9.456   1.871 -0.1022 -0.0288 -0.1149
 5043W        W25323  10.060   1.925   3.970  0.2953  0.0778  0.0697
 5044W        W25324  19.790   6.831  11.266  0.1996 -0.0502  0.0270
 5045W        W25325   1.085   7.553  10.404 -0.0628 -0.1796 -0.0410
 5046W        W25326   7.976  11.856   0.811 -0.0275 -0.1938 -0.1833
 5047W        W25327  19.102  16.925   1.813  0.0035  0.0411 -0.0650
 5048W        W25328  19.177  15.847   1.414 -0.1103 -0.2976  0.3631
 5049W        W25329  10.235  12.012  10.591 -0.0437  0.1186  0.3105
 5050W        W25330  13.430  17.287   0.381  0.1891 -0.0495 -0.0384
 5051W        W25331   3.363  17.822   3.806  0.0896 -0.0269 -0.0960
 5052W        W25332   9.989  11.583   3.884 -0.1406 -0.2044 -0.1666
 5053W        W25333  13.260   1.085   1.936 -0.0823 -0.0353  0.0043
 5054W        W25334  19.725  15.935   1.212  0.0023  0.3995 -0.1804
 5055W        W25335   6.597  12.590  12.781  0.4421  0.3624 -0.1517
 5056W        W25336  12.412  11.500  11.992 -0.0846 -0.0489 -0.0564
 5057W        W25337  12.931   2.214  12.254  0.3043 -0.3015 -0.2164
 5058W        W25338   8.179   3.591   3.386 -0.1240  0.0234 -0.3153
 5059W        W25339   4.616  14.211   0.807 -0.4304  0.1489 -0.1732
 5060W        W25340   4.904   5.797   0.151 -0.1036  0.0007 -0.0902
 5061W        W25341  19.420   5.494   1.531 -0.0339  0.1179  0.1067
 5062W        W25342  13.208   5.474   0.989 -0.2263 -0.0324 -0.2055
 5063W        W25343  16.707  10.009   2.648 -0.0125 -0.3943 -0.1719
 5064W        W25344   4.787  16.760   3.579  0.0410  0.3078 -0.1183
 5065W        W25345  16.307  18.866   0.505  0.1434 -0.1222 -0.0828
 5066W        W25346  14.694  11.811  10.925  0.0297  0.1789 -0.0718
 5067W        W25347   9.635  13.738  12.738  0.3622 -0.1076 -0.0130
 5068W        W25348   3.932   7.480  11.786  0.1443  0.0806 -0.1204
 5069W        W25349   3.770  12.801   3.389  0.3878 -0.0017 -0.3329
 5070W        W25350  17.711  11.698  10.547 -0.0445 -0.1549  0.0868
 5071W        W25351   1.144  12.424   9.544 -0.1533  0.0022 -0.0730
 5072W        W25352  18.520  12.716   3.125  0.1620 -0.3548  0.2842
 5073W        W25353  11.422   7.671  13.290 -0.0187 -0.3079  0.0565
 5074W        W25354   3.143   5.404  10.273 -0.0173 -0.5065  0.0648
 5075W        W25355   5.675  17.660   2.956 -0.2121  0.1721 -0.3344
 5076W        W25356   0.861  16.612   1.703 -0.1131  0.0890 -0.1238
 5077W        W25357  10.232   2.857   3.426 -0.0644 -0.0366 -0.2051
 5078W        W25358   6.378  17.947  12.179  0.1628  0.1893  0.1355
 5079W        W25359   7.316   8.819  10.568 -0.1322 -0.4360 -0.0142
 5080W        W25360  16.954   4.169   3.554  0.0772  0.0826  0.0527
 5081W        W25361   0.253   3.481   2.375 -0.0134  0.0831  0.2905
 5082W        W25362   7.592   1.682  10.864  0.0117 -0.0293 -0.4322
 5083W        W25363   8.685   3.764  11.131  0.1150  0.0881  0.4993
 5084W        W25364   2.025   7.688  10.588 -0.0249 -0.0034 -0.2104
 5085W        W25365  11.378  17.507   3.443  0.2879  0.1535  0.2219
 5086W        W25366   6.493  11.573   2.420 -0.1269 -0.0736  0.1261
 5087W        W25367   7.243  14.883  12.521 -0.0229 -0.0734  0.1087
 5088W        W25368   6.604  17.294   1.999 -0.0369 -0.1912  0.0426
 5089W        W25369  13.299   1.288   2.953 -0.0372  0.1014  0.0187
 5090W        W25370   4.005   7.522   1.620 -0.0985  0.0806  0.1228
 5091W        W25371   7.757  13.537   1.525  0.1864 -0.0530 -0.0086
 5092W        W25372   9.730   0.968   0.927 -0.1899  0.0816 -0.0118
 5093W        W25373  18.685  16.579   1.294 -0.1474  0.3668 -0.0463
 5094W        W25374  13.316  14.176   2.318 -0.0710 -0.3330 -0.0109
 5095W        W25375  16.693   2.516  10.050 -0.0964  0.2026 -0.2187
 5096W        W25376   6.822  19.443   1.148 -0.0249  0.1909 -0.3246
 5097W        W25377   5.473  15.294   9.779  0.1871 -0.0247 -0.2530
 5098W        W25378   7.049  13.955  11.401 -0.3848 -0.0426 -0.2707
 5099W        W25379   4.567  11.229   3.499 -0.0205 -0.3265 -0.1529
 5100W        W25380  14.953  12.784  13.325 -0.0640  0.2020  0.1680
 5101W        W25381   7.432  14.957  13.293  0.1319  0.1363  0.5160
 5102W        W25382  13.601  16.872   0.215  0.1505  0.1030 -0.3750
 5103W        W25383   1.048  16.159   1.404  0.4890  0.0803  0.3309
 5104W        W25384  11.377  11.622   0.713 -0.3853  0.0082 -0.0855
 5105W        W25385  18.212   4.061  10.527  0.1763 -0.0386 -0.0479
 5106W        W25386  14.105  10.455  10.478 -0.2200  0.2485 -0.1668
 5107W        W25387   7.736  10.726   2.397  0.1234 -0.1015 -0.1415
 5108W        W25388   4.428  17.408   0.660 -0.1708  0.1530 -0.0468
 5109W        W25389   5.539   9.448   0.898 -0.1644  0.0521 -0.2948
 5110W        W25390  18.970  12.931  12.091 -0.3153 -0.0416 -0.0177
 5111W        W25391  19.222  14.308  11.662 -0.2220 -0.3179 -0.0670
 5112W        W25392  18.762  13.816   0.901 -0.2352  0.4539 -0.1444
 5113W        W25393   5.658   8.703  12.926 -0.0628  0.0262 -0.0317
 5114W        W25394   9.104   9.807  11.653 -0.1358  0.3584 -0.0938
 5115W        W25395  18.095  12.465  13.362  0.4383  0.1992 -0.0953
 5116W        W25396  11.484  16.719  12.189 -0.3538  0.1727  0.2720
 5117W        W25397   6.488   8.680   0.126 -0.0807  0.1717 -0.2541
 5118W        W25398   1.336  12.168   1.920  0.1502 -0.1868  0.1133
 5119W        W25399  10.998   1.758   2.328 -0.0291 -0.3602 -0.1142
 5120W        W25400   0.330   4.908  11.341 -0.2200  0.0881  0.1586
 5121W        W25401   0.248   2.928   4.941  0.1057 -0.0628 -0.0043
 5122W        W25402   2.098  18.098  13.764  0.0248 -0.0783  0.0297
 5123W        W25403   7.882   2.666   3.501 -0.0765 -0.2427  0.3257
 5124W        W25404  10.235  14.498   0.102 -0.2110  0.0759  0.0322
 5125W        W25405  15.501   1.539   2.157 -0.0813 -0.1172 -0.1498
 5126W        W25406   7.980  14.957  10.676  0.2774 -0.2522 -0.1292
 5127W        W25407   4.035  15.020   0.581  0.0277 -0.0421  0.0215
 5128W        W25408  10.021   5.311   5.000  0.0574 -0.1166 -0.3850
 5129W        W25409  17.165   3.777   0.163  0.1016  0.1738  0.0367
 5130W        W25410   9.110  14.680  10.069  0.0958 -0.0703  0.5106
 5131W        W25411  14.068  12.134  11.946  0.3518  0.1221  0.0545
 5132W        W25412  15.196  12.879   9.966 -0.0318 -0.1181 -0.2618
 5133W        W25413   5.808   1.978   0.671  0.3013 -0.3857 -0.0770
 5134W        W25414   2.259  19.872  13.304  0.3131  0.0625 -0.3183
 5135W        W25415   2.299   0.136  11.761  0.0119 -0.2178  0.1229
 5136W        W25416   1.846   3.027  12.449  0.2603  0.1681  0.3984
 5137W        W25417  17.291   2.638  12.347  0.1793  0.0843 -0.2643
 5138W        W25418   6.877  15.156   2.982  0.2123 -0.1205  0.0175
 5139W        W25419  17.602  12.022   1.971 -0.1102 -0.1959 -0.1688
 5140W        W25420  18.535   6.638   2.244  0.1087  0.0907  0.0828
 5141W        W25421   1.491  13.256   2.132 -0.0499 -0.1724 -0.4217
 5142W        W25422   2.835   3.737  10.982 -0.3279  0.3071  0.1032
 5143W        W25423   0.143  14.266   1.540  0.1410  0.4348  0.4954
 5144W        W25424   1.512  11.163   9.125 -0.1569 -0.2555 -0.0763
 5145W        W25425  15.739  10.165   9.020  0.1779  0.0053 -0.2534
 5146W        W25426   1.256   4.946   0.985 -0.0266 -0.1897 -0.1254
 5147W        W25427  12.425   3.496   3.185  0.0562  0.1612  0.0399
 5148W        W25428   0.869  15.082   3.882  0.0595 -0.1078 -0.0379
 5149W        W25429  10.847   6.980   2.963  0.0796 -0.0616  0.1570
 5150W        W25430  13.559   3.174   9.330 -0.5020 -0.2220  0.2284
 5151W        W25431   5.259  16.528   0.275 -0.1731 -0.0507 -0.0813
 5152W        W25432  16.232  19.105  12.446 -0.0272  0.0001 -0.0095
 5153W        W25433   4.339   5.034   2.758  0.2541 -0.1065  0.2294
 5154W        W25434   9.155   1.909  12.661  0.0937 -0.3268  0.2448
 5155W        W25435  14.184  13.780  10.080  0.3418 -0.2086  0.0767
 5156W        W25436   6.312   1.574   3.577 -0.2086  0.3468 -0.1910
 5157W        W25437   1.876  10.794   1.636  0.0422  0.2021  0.2175
 5158W        W25438   3.259  14.560  11.990 -0.1191  0.2448 -0.0171
 5159W        W25439  13.747  18.711  11.635  0.2478  0.2138  0.2945
 5160W        W25440   0.232   9.802   0.436 -0.0286 -0.2366  0.1380
 5161W        W25441  11.770  17.497   1.228 -0.0643 -0.0796 -0.0656
 5162W        W25442   8.854  12.045  12.948  0.1201 -0.1718 -0.1942
 5163W        W25443   6.680   9.245  12.373 -0.0819 -0.0624  0.0331
 5164W        W25444   6.419  18.538  12.937 -0.1089  0.0583  0.0296
 5165W        W25445   7.760  14.921   0.068  0.1405 -0.1501  0.1137
 5166W        W25446  18.604   4.800   2.528  0.1664  0.0126  0.1794
 5167W        W25447   2.805  12.963  13.554 -0.0718 -0.1815  0.2655
 5168W        W25448  16.528   0.877   1.336 -0.3076  0.2224  0.0520
 5169W        W25449  18.630   2.026  10.655  0.1485  0.1094  0.0319
 5170W        W25450   9.597   8.739  11.509  0.0649 -0.2899 -0.1559
 5171W        W25451   2.582  17.438  10.527 -0.0012 -0.1673  0.0913
 5172W        W25452  10.813   4.569  12.928  0.3459  0.0496  0.1650
 5173W        W25453  18.186  12.787   1.114  0.0218  0.3112 -0.1116
 5174W        W25454   3.417  16.829   2.167  0.0243 -0.2377 -0.0303
 5175W        W25455   6.787   4.893   2.208 -0.0757  0.1879 -0.1224
 5176W        W25456   3.572  17.109   3.850 -0.1542  0.2770 -0.2481
 5177W        W25457  15.805   3.746   0.215  0.0022 -0.0154 -0.0396
 5178W        W25458   6.447   5.067  12.235 -0.0740 -0.0918 -0.1083
 5179W        W25459   7.115   9.333   0.323  0.2038 -0.0782 -0.3152
 5180W        W25460   3.381   8.697  12.067  0.1315 -0.0633  0.3320
 5181W        W25461  12.865   4.842   3.816  0.1148  0.0364  0.1192
 5182W        W25462   9.909   9.361   3.082 -0.0664 -0.2419  0.2969
 5183W        W25463  17.519   4.665   2.942  0.3967  0.2019 -0.1720
 5184W        W25464  13.435   4.679   1.250 -0.1743 -0.0129 -0.0762
 5185W        W25465   6.726   7.121  12.411 -0.0119  0.0946 -0.1268
 5186W        W25466  12.546  16.556   3.888  0.1303  0.1809 -0.0519
 5187W        W25467  15.358  10.861  10.966 -0.1356  0.2236  0.0364
 5188W        W25468  19.419  13.430  12.656 -0.2032  0.0005 -0.1575
 5189W        W25469  16.373  19.118   3.264 -0.1594  0.0092  0.0319
 5190W        W25470  17.862   2.583   1.368  0.0154  0.2515 -0.0751
 5191W        W25471   1.991  19.080  12.312 -0.3342 -0.1299 -0.2685
 5192W        W25472  10.377   0.194   9.556  0.0290 -0.0591 -0.2744
 5193W        W25473   4.482  12.081   4.088  0.0668  0.0472 -0.2013
 5194W        W25474   2.339  12.032  11.952 -0.0933  0.1445  0.1238
 5195W        W25475  15.618   1.239   0.807 -0.0384 -0.3443  0.0232
 5196W        W25476   1.034  12.686   9.159 -0.1499  0.0214  0.0379
 5197W        W25477   2.604   3.094   3.035 -0.1812  0.0321 -0.0782
 5198W        W25478  10.259   0.074   1.398 -0.0806 -0.3405  0.2904
 5199W        W25479   2.327  14.635  13.847  0.1933 -0.0860  0.0819
 5200W        W25480   1.895   8.384   0.329 -0.3960 -0.0641  0.0857
 5201W        W25481   6.182  11.736  10.847  0.0505 -0.1191  0.3292
 5202W        W25482   7.049  16.575   2.442 -0.3236 -0.1240 -0.0305
 5203W        W25483  19.533   1.004   0.857 -0.0128  0.2178 -0.1276
 5204W        W25484   4.446   7.152   0.281 -0.1214  0.1232 -0.1191
 5205W        W25485  14.347  17.442   1.763  0.0747  0.1135 -0.0334
 5206W        W25486  12.183  12.527  12.357  0.0948 -0.1164 -0.4349
 5207W        W25487  19.794  16.325   0.858  0.4706  0.0266  0.0571
 5208W        W25488   6.414  15.389   2.935  0.2347 -0.2536 -0.2704
 5209W        W25489  19.935   0.411  12.946 -0.2845 -0.0040 -0.1004
 5210W        W25490   4.200  14.019   0.634  0.0195  0.0481  0.2659
 5211W        W25491   5.999   0.162  12.118 -0.1915  0.1890 -0.0386
 5212W        W25492  12.726  16.523  12.760  0.4127  0.0612  0.2664
 5213W        W25493   5.496   6.099   4.003 -0.0972  0.0260 -0.4591
 5214W        W25494  12.334  10.062   2.401 -0.0492 -0.0041  0.0468
 5215W        W25495  18.630  14.348  11.778  0.0210  0.4001  0.1449
 5216W        W25496  19.347   4.130   2.149  0.1542  0.1983 -0.0036
 5217W        W25497  19.851   6.157   2.850  0.2292  0.1875  0.1729
 5218W        W25498   2.140  16.262  10.842  0.0505 -0.0286  0.1663
 5219W        W25499  10.393  12.580   0.776  0.0652 -0.3525 -0.5604
 5220W        W25500  11.767   9.701   1.923 -0.3165  0.0275  0.0761
 5221W        W25501   2.422  16.840  11.821  0.1918 -0.3095  0.1526
 5222W        W25502  10.081   5.342   0.739  0.0374  0.1964  0.3459
 5223W        W25503   5.607  18.504   1.866 -0.1260 -0.2948 -0.3217
 5224W        W25504   3.012  10.398  12.863 -0.0887 -0.1612  0.1928
 5225W        W25505  15.032   6.770   3.739 -0.1824  0.0842 -0.1051
 5226W        W25506   2.389  15.784  11.910  0.0119 -0.3635  0.3610
 5227W        W25507  19.164  14.105  10.234 -0.0051  0.0762  0.3322
 5228W        W25508   8.332  17.547   1.343  0.2114 -0.2896  0.3743
 5229W        W25509   5.005  14.564  12.338  0.1662  0.0047  0.0789
 5230W        W25510   3.537  13.820   2.212  0.2354  0.3743  0.1458
 5231W        W25511  17.208  17.231  10.535 -0.3669  0.3290 -0.0395
 5232W        W25512   5.907   1.612   1.098  0.3116  0.2104 -0.2405
 5233W        W25513   9.166  12.155  12.613 -0.2769  0.0695 -0.2399
 5234W        W25514  15.004  17.156  11.666  0.0268  0.0603  0.1025
 5235W        W25515  19.548   6.084   1.338  0.2618 -0.0804  0.0843
 5236W        W25516   1.022  17.605   1.436  0.2264 -0.1645 -0.2275
 5237W        W25517  14.257  19.762  10.393 -0.0786 -0.2569  0.2704
 5238W        W25518  10.217   0.398  11.070  0.2295 -0.1549 -0.2772
 5239W        W25519  19.596   6.301  11.644 -0.1023 -0.0299 -0.2137
 5240W        W25520  17.369   0.368  10.024  0.0553 -0.1839 -0.0583
 5241W        W25521   1.910   2.744   1.291 -0.0900  0.0077  0.1048
 5242W        W25522  19.228   2.543   0.424  0.1353 -0.2729 -0.3677
 5243W        W25523   4.504   7.674   3.777  0.0307  0.0343  0.0695
 5244W        W25524  14.263   5.874   3.153  0.1651 -0.0545 -0.2479
 5245W        W25525   3.359  18.804   2.436 -0.0227 -0.0136 -0.2930
 5246W        W25526   3.274  10.718   4.541  0.1988  0.1970  0.0894
 5247W        W25527   5.680   2.800  11.020  0.2075  0.2391  0.2053
 5248W        W25528  19.408   5.244   3.308  0.3395 -0.1531 -0.1768
 5249W        W25529   2.657  12.294  10.742  0.2125 -0.0490 -0.0102
 5250W        W25530  18.011   9.178  11.309  0.2367 -0.0979 -0.1130
 5251W        W25531   8.053  11.075  10.366  0.1966  0.0630  0.0150
 5252W        W25532   1.888   2.012   2.561  0.3205  0.4871 -0.1699
 5253W        W25533   5.650   3.219  12.431  0.1359  0.4886  0.0797
 5254W        W25534  11.560  15.812  13.806 -0.6049  0.7271 -0.2186
 5255W        W25535   7.576  16.676  12.388 -0.0185 -0.1264 -0.3818
 5256W        W25536   8.786  11.106  12.052  0.0443 -0.0494  0.2629
 5257W        W25537   2.757  15.505  11.667  0.3414 -0.0126 -0.3232
 5258W        W25538  13.929  10.963   2.495 -0.1871 -0.0014  0.1545
 5259W        W25539   6.376   1.962  12.116  0.2290  0.0682 -0.1207
 5260W        W25540   9.554   0.534   1.918  0.0854  0.2791 -0.2091
 5261W        W25541  10.502  11.867   3.761 -0.1634 -0.1085  0.3221
 5262W        W25542   2.608  12.655   1.377 -0.0160  0.0998  0.0875
 5263W        W25543  18.864  17.541   0.871  0.0550  0.1556 -0.1029
 5264W        W25544  18.670   4.307  13.106 -0.0436  0.2158 -0.1455
 5265W        W25545  18.554   8.199   3.950 -0.3379  0.0279  0.3170
 5266W        W25546   4.705   2.903   0.901 -0.1189  0.0596  0.0620
 5267W        W25547  13.260  12.874   1.015 -0.1555  0.0941 -0.2770
 5268W        W25548   7.638  16.299  12.770  0.3212 -0.0852 -0.1341
 5269W        W25549   1.481  11.255  12.562  0.2703  0.2276  0.2560
 5270W        W25550  13.547   8.932  12.867  0.2120  0.0938  0.2299
 5271W        W25551  13.044   2.348  11.759  0.2682 -0.1634  0.3979
 5272W        W25552  14.855  15.379   2.390  0.1237 -0.0273  0.0269
 5273W        W25553  11.761  17.204  12.927  0.0111  0.0402  0.3529
 5274W        W25554   1.373   1.204  13.033  0.4079 -0.0247 -0.2506
 5275W        W25555   1.706   0.378   3.125  0.0926 -0.0151  0.0129
 5276W        W25556  11.987  16.442   9.705 -0.3967  0.3791 -0.1662
 5277W        W25557  19.381   8.360   1.310  0.0383  0.1872  0.3192
 5278W        W25558  11.786  11.193  12.493  0.0097  0.2414 -0.1554
 5279W        W25559   6.413  18.538   3.247 -0.0623 -0.2831 -0.0560
 5280W        W25560   8.954   3.721   1.618  0.0049  0.1057  0.0868
 5281W        W25561  18.565  11.818   2.969 -0.0654  0.2069  0.0977
 5282W        W25562  19.859   4.747   3.189  0.2830 -0.2694 -0.2519
 5283W        W25563   8.882   2.013   0.116  0.2899 -0.0203  0.0938
 5284W        W25564   3.536  13.188  13.165 -0.0953 -0.2714  0.0997
 5285W        W25565   0.823   9.566  12.501  0.0957 -0.2130  0.2958
 5286W        W25566   0.364   5.543   1.294 -0.0556  0.0121 -0.1014
 5287W        W25567   9.244  17.315   0.279  0.0384 -0.0416 -0.1665
 5288W        W25568  10.383   4.453   0.825  0.4114  0.3911 -0.1140
 5289W        W25569  13.682  10.501   3.228 -0.1542 -0.0834  0.1148
 5290W        W25570  18.656  19.588   2.954  0.1585  0.2993  0.3531
 5291W        W25571   8.779   7.677   9.842  0.1357 -0.1624 -0.3036
 5292W        W25572   6.512  16.355  10.397 -0.0610 -0.1543 -0.2535
 5293W        W25573  11.772   0.603  12.485 -0.3074 -0.1071 -0.0903
 5294W        W25574  19.156  10.383  12.454  0.1247  0.0127 -0.3971
 5295W        W25575   8.280  14.627   3.604 -0.2533  0.1382  0.2458
 5296W        W25576   5.645   7.972   1.696 -0.3256  0.1332 -0.1164
 5297W        W25577  10.211   1.914  11.873 -0.0236 -0.1952  0.0787
 5298W        W25578  15.052   6.715  10.056  0.4348  0.1430  0.0417
 5299W        W25579  16.087   2.933  10.307 -0.2829 -0.2075  0.0076
 5300W        W25580  16.991  13.854  11.684  0.0529  0.1917 -0.1457
 5301W        W25581  13.279   9.981  13.440 -0.1453 -0.1540  0.0279
 5302W        W25582  19.263  19.089  11.901  0.0581  0.0410 -0.1354
 5303W        W25583   9.265   0.198   2.834  0.0814  0.1320  0.1190
 5304W        W25584   1.623  15.295   2.797  0.1435 -0.1697 -0.0226
 5305W        W25585   9.603  18.695  11.787  0.0967 -0.1023 -0.2464
 5306W        W25586   4.122  11.964   1.899 -0.3870  0.0216  0.2041
 5307W        W25587   8.082  16.454  11.906 -0.0834 -0.2798 -0.1104
 5308W        W25588   0.812  15.924   3.707  0.1449  0.2767  0.1405
 5309W        W25589   9.300   0.623  11.607  0.0386  0.1761 -0.2699
 5310W        W25590   7.494  11.902   4.391  0.0959  0.1841 -0.3597
 5311W        W25591   3.387   8.374   9.633 -0.0123 -0.1178  0.4973
 5312W        W25592  10.540   4.517   1.288 -0.3170  0.1339 -0.0462
 5313W        W25593  15.746   7.051  11.426  0.1216 -0.0498 -0.1048
 5314W        W25594  19.548  17.058  11.488  0.1751 -0.0265  0.0519
 5315W        W25595   5.778  12.123  12.481  0.1191 -0.3811 -0.1211
 5316W        W25596   1.842  14.859   2.034  0.0527  0.1396 -0.3490
 5317W        W25597   0.297  11.810   3.081  0.1080  0.3012  0.1320
 5318W        W25598  18.369  10.879  11.665 -0.1518  0.0898 -0.0319
 5319W        W25599  14.477   2.892   2.572 -0.1279 -0.2745 -0.1358
 5320W        W25600  19.390  15.719  11.727 -0.1032  0.4400 -0.2301
 5321W        W25601  17.574   1.548   8.763  0.1019  0.1419 -0.6122
 5322W        W25602  19.465  18.707   1.383  0.0022  0.1032  0.1777
 5323W        W25603   4.807   3.912   1.837  0.1559  0.0433 -0.1374
 5324W        W25604   9.016  16.406   3.830  0.2298  0.0237  0.3143
 5325W        W25605   7.081  18.580   0.204  0.0926 -0.3587 -0.0110
 5326W        W25606   7.874   4.540   3.030  0.0951  0.1058  0.1377
 5327W        W25607   6.195   5.386  11.952 -0.1010 -0.0018  0.0891
 5328W        W25608  10.221  10.394   1.656  0.1858  0.1281  0.2191
 5329W        W25609  19.236   4.984   0.202  0.0485 -0.1444 -0.0399
 5330W        W25610  17.069  18.483   2.940 -0.2843 -0.0367 -0.1411
 5331W        W25611   6.883  19.008   2.113 -0.0664  0.0014  0.1699
 5332W        W25612  16.157  16.053  13.377 -0.1621  0.1721  0.0938
 5333W        W25613   4.329   4.919  12.798 -0.0711  0.1846 -0.2048
 5334W        W25614   6.646  11.101   4.213  0.0720  0.2334 -0.0644
 5335W        W25615  19.097   0.539   2.545  0.0915 -0.0117  0.1320
 5336W        W25616  16.038   8.790  12.784  0.2703 -0.1196 -0.0861
 5337W        W25617   8.740  19.356  13.325 -0.3303 -0.0800 -0.0984
 5338W        W25618   3.824  16.863  10.379  0.0701  0.0387  0.1353
 5339W        W25619   0.010  14.342  10.889  0.0857 -0.0087  0.1992
 5340W        W25620  10.596   4.006   0.454 -0.3475 -0.2221  0.0278
 5341W        W25621  11.814   6.034  11.518  0.1834 -0.0948  0.0732
 5342W        W25622   9.297   1.586   0.785  0.1593  0.1020 -0.0516
 5343W        W25623   0.848  11.147   3.883 -0.0921 -0.1424 -0.1714
 5344W        W25624   5.539   6.433   1.901 -0.0752 -0.0515  0.2523
 5345W        W25625   2.663   4.893   0.145  0.1236  0.1105 -0.1918
 5346W        W25626  14.631  13.222   0.835  0.3675 -0.3842  0.0047
 5347W        W25627  13.584  12.263  10.350  0.0994 -0.1061 -0.4116
 5348W        W25628  13.234   3.822  11.786 -0.2058  0.0073 -0.0253
 5349W        W25629  14.846  17.385   0.489 -0.1046  0.3581  0.2043
 5350W        W25630  13.790  15.222   3.555  0.1302  0.0012  0.0952
 5351W        W25631  11.971   7.016  11.597  0.4209 -0.2345 -0.2876
 5352W        W25632   4.399   1.737  13.057 -0.2730  0.3250 -0.1799
 5353W        W25633  13.264   8.889   1.532  0.1287 -0.1488 -0.2925
 5354W        W25634  14.705   8.705   2.873  0.0852  0.0618 -0.2270
 5355W        W25635   0.053   3.271   0.865 -0.3183 -0.2339  0.0696
 5356W        W25636  11.294   3.995  12.404  0.2775 -0.0451  0.2006
 5357W        W25637  18.591  19.629   0.318  0.2442  0.1352 -0.1429
 5358W        W25638  14.088   0.178   2.420  0.0613 -0.1684 -0.0789
 5359W        W25639   0.954  16.724  12.480  0.0023 -0.1802  0.0400
 5360W        W25640   4.382  19.796   3.852  0.1847  0.5353 -0.3950
 5361W        W25641  15.679  11.486   2.638  0.1638  0.1751  0.2597
 5362W        W25642   4.123   5.959   4.237  0.1475 -0.1189 -0.0737
 5363W        W25643  12.886   5.844   1.007  0.0452 -0.1031 -0.1305
 5364W        W25644   7.929  12.104   3.486  0.0047  0.3455  0.1041
 5365W        W25645  10.306   8.759  11.087 -0.0127 -0.1512  0.0891
 5366W        W25646  12.214  15.423  12.974  0.1609 -0.3782  0.1638
 5367W        W25647   0.936   9.494   3.776  0.4164  0.2249  0.0349
 5368W        W25648  15.581   9.912   2.788 -0.0469 -0.3922 -0.1101
 5369W        W25649   5.560  14.036   3.752  0.1846  0.1605  0.3387
 5370W        W25650   0.167  17.339   0.894 -0.2382 -0.1655  0.1829
 5371W        W25651   5.596   6.757  11.195  0.1898 -0.0304  0.3072
 5372W        W25652  11.013   6.453   2.075  0.2020  0.2855  0.1335
 5373W        W25653   7.656   0.125   0.884  0.0709  0.1270 -0.2182
 5374W        W25654  17.113  11.927   2.651 -0.0754 -0.3110 -0.3204
 5375W        W25655   7.259   0.326   3.868  0.3974 -0.4423 -0.3217
 5376W        W25656  14.148  10.703  12.264 -0.2159 -0.2911 -0.0488
 5377W        W25657  13.245   4.551   2.114  0.0035  0.1564  0.1678
 5378W        W25658   0.386   8.263   2.747 -0.2252 -0.1145 -0.0441
 5379W        W25659  14.582   5.642  12.138  0.2061  0.2287 -0.0312
 5380W        W25660   8.873   3.432   4.018 -0.1024 -0.1032 -0.0065
 5381W        W25661  12.305   5.593  13.796 -0.0624  0.2510  0.0449
 5382W        W25662   4.178  19.540  13.252 -0.0125 -0.2267  0.0709
 5383W        W25663  10.581   6.353  10.798  0.1111  0.3398 -0.2063
 5384W        W25664  10.738   1.090   0.939  0.3629 -0.0101  0.0277
 5385W        W25665   0.870   3.120  11.340  0.1764 -0.1449 -0.1519
 5386W        W25666   0.843   0.005  11.155 -0.4379 -0.0473  0.0665
 5387W        W25667  14.733   8.223  11.308 -0.0170  0.0414 -0.0237
 5388W        W25668  15.296  17.352   1.542 -0.0971 -0.1686 -0.1988
 5389W        W25669  15.262  14.984   1.024 -0.1167  0.0212 -0.1938
 5390W        W25670   8.070  15.201   2.387  0.3276  0.2067  0.1642
 5391W        W25671  16.022   7.969  12.014 -0.0688  0.0680 -0.1967
 5392W        W25672  12.351  17.878  13.402 -0.0989  0.0734  0.1186
 5393W        W25673   0.973  15.531  13.225  0.2698  0.1843  0.1230
 5394W        W25674  10.974   8.411   3.195 -0.2531  0.2146  0.0888
 5395W        W25675   2.736   0.906  11.577  0.1344  0.2789  0.0515
 5396W        W25676   4.498  12.589  11.161  0.0791  0.0190 -0.1725
 5397W        W25677  14.836  19.798   0.988 -0.0547  0.3011  0.2318
 5398W        W25678  14.303  11.688   0.810  0.1534 -0.1513  0.1475
 5399W        W25679  16.453  11.574   4.275 -0.0926 -0.0249  0.0124
 5400W        W25680   3.234   4.405   1.478  0.0767 -0.1637  0.2253
 5401W        W25681  10.254   1.177  13.747 -0.4467  0.1620 -0.1611
 5402W        W25682  11.257   1.446  12.046 -0.2599 -0.1117  0.0786
 5403W        W25683   6.850  10.813  13.773  0.1023 -0.0764 -0.0666
 5404W        W25684  12.799  16.110   0.269  0.0034  0.2121  0.2851
 5405W        W25685  18.832  17.095   1.429 -0.2877 -0.0769  0.0973
 5406W        W25686   8.076   2.396  13.601 -0.0300 -0.1815  0.0355
 5407W        W25687  10.401   7.917   1.447 -0.0022  0.0920 -0.2199
 5408W        W25688   4.886   3.046  10.575 -0.0655  0.3655 -0.0481
 5409W        W25689   7.153  17.053   3.547  0.0489 -0.1370  0.3450
 5410W        W25690   4.427  16.767   4.293 -0.0586  0.1755  0.0209
 5411W        W25691   3.518  15.721   1.858  0.0701 -0.2517 -0.2216
 5412W        W25692  12.139  18.873   3.556  0.0216  0.1963  0.1760
 5413W        W25693   6.287   1.444  12.165 -0.1670  0.0632  0.2682
 5414W        W25694   5.407  12.278   3.040 -0.2609  0.2143 -0.3104
 5415W        W25695   7.512  16.813   2.052  0.1114 -0.0837  0.0213
 5416W        W25696  13.129  18.739   1.213  0.1212  0.2192 -0.1663
 5417W        W25697   5.895   5.822   3.809 -0.0777 -0.0163 -0.1765
 5418W        W25698  12.443   5.817   0.722  0.0496  0.1004 -0.1901
 5419W        W25699   0.298  10.908   0.288 -0.0325  0.0844 -0.1034
 5420W        W25700   6.535  18.913   1.430 -0.2820  0.1089  0.0452
 5421W        W25701   4.459  10.749   2.399 -0.0845  0.0418 -0.1592
 5422W        W25702   1.858   4.546   0.206 -0.1112 -0.1434  0.0810
 5423W        W25703  18.088   7.535  10.985 -0.0537  0.1266  0.0516
 5424W        W25704  15.394  14.607  11.556  0.2800 -0.0869 -0.2070
 5425W        W25705   9.032  19.115   0.558  0.1047 -0.2463  0.1521
 5426W        W25706  12.398   8.671   0.725  0.0784  0.0561  0.0721
 5427W        W25707  19.500   6.797  13.242  0.1728  0.2790  0.7425
 5428W        W25708   5.842  15.981   2.141 -0.0459 -0.1482  0.1843
 5429W        W25709  19.719  16.161  11.499  0.0565  0.0727  0.0934
 5430W        W25710  13.538  15.297  12.819  0.2269 -0.2811  0.0382
 5431W        W25711   9.632   1.138  13.751  0.1661 -0.3319 -0.1889
 5432W        W25712   6.633  14.519  11.186 -0.0707  0.1872 -0.2543
 5433W        W25713  11.132   8.520   1.609 -0.2031  0.3302  0.0119
 5434W        W25714   8.152  18.069   1.955 -0.3444 -0.0463  0.2385
 5435W        W25715   5.940  12.916   3.476 -0.1391  0.0902 -0.0549
 5436W        W25716   0.678  19.351  12.230 -0.0411 -0.2893 -0.0347
 5437W        W25717  14.973   2.295   0.028  0.1724  0.2681  0.0283
 5438W        W25718   6.000   6.551   0.521 -0.1372  0.0847 -0.0768
 5439W        W25719  12.708   8.842  11.765  0.3229 -0.1621 -0.1891
 5440W        W25720  19.723  15.710  10.187  0.0410  0.1944 -0.0779
 5441W        W25721  15.124   4.087   2.903 -0.0924  0.0346 -0.0367
 5442W        W25722  16.637   8.417   0.172 -0.2368 -0.2052 -0.0383
 5443W        W25723   4.066  13.127   1.146 -0.1796  0.2210  0.0452
 5444W        W25724  10.792  19.175  12.020  0.1110  0.2770 -0.0020
 5445W        W25725  11.089   8.824   3.708 -0.0109  0.2423 -0.1192
 5446W        W25726  17.085   5.052  11.170 -0.0095 -0.3785 -0.0810
 5447W        W25727  14.053  15.192  12.700 -0.1131  0.0575  0.0275
 5448W        W25728  12.899  11.940  13.318  0.0228 -0.0133 -0.0048
 5449W        W25729   0.141  13.368  11.460 -0.1885  0.1010 -0.2210
 5450W        W25730  14.077  14.033  13.606  0.2755  0.1816  0.1018
 5451W        W25731  14.448  19.041  10.343  0.0859  0.0581 -0.3483
 5452W        W25732   4.798  11.742  10.986 -0.0082  0.0038  0.2360
 5453W        W25733   8.622  11.108   4.463 -0.1834  0.0740  0.3253
 5454W        W25734  12.390   1.529   1.277 -0.0089 -0.0998 -0.0493
 5455W        W25735  17.229   1.908   3.618  0.2575  0.0950  0.0661
 5456W        W25736  16.203   1.144  13.682 -0.0880 -0.0735 -0.5026
 5457W        W25737  18.564   0.173   3.576 -0.0571 -0.1471  0.0735
 5458W        W25738   5.701  18.217   3.532  0.1504  0.0581 -0.2199
 5459W        W25739   5.966  11.293  11.107  0.0793  0.1415 -0.0753
 5460W        W25740   5.877  19.105   4.744 -0.3069 -0.1021  0.1611
 5461W        W25741   1.697   2.043   1.517 -0.0547  0.1579 -0.2351
 5462W        W25742   0.921   4.363  13.433 -0.1691 -0.1410  0.2548
 5463W        W25743   4.735  14.964   0.062  0.2057 -0.0969 -0.0193
 5464W        W25744  19.570  19.105  10.961 -0.0452  0.0056 -0.3149
 5465W        W25745   1.131   4.913  13.478  0.1023  0.1785 -0.0782
 5466W        W25746  13.731  14.317  12.606  0.1971  0.1702  0.2876
 5467W        W25747  12.712   5.818   1.532  0.2964 -0.0332 -0.0144
 5468W        W25748   6.562   0.719   3.793 -0.0578  0.3620 -0.1605
 5469W        W25749  16.109   0.542   2.771 -0.1782  0.0397  0.1557
 5470W        W25750   7.557   7.929   1.498  0.0400 -0.0214 -0.0354
 5471W        W25751  13.314   0.297  13.483  0.4748  0.2661 -0.0307
 5472W        W25752  15.594  13.909   2.821 -0.1862 -0.0719  0.1797
 5473W        W25753  14.565  19.865  13.586  0.2532  0.1934 -0.2084
 5474W        W25754  18.591   4.221   1.667 -0.2789  0.1768  0.1699
 5475W        W25755  12.619  13.364  10.434 -0.0529 -0.1659  0.1760
 5476W        W25756   4.170   3.871   3.770 -0.0688  0.0179  0.0962
 5477W        W25757  12.248  12.461  11.026 -0.2297  0.3250  0.0624
 5478W        W25758   0.822  17.503   3.841 -0.0409 -0.0443 -0.1748
 5479W        W25759  17.676  10.278  12.654 -0.2136  0.0517 -0.3683
 5480W        W25760   6.369   0.175  12.524 -0.2639  0.0613  0.0468
 5481W        W25761   9.851   7.126   1.266  0.2403  0.1408  0.0992
 5482W        W25762   7.104   7.277   3.479  0.3378 -0.0781  0.2680
 5483W        W25763   5.927  14.314   4.137  0.0474 -0.1074 -0.1750
 5484W        W25764  13.011   8.653  11.347 -0.0165  0.2848  0.1986
 5485W        W25765   7.435  17.205   4.044 -0.0355 -0.2697 -0.0045
 5486W        W25766   8.391   9.408   0.592  0.0495 -0.2780  0.3588
 5487W        W25767   2.242  11.763   9.994 -0.0052 -0.0549 -0.0061
 5488W        W25768  14.573  16.135  12.302  0.1413  0.1652 -0.0834
 5489W        W25769  18.297  12.321  11.147  0.1588 -0.0707  0.2323
 5490W        W25770   3.553   8.978  12.993  0.1826 -0.0005  0.4165
 5491W        W25771   7.559   5.129  10.391 -0.2435  0.0364 -0.0453
 5492W        W25772  10.466   0.293   3.949  0.0971  0.0017 -0.4858
 5493W        W25773   7.104  16.834   4.037 -0.0529  0.3434  0.0869
 5494W        W25774   0.626  11.792  13.695  0.1278  0.3676 -0.0830
 5495W        W25775   2.710  16.174   1.482 -0.1005  0.2161 -0.0490
 5496W        W25776   9.042   7.042  11.667 -0.0284  0.1354 -0.3356
 5497W        W25777   9.071  14.591   3.098  0.3203  0.2550 -0.1770
 5498W        W25778   4.520   0.683  12.298 -0.0857  0.1872  0.0391
 5499W        W25779  13.901   3.764  10.992 -0.1055 -0.2879  0.1475
 5500W        W25780   6.217   6.602   2.657 -0.3456 -0.1344 -0.0563
 5501W        W25781  10.398   6.822  12.326 -0.2078  0.0458  0.1639
 5502W        W25782  15.633   3.617  10.537  0.1856 -0.1802 -0.0898
 5503W        W25783  14.454  17.674   0.087  0.0924  0.4309  0.2452
 5504W        W25784  18.289   5.288  10.402 -0.2559  0.2735  0.3607
 5505W        W25785   3.182  19.487  13.483  0.0750 -0.1139  0.1119
 5506W        W25786  17.791  18.080   2.586  0.1368 -0.2479  0.0190
 5507W        W25787   9.283  17.503   3.723  0.0823  0.0040  0.0471
 5508W        W25788  19.066   0.732  10.233 -0.2034 -0.0389  0.0393
 5509W        W25789   7.043  11.307   1.294 -0.4120  0.3461  0.1758
 5510W        W25790   0.254   8.921  12.673  0.1835 -0.0158 -0.3399
 5511W        W25791   9.048  14.996  11.968  0.0673 -0.2361 -0.1934
 5512W        W25792  17.921  11.213  10.776 -0.1344 -0.2897  0.0129
 5513W        W25793  16.437  13.738   9.758  0.1479 -0.3151  0.0948
 5514W        W25794  14.436   2.809  10.716 -0.1620  0.0364  0.1270
 5515W        W25795  17.685  19.886  12.102  0.2885  0.1269 -0.0467
 5516W        W25796   4.802   0.118   2.463 -0.0882 -0.1440 -0.1337
 5517W        W25797  13.087   6.644   2.045 -0.1683  0.0675 -0.1315
 5518W        W25798  15.629  17.636  11.747 -0.1511  0.2547  0.0529
 5519W        W25799  13.503  12.619   3.485 -0.1035 -0.0802  0.2731
 5520W        W25800   0.431   1.183  11.894 -0.0169 -0.0345 -0.2883
 5521W        W25801  17.398  14.652  10.983 -0.3743 -0.0490  0.0884
 5522W        W25802  18.575   9.865   3.548  0.1603  0.1849 -0.3553
 5523W        W25803  11.953   5.213  12.626  0.2987 -0.0536  0.1384
 5524W        W25804   4.555  17.617   1.662  0.0039 -0.2932  0.2571
 5525W        W25805  11.100   3.948  10.841  0.3568  0.2287  0.1691
 5526W        W25806   2.923   0.648   2.690 -0.1892 -0.1117 -0.0303
 5527W        W25807  13.296   2.781   2.738  0.0805 -0.1294  0.1797
 5528W        W25808   5.113   2.958   1.654  0.0922 -0.3022  0.1903
 5529W        W25809  13.880   0.055  12.953 -0.2403 -0.1830  0.0812
 5530W        W25810   1.358  18.827  13.186  0.0413  0.0043 -0.2857
 5531W        W25811   4.695   4.473   3.867 -0.2697  0.3183 -0.2623
 5532W        W25812  11.489   7.846  11.140 -0.2835 -0.1390  0.4285
 5533W        W25813  16.308   5.315   4.553 -0.1368  0.2644 -0.0729
 5534W        W25814  16.288   8.867  11.685  0.4504 -0.3921  0.2132
 5535W        W25815  15.046  12.806   1.664 -0.1429 -0.0702 -0.1834
 5536W        W25816  12.029   6.461  10.474 -0.1549 -0.2814  0.1162
 5537W        W25817   5.544  14.599   0.565 -0.0016  0.2150 -0.1202
 5538W        W25818  16.717   1.268  12.811  0.0484  0.0414  0.0085
 5539W        W25819   8.487  10.712  11.401  0.1354  0.1088 -0.0438
 5540W        W25820  15.780  10.670   1.992  0.1482  0.1052 -0.0546
 5541W        W25821  13.324   9.125   2.737 -0.0433 -0.0869  0.2620
 5542W        W25822  15.543   7.309  12.443 -0.3857 -0.0658 -0.3291
 5543W        W25823  10.123  14.533  12.925 -0.0227 -0.1309  0.3180
 5544W        W25824  12.306   1.011   3.722  0.1964  0.0689  0.2731
 5545W        W25825  17.834  19.228  12.516  0.0738 -0.0719  0.0746
 5546W        W25826   0.741   7.117  13.666  0.0829 -0.2218 -0.0191
 5547W        W25827  13.028   1.690  13.551  0.3260  0.3356 -0.1576
 5548W        W25828  16.370  17.811  10.586  0.2144  0.0648  0.2149
 5549W        W25829  15.270  13.559  12.903 -0.2472  0.1408  0.2846
 5550W        W25830   3.253   5.065   9.095  0.1333 -0.1638  0.1233
 5551W        W25831   9.408   6.490  11.578 -0.0195 -0.0072 -0.0693
 5552W        W25832   4.415  18.528  10.402  0.1646 -0.1160  0.2739
 5553W        W25833  17.227   3.705  11.173  0.1603 -0.1152 -0.3057
 5554W        W25834   3.730   5.196  11.466 -0.0498  0.1176 -0.0717
 5555W        W25835   3.850  10.012   1.769  0.0231 -0.0343 -0.1046
 5556W        W25836  18.983   0.403   3.335 -0.0269 -0.3704 -0.1420
 5557W        W25837  16.554   2.778   1.200 -0.3674 -0.1300 -0.1308
 5558W        W25838  16.651   3.419  12.566  0.2638  0.0870  0.0396
 5559W        W25839  15.280  16.788   9.702  0.1124  0.0482  0.0946
 5560W        W25840   0.883  15.619   2.801  0.1969  0.0453  0.2952
 5561W        W25841  18.386  13.464  10.723 -0.3116 -0.2259  0.0247
 5562W        W25842   7.971  14.914  13.367  0.1854  0.1312 -0.1146
 5563W        W25843  16.658   3.469   1.959 -0.1172 -0.2181 -0.0731
 5564W        W25844  12.135   6.045  11.979  0.1933  0.2237 -0.1754
 5565W        W25845  14.128   7.683   9.485 -0.1232  0.1575  0.1555
 5566W        W25846   6.079   8.738  13.183  0.1107  0.0159 -0.1761
 5567W        W25847   0.789  16.916  11.989  0.2502 -0.0402 -0.0883
 5568W        W25848  17.649   2.621  13.402 -0.0384  0.2556  0.0035
 5569W        W25849  14.062  17.596   4.061  0.1825 -0.0629 -0.1807
 5570W        W25850   6.129  18.414   0.130 -0.0349 -0.3002  0.1229
 5571W        W25851   7.534   5.167   2.453  0.0421 -0.0084 -0.0055
 5572W        W25852  11.424   8.423   2.892  0.0135 -0.0436  0.0799
 5573W        W25853   2.567  14.875  10.479  0.2327 -0.1322 -0.0579
 5574W        W25854  15.908  13.691   2.018 -0.0575 -0.1435 -0.1581
 5575W        W25855  13.975   7.751  10.311 -0.0580 -0.2112 -0.0965
 5576W        W25856  14.814  11.193  12.144  0.0497 -0.1508  0.0457
 5577W        W25857  10.476  12.073  11.347  0.0609 -0.1811 -0.4464
 5578W        W25858   2.725   6.210  11.270  0.2256 -0.4259 -0.3697
 5579W        W25859   4.544  13.131   1.362  0.2917 -0.1160 -0.2007
 5580W        W25860  16.216  18.152   1.988 -0.0670 -0.3525 -0.0892
 5581W        W25861  12.463   4.391   4.554 -0.3042 -0.3120 -0.0416
 5582W        W25862   5.193   8.647   2.894  0.0187  0.0377 -0.3491
 5583W        W25863   8.626  12.448   0.418  0.3322 -0.0623 -0.0349
 5584W        W25864  19.623   9.366  10.322 -0.1209 -0.1746  0.0945
 5585W        W25865  13.652   3.598   4.363 -0.0561 -0.0764 -0.2579
 5586W        W25866   8.204   0.937   1.641  0.2126 -0.0105  0.0884
 5587W        W25867  16.665   0.942   2.845 -0.1588 -0.1785 -0.1188
 5588W        W25868   9.640  14.855  12.993 -0.3872  0.1839  0.1088
 5589W        W25869  14.104  14.496  11.730  0.0416 -0.0062 -0.1678
 5590W        W25870   4.274   8.019   1.135  0.0455  0.0767  0.1029
 5591W        W25871  12.269  17.485   9.463  0.0748 -0.2541 -0.1072
 5592W        W25872  16.629   7.466  12.341 -0.1415  0.0823  0.0344
 5593W        W25873  19.904   9.078  13.424 -0.0774  0.0404 -0.0767
 5594W        W25874   3.660  10.928  12.378  0.3120  0.0919  0.0384
 5595W        W25875  11.141  17.289  13.519 -0.2817  0.2095 -0.1681
 5596W        W25876  13.664   1.628   4.303 -0.2269 -0.1182 -0.0849
 5597W        W25877   6.512  19.824   0.470  0.3339  0.1743 -0.1059
 5598W        W25878  19.725   8.176   2.076 -0.0054  0.1481  0.1923
 5599W        W25879   8.278  11.805  13.719  0.4598  0.2662  0.2023
 5600W        W25880  19.888   2.313   1.046 -0.0556 -0.3854  0.2665
 5601W        W25881   5.222   7.657   1.539  0.0322  0.2770  0.1080
 5602W        W25882   9.724  16.992  12.779  0.2695  0.1259 -0.2212
 5603W        W25883  11.506  14.204  11.611 -0.2520 -0.0848 -0.3793
 5604W        W25884  17.491   0.258  12.629  0.2247 -0.0834 -0.1973
 5605W        W25885  11.582  11.685  12.162 -0.0304  0.1090  0.1341
 5606W        W25886   4.700  14.445   3.448  0.1127 -0.0057  0.1265
 5607W        W25887  15.692  17.206  10.344  0.0814  0.1285  0.0532
 5608W        W25888  15.514   2.056   2.884 -0.1301 -0.0922 -0.0963
 5609W        W25889  15.254   2.551   1.464  0.4114 -0.3088  0.1478
 5610W        W25890  16.948  12.577  10.272  0.3293 -0.1841 -0.0897
 5611W        W25891   9.063   9.858  10.469 -0.0320  0.2721 -0.0494
 5612W        W25892   4.500   8.073  12.604 -0.0578  0.0166  0.1600
 5613W        W25893   1.844   0.361  13.285 -0.0814 -0.1999  0.4241
 5614W        W25894   6.039   5.561   2.083 -0.1359  0.0080  0.2134
 5615W        W25895  16.155   9.281   2.857  0.1451  0.0492  0.2725
 5616W        W25896  13.740  15.696   1.680 -0.3035 -0.1468 -0.2457
 5617W        W25897  15.271   8.916   0.629 -0.0601  0.1072  0.2209
 5618W        W25898  13.949   9.403  12.765 -0.1538  0.3244  0.0240
 5619W        W25899  17.298  13.301   3.200 -0.1993  0.1686  0.0197
 5620W        W25900  12.430   4.398  12.028  0.1017 -0.4248 -0.2404
 5621W        W25901   2.754   5.717   1.283 -0.0285  0.0847 -0.1201
 5622W        W25902   0.305  18.265   0.392  0.3839  0.0269  0.2804
 5623W        W25903   5.423  19.377  12.466  0.0226  0.0555 -0.2331
 5624W        W25904   6.717   0.067  13.397  0.2506  0.1260  0.0302
 5625W        W25905  19.770  15.087   3.388  0.3000  0.0797  0.1040
 5626W        W25906   9.347   7.208  11.198  0.1399 -0.2337  0.2413
 5627W        W25907   3.978  11.464   3.324 -0.0219  0.1785 -0.0147
 5628W        W25908  16.094   3.624  11.438  0.2339 -0.1448 -0.1550
 5629W        W25909   9.250   2.495   2.508 -0.1726 -0.1887 -0.1564
 5630W        W25910   0.137   4.224  10.450  0.3672  0.0069 -0.2092
 5631W        W25911  15.525   2.925  11.264 -0.1000 -0.0727 -0.0176
 5632W        W25912   5.881   8.924  11.358  0.1634 -0.1177 -0.0087
 5633W        W25913  12.864  19.869   0.387 -0.0019  0.0052  0.3056
 5634W        W25914   6.911  15.435  12.528  0.1317  0.3088  0.2945
 5635W        W25915  14.894   8.340   1.181  0.0014 -0.1003  0.0078
 5636W        W25916  15.019   3.158   1.169  0.1367  0.0826 -0.0265
 5637W        W25917  16.351   5.555  10.003 -0.1422  0.1947  0.2135
 5638W        W25918   0.881  11.877   1.445  0.0990 -0.4792  0.0330
 5639W        W25919  12.795  11.884   0.457 -0.0973 -0.1068  0.0581
 5640W        W25920   4.848  18.928  10.166  0.0883  0.2547  0.2544
 5641W        W25921   6.970   1.715  12.575  0.0145 -0.0450  0.2746
 5642W        W25922  13.771   6.702  12.466  0.1610 -0.0583 -0.1323
 5643W        W25923  13.960   8.646   2.592  0.2437 -0.2350  0.2172
 5644W        W25924  15.080   0.263   4.419  0.4030 -0.0604  0.3881
 5645W        W25925  10.084  19.497   2.561  0.0274  0.1716 -0.0033
 5646W        W25926   0.076   6.374   4.292 -0.3985  0.1366 -0.0760
 5647W        W25927   1.727   6.137   2.279 -0.2773 -0.0758  0.0774
 5648W        W25928  11.455   5.434   1.539 -0.1990  0.1754 -0.0194
 5649W        W25929  12.343   6.665  10.849  0.0288  0.3398  0.0833
 5650W        W25930  19.577   3.201   3.646 -0.1059 -0.2604  0.1659
 5651W        W25931  18.903   4.965  13.680 -0.2416  0.0500  0.0807
 5652W        W25932  10.876  12.321   1.901  0.1641  0.4110 -0.0215
 5653W        W25933   4.850   7.800  12.235 -0.1423  0.0215 -0.0790
 5654W        W25934  13.954  15.646  12.870  0.2357 -0.0291 -0.3266
 5655W        W25935  11.104   3.449   1.562 -0.1240  0.0579 -0.3053
 5656W        W25936   3.808   8.964   0.008 -0.1613 -0.0392  0.0349
 5657W        W25937   4.088  17.969  12.097  0.1500 -0.5021 -0.1452
 5658W        W25938   0.479  13.065  11.815  0.0672 -0.0358 -0.0667
 5659W        W25939  15.054  12.697  11.130 -0.0239 -0.0844  0.1393
 5660W        W25940  19.716  16.500  11.058  0.0936 -0.0974 -0.0627
 5661W        W25941   9.237  13.045  12.959 -0.4543 -0.0120  0.1824
 5662W        W25942  17.049  14.865  10.035  0.1081 -0.3500  0.0038
 5663W        W25943  18.678  18.110   0.066  0.1841  0.1693 -0.0493
 5664W        W25944   3.337  10.935  13.578 -0.5382 -0.0089 -0.2163
 5665W        W25945  10.881  10.726  13.512  0.0900 -0.3204  0.0665
 5666W        W25946  17.577   0.831  10.525  0.1862 -0.4603  0.2080
 5667W        W25947  14.496   4.366  10.803  0.0090 -0.2769 -0.0187
 5668W        W25948  12.843  12.175   3.084 -0.3104  0.0765 -0.0185
 5669W        W25949  12.930  16.692   1.325 -0.2190 -0.0699  0.2976
 5670W        W25950   0.022  17.168   8.860 -0.3194  0.3481 -0.2466
 5671W        W25951  17.195   8.978  10.729 -0.0550 -0.1980  0.1129
 5672W        W25952   4.720  16.972   3.123 -0.0132 -0.2550  0.1892
 5673W        W25953  19.562  10.659   1.780 -0.2475  0.0674  0.1744
 5674W        W25954   1.347  19.920   3.060  0.0802  0.1435 -0.1210
 5675W        W25955   1.460   0.813   3.836 -0.1743 -0.0099 -0.3309
 5676W        W25956   5.909  14.581  13.053 -0.3121 -0.2136 -0.1308
 5677W        W25957  11.607  13.009   0.802  0.0374  0.0063  0.2799
 5678W        W25958   5.490  10.721   1.234  0.2969 -0.0948 -0.0645
 5679W        W25959  11.952  16.059   0.300 -0.1710 -0.2711  0.1479
 5680W        W25960   8.584   4.429  10.902  0.4098  0.4468 -0.0270
 5681W        W25961   7.585  12.090   9.900  0.1223  0.1304  0.0622
 5682W        W25962  10.033  13.047   0.003  0.1537 -0.2701  0.0597
 5683W        W25963  12.728  14.387   2.376 -0.1006 -0.1924  0.1535
 5684W        W25964   3.669   4.225  10.829 -0.1895  0.1403  0.1793
 5685W        W25965   6.661  14.213   1.654  0.1712  0.1596 -0.2565
 5686W        W25966   3.392  12.442  11.485 -0.0187  0.0632  0.0083
 5687W        W25967   5.935   0.250  11.625 -0.1428 -0.0319  0.4864
 5688W        W25968  11.880   1.347   1.431 -0.0977 -0.3706 -0.1146
 5689W        W25969   9.149  11.762   0.264  0.2816  0.2863  0.2560
 5690W        W25970  12.113   2.574  12.783 -0.1448  0.1032  0.0631
 5691W        W25971   1.477   3.996   3.801 -0.1050  0.3377 -0.2266
 5692W        W25972   0.477  12.480   1.985 -0.0643  0.1470 -0.2380
 5693W        W25973   9.272   3.379   4.506  0.3543  0.3429  0.2093
 5694W        W25974  10.919   9.648   0.781  0.1592 -0.3029  0.0107
 5695W        W25975   2.403   6.775   0.292  0.2574 -0.0305  0.1347
 5696W        W25976   6.170  10.717  10.643  0.4117  0.1103 -0.1634
 5697W        W25977  13.127  15.036   1.090 -0.1203  0.1401  0.1584
 5698W        W25978   0.024  11.857   0.625  0.0376  0.3764 -0.2085
 5699W        W25979  18.177   6.246  10.131 -0.0225 -0.0577  0.0566
 5700W        W25980   7.388   5.543   2.131  0.0709 -0.3680 -0.1372
 5701W        W25981  15.528  18.794   2.824 -0.0926  0.0096 -0.0952
 5702W        W25982  17.964   5.262   2.013 -0.0466  0.2818 -0.0679
 5703W        W25983  13.949  17.707  10.593  0.0159  0.1769 -0.1697
 5704W        W25984  18.165  14.418   1.691  0.3334 -0.1571 -0.1462
 5705W        W25985  10.477   5.225  11.905 -0.1984 -0.1611  0.0708
 5706W        W25986   8.136  17.610   1.764 -0.0623 -0.2555 -0.1983
 5707W        W25987   4.198   8.737   3.007 -0.0226  0.0766  0.1461
 5708W        W25988   2.031   4.233  12.305  0.4530 -0.1333  0.0238
 5709W        W25989  19.852  11.859   0.168  0.2222  0.0010  0.1261
 5710W        W25990  13.532  13.848  12.289  0.1284 -0.0471 -0.0895
 5711W        W25991   1.157   3.348  13.357 -0.0725 -0.1342 -0.1001
 5712W        W25992   1.817   9.690   2.041  0.0899  0.0455  0.0878
 5713W        W25993  19.640   8.276   9.622  0.0128 -0.0851 -0.2905
 5714W        W25994  19.232   8.297  12.902  0.2165  0.0676 -0.0624
 5715W        W25995   8.616  16.391  12.118 -0.4453  0.0873  0.1924
 5716W        W25996  11.295  12.065  13.762  0.1886  0.0590 -0.1762
 5717W        W25997   7.933   9.436  11.601  0.0943  0.0267  0.1239
 5718W        W25998  18.318   0.921  11.682 -0.3370  0.0832 -0.2317
 5719W        W25999   6.876   9.618   0.744  0.1032 -0.1369 -0.0571
 5720W        W26000  15.486   9.719  13.416 -0.0093  0.2189  0.0647
 5721W        W26001  11.105  19.473   3.791  0.0633 -0.1850 -0.0685
 5722W        W26002  11.067  13.051   2.174  0.1414 -0.3715  0.1317
 5723W        W26003   3.807   7.735   0.719 -0.2978 -0.0150  0.0429
 5724W        W26004   6.301  18.271  10.635 -0.3174 -0.0340 -0.0818
 5725W        W26005   8.584  11.298   2.733 -0.2184  0.1819  0.0199
 5726W        W26006   1.489   0.999   4.948 -0.1482 -0.1758 -0.2769
 5727W        W26007  14.481   2.608  11.195  0.1982 -0.3747  0.0580
 5728W        W26008   6.314  18.310   2.409 -0.0167  0.0079 -0.2691
 5729W        W26009   6.211  12.217   1.299 -0.2101 -0.1293  0.0775
 5730W        W26010   1.466  16.002   0.006  0.2427  0.1383 -0.0382
 5731W        W26011  15.995  15.476  11.199 -0.2493 -0.2753 -0.4050
 5732W        W26012   9.022  15.035  10.936  0.1782 -0.0651 -0.0827
 5733W        W26013  13.072   9.596   3.930  0.2829  0.0987 -0.0548
 5734W        W26014   0.176   7.305   3.538 -0.1323  0.0768  0.0641
 5735W        W26015   0.639   6.359  13.087 -0.2940  0.0721  0.1374
 5736W        W26016   6.057  11.619  13.806 -0.1597 -0.3512 -0.0195
 5737W        W26017   2.415  10.152   3.454 -0.0954 -0.2705 -0.0881
 5738W        W26018   1.887  10.817   1.088  0.0574 -0.1101  0.1069
 5739W        W26019  14.132  15.803   3.903 -0.1507  0.0056  0.2055
 5740W        W26020   1.637  11.632   9.815 -0.0403  0.2868 -0.2267
 5741W        W26021  13.974  14.578   9.146  0.1006  0.1444 -0.0471
 5742W        W26022   7.394  15.779  11.374  0.0529 -0.0831 -0.0284
 5743W        W26023  11.568  14.135  10.573  0.1426 -0.3569 -0.2205
 5744W        W26024   1.507   9.293   2.970 -0.2564  0.0166 -0.1003
 5745W        W26025  16.161  12.183   1.174  0.1610 -0.0584  0.1121
 5746W        W26026  17.667  18.102  10.340  0.2127  0.0787  0.0985
 5747W        W26027  10.354  17.336   3.095 -0.2198  0.2119 -0.0162
 5748W        W26028   9.876  18.953  10.190  0.2374 -0.1158  0.0854
 5749W        W26029  13.657  17.977  13.437  0.3217  0.0210 -0.1288
 5750W        W26030   8.340   2.846  13.597  0.0668 -0.0626  0.1564
 5751W        W26031   4.544  18.337   3.441 -0.0837 -0.0439 -0.0132
 5752W        W26032  12.669   6.562  11.851  0.2205 -0.0309  0.2378
 5753W        W26033  18.729  17.735   0.372  0.0871  0.2074 -0.0448
 5754W        W26034  10.894  12.173   3.570 -0.0552  0.1373 -0.0246
 5755W        W26035  16.033  14.488   0.508 -0.1333  0.0199  0.0793
 5756W        W26036  10.151  11.138  11.848 -0.4046 -0.0618  0.0045
 5757W        W26037  16.104   0.011   1.394  0.1227 -0.1276  0.2941
 5758W        W26038  14.960  13.519   2.260 -0.1478 -0.1416  0.1279
 5759W        W26039   4.976   8.020  12.683 -0.1000 -0.3534 -0.0780
 5760W        W26040  13.815  15.628   8.850 -0.1153 -0.0536  0.0597
 5761W        W26041   2.917  15.289  12.750 -0.2321  0.0684  0.1544
 5762W        W26042  12.550   2.017  13.716  0.1057  0.0077  0.0506
 5763W        W26043  19.731  11.662   3.847 -0.0035  0.2268  0.1698
 5764W        W26044   5.972  16.555  12.638  0.2057  0.0070  0.0879
 5765W        W26045   6.786   5.805   1.551  0.2510  0.0183  0.2095
 5766W        W26046   8.448   7.781   1.446  0.2738  0.2142  0.0555
 5767W        W26047  11.778  18.378  10.342 -0.1156  0.3002 -0.0345
 5768W        W26048   2.565   4.947  12.487 -0.1803  0.0261  0.1761
 5769W        W26049   7.356  15.592  10.256 -0.0923  0.1737 -0.0006
 5770W        W26050   3.007  18.641  13.676  0.1184 -0.2699  0.2682
 5771W        W26051   4.648  18.083   0.936 -0.0480  0.1232  0.2701
 5772W        W26052   2.593   8.328  13.407 -0.0505  0.1258  0.4148
 5773W        W26053  19.846  15.880  11.855 -0.1017 -0.1994 -0.1954
 5774W        W26054  19.813   8.544   2.993 -0.0810 -0.2453  0.0456
 5775W        W26055  14.761  15.909  13.560 -0.1570  0.1075 -0.0917
 5776W        W26056  16.076  10.920  10.685  0.1885  0.2327  0.1261
 5777W        W26057  19.740   3.899  12.075 -0.2197 -0.1048  0.1659
 5778W        W26058  18.552  10.615   2.291 -0.1269  0.0376 -0.1712
 5779W        W26059  18.333   0.900  10.882  0.1979 -0.0584 -0.0862
 5780W        W26060  12.855  13.942  12.840 -0.0414 -0.3232 -0.0015
 5781W        W26061   4.987   7.870  13.589  0.1102  0.4411 -0.1113
 5782W        W26062  17.902   4.517   1.401  0.2234  0.1595 -0.2492
 5783W        W26063  15.711  16.688   0.188  0.0036 -0.0813  0.2226
 5784W        W26064   9.547  12.676   2.161 -0.2110 -0.2970 -0.0629
 5785W        W26065  12.229   0.263  11.763  0.0696 -0.3770  0.0233
 5786W        W26066   7.105  12.274   0.751  0.2383 -0.0039  0.0129
 5787W        W26067  17.431  15.612  11.655  0.0994 -0.1745 -0.1512
 5788W        W26068   4.166  10.112  11.391  0.1681 -0.0463 -0.3620
 5789W        W26069   2.171   8.668   2.437 -0.0128  0.0142  0.0065
 5790W        W26070  11.894  12.362  10.626 -0.1250  0.0742  0.2812
 5791W        W26071  14.795   6.670  11.881  0.1388  0.3164  0.0284
 5792W        W26072   8.766  10.632  13.289 -0.3631 -0.1221 -0.0597
 5793W        W26073  12.121   5.230   1.672 -0.1177 -0.1216 -0.1569
 5794W        W26074   7.034   9.459  12.760  0.0969  0.1097  0.2865
 5795W        W26075  13.306  18.939   0.791  0.0966 -0.0828  0.0071
 5796W        W26076  15.393   4.868   0.371  0.0950 -0.0363 -0.4542
 5797W        W26077   8.684   3.232   0.544  0.2704  0.1041 -0.1558
 5798W        W26078  10.026  12.313  11.947  0.0053  0.1090 -0.0700
 5799W        W26079  15.736   7.423  13.715 -0.1943 -0.2727 -0.0207
 5800W        W26080   7.510   4.988   1.976  0.1098  0.1449 -0.0040
 5801W        W26081   3.774  17.344   4.563 -0.2008 -0.0104 -0.1336
 5802W        W26082  17.841  19.345   9.438 -0.0218 -0.0881 -0.0939
 5803W        W26083  13.682  13.497  12.627  0.1791 -0.2516  0.0298
 5804W        W26084   7.975  10.628   4.463 -0.0028  0.1290  0.1119
 5805W        W26085  15.380  16.986   5.157  0.0807 -0.1019 -0.2826
 5806W        W26086   6.426   4.465  12.069  0.3985  0.0213 -0.1185
 5807W        W26087  13.418  14.661  12.430 -0.1092  0.4372 -0.1190
 5808W        W26088  10.433   3.044   2.959 -0.0352 -0.1314  0.4003
 5809W        W26089   1.849  10.315   1.198 -0.1042 -0.1576  0.3448
 5810W        W26090   5.736  14.637  10.538 -0.2791 -0.0949 -0.0266
 5811W        W26091  12.570   8.878  13.096  0.4062 -0.1345 -0.0389
 5812W        W26092   2.549   7.936  12.400 -0.2151 -0.0755  0.1918
 5813W        W26093  19.874  18.159   4.671 -0.1276  0.3248 -0.0732
 5814W        W26094  13.203   4.864  13.061  0.1443 -0.0471  0.3852
 5815W        W26095  12.854  10.292  12.696 -0.2560 -0.1651  0.1540
 5816W        W26096  10.647  13.672  12.723  0.3275 -0.1231  0.0948
 5817W        W26097   3.284  13.922   2.742  0.2756  0.0227  0.0435
 5818W        W26098   8.951   8.862   2.230 -0.0832 -0.1672  0.0984
 5819W        W26099  16.528   9.603  12.078  0.1599 -0.0265 -0.0999
 5820W        W26100  15.291  14.075   0.946  0.0275  0.0800 -0.0814
 5821W        W26101  14.318  13.452  12.620  0.1934  0.2843 -0.3563
 5822W        W26102   3.431  10.252   2.584 -0.0532  0.2319  0.5299
 5823W        W26103  10.070   5.917   0.768 -0.0974  0.2326  0.4744
 5824W        W26104   0.125   7.836   2.208  0.0878 -0.1463 -0.2838
 5825W        W26105  10.563   4.121   3.785 -0.4213  0.0547  0.0480
 5826W        W26106   2.573   7.831   2.680  0.0558  0.1054 -0.4018
 5827W        W26107  19.531   6.752   1.914  0.0537 -0.0434 -0.1746
 5828W        W26108   0.698  17.052   0.284 -0.1516 -0.1842  0.1507
 5829W        W26109  19.154  17.880   0.080  0.1685 -0.1632  0.1371
 5830W        W26110  13.003   0.443   0.256 -0.0534 -0.0962  0.3289
 5831W        W26111   6.853  16.324   1.567  0.2679 -0.3593 -0.4240
 5832W        W26112   2.771   2.980   1.486 -0.2065 -0.0647  0.0539
 5833W        W26113  15.372   6.793  12.490  0.0593  0.0698  0.0592
 5834W        W26114  10.811  11.783  11.748  0.1866 -0.3038 -0.0382
 5835W        W26115   7.697   9.006   3.304 -0.0380  0.0455 -0.0716
 5836W        W26116   1.119  17.142  13.766 -0.0771  0.0620 -0.3638
 5837W        W26117   7.329  12.319  13.682  0.2562 -0.0525  0.2638
 5838W        W26118  13.938  17.320   0.195 -0.2325 -0.0857 -0.0556
 5839W        W26119   5.200   7.724  11.295 -0.1815 -0.2493 -0.0458
 5840W        W26120  18.142  11.198   0.402  0.1528  0.0657 -0.2161
 5841W        W26121   8.239  16.182  10.675 -0.0462  0.1402 -0.0511
 5842W        W26122  12.767  16.374  13.312 -0.1071 -0.1457 -0.0452
 5843W        W26123   7.767  16.620  10.865 -0.0425 -0.0881 -0.0322
 5844W        W26124   2.182  10.857   9.966  0.0757 -0.1733  0.1113
 5845W        W26125   1.713   0.829  11.459  0.2962  0.2655 -0.2036
 5846W        W26126  17.029   6.449   1.020 -0.0450 -0.1600  0.1081
 5847W        W26127  15.126  12.926  12.470  0.0942 -0.0406 -0.0600
 5848W        W26128   3.484   7.165  13.213 -0.1979 -0.1487  0.0014
 5849W        W26129  18.130  16.330   9.882 -0.3192 -0.0977 -0.1151
 5850W        W26130  19.257  15.005   0.436  0.0857 -0.1219  0.0033
 5851W        W26131  16.338   9.292   2.302 -0.1120  0.0581  0.0577
 5852W        W26132   1.295   9.269   0.454  0.1623 -0.1441  0.1680
 5853W        W26133   5.412   2.769  10.509  0.2303 -0.0671  0.0816
 5854W        W26134   2.048  19.392  13.513  0.1576 -0.0804  0.0309
 5855W        W26135   6.822  13.448  13.006  0.1299 -0.0270  0.0924
 5856W        W26136   1.591   9.666  13.572  0.1861  0.0665 -0.0350
 5857W        W26137  15.517   6.448   1.418 -0.0162  0.0279  0.1199
 5858W        W26138  13.390   9.564  12.676  0.0031  0.0815 -0.0005
 5859W        W26139   3.165  17.180  11.073 -0.4666 -0.1766 -0.1558
 5860W        W26140   1.221   9.159  10.687 -0.1675 -0.0904 -0.2444
 5861W        W26141   7.095  16.161  13.079  0.3192 -0.2670 -0.2957
 5862W        W26142   5.774   8.270   0.352  0.1690 -0.0927 -0.2208
 5863W        W26143  16.372  19.716   2.139  0.0116  0.1044 -0.0828
 5864W        W26144   9.176   8.544   4.054 -0.1381 -0.0593  0.1360
 5865W        W26145  17.116  11.994   1.587 -0.2405  0.1312  0.0688
 5866W        W26146   3.325   4.561   0.498  0.1107  0.0183  0.0428
 5867W        W26147   3.582  10.594  12.006  0.2589  0.1638 -0.1414
 5868W        W26148   5.160   3.981   2.614  0.3245  0.0662  0.0793
 5869W        W26149   8.919  18.111   0.716  0.2133  0.0206  0.0895
 5870W        W26150   8.000   0.069   1.415 -0.1724 -0.2105  0.2577
 5871W        W26151   5.459  16.283   3.118  0.2838 -0.0299 -0.3237
 5872W        W26152   2.561  14.755   9.990  0.2550  0.3279  0.0094
 5873W        W26153  11.227  11.224  10.413  0.1496  0.0658 -0.2689
 5874W        W26154  12.339  10.297   0.141  0.2310  0.3984  0.2484
 5875W        W26155  13.138   4.270  10.710  0.0643 -0.2077 -0.2852
 5876W        W26156  16.315  14.600   1.663 -0.0588 -0.0680  0.2515
 5877W        W26157  18.006  18.172   3.218 -0.0550 -0.0859  0.0544
 5878W        W26158  11.153  19.615  10.540 -0.0459 -0.2961 -0.0033
 5879W        W26159  11.037   1.024   3.785  0.0280  0.0495  0.2378
 5880W        W26160   1.305   2.300   0.094 -0.1826  0.0879 -0.0901
 5881W        W26161  13.139  15.507  12.592  0.0299 -0.4003  0.0553
 5882W        W26162  18.849  11.386  11.506 -0.1358  0.1530 -0.0829
 5883W        W26163   6.848   0.541   1.402  0.3363 -0.0203 -0.1145
 5884W        W26164   0.108  18.997  13.666 -0.0269  0.0879  0.3255
 5885W        W26165  19.812   3.373  10.722 -0.0958  0.2917  0.1659
 5886W        W26166  18.054  19.112  12.934  0.1258  0.4105 -0.2155
 5887W        W26167   0.944  18.077  13.063 -0.0696  0.3344 -0.1644
 5888W        W26168   2.967  13.000   2.209  0.1300  0.1497  0.2647
 5889W        W26169   7.727  13.117   0.118  0.1489  0.0568 -0.1435
 5890W        W26170  13.202  18.685   9.998  0.2691 -0.3239 -0.1416
 5891W        W26171   4.799   9.098  11.105 -0.0010 -0.0227  0.0539
 5892W        W26172   8.861  16.654   9.369 -0.2467  0.0829 -0.0909
 5893W        W26173   6.638   1.365   3.164  0.1264  0.0606 -0.3365
 5894W        W26174  12.645   6.774   1.841 -0.0115 -0.1308  0.0277
 5895W        W26175   6.859   6.071  13.131  0.1318 -0.2985  0.2546
 5896W        W26176   8.475  18.513  12.759  0.0147  0.0267 -0.1075
 5897W        W26177  17.053   4.113   0.658 -0.2794  0.0515 -0.2061
 5898W        W26178   4.091  16.901  12.511 -0.1332 -0.0607  0.0685
 5899W        W26179   9.703  18.819   1.988 -0.0403 -0.3001 -0.2304
 5900W        W26180  11.267  10.946  13.768  0.0435 -0.0789  0.2545
 5901W        W26181   6.152  11.365   4.220  0.1899  0.2356  0.0517
 5902W        W26182  14.556   5.294   3.780  0.0058 -0.0623  0.2791
 5903W        W26183   3.447  18.371   1.155 -0.1039  0.1835  0.1494
 5904W        W26184   8.490   2.850  12.463  0.0160  0.1587  0.0136
 5905W        W26185   9.940  19.945  12.053  0.0216  0.1815 -0.0987
 5906W        W26186   2.726   3.285   9.743  0.3081  0.3221  0.1996
 5907W        W26187   4.085   6.913   0.048 -0.2121  0.1854  0.0095
 5908W        W26188   8.875  18.497   3.647 -0.1412  0.1104  0.1487
 5909W        W26189  14.085  14.820   3.120 -0.1610 -0.0145 -0.1156
 5910W        W26190   0.514  15.468   2.448 -0.3372 -0.1364  0.0857
 5911W        W26191  17.051   4.404  12.401  0.1488 -0.0738 -0.1474
 5912W        W26192   8.491  19.016   0.343 -0.0382 -0.3184  0.0447
 5913W        W26193  19.073   8.464  10.162  0.1090 -0.1318  0.1385
 5914W        W26194  15.520  19.329  12.412  0.0075  0.0123 -0.0335
 5915W        W26195   9.868  15.364   3.340  0.2474 -0.1211 -0.0283
 5916W        W26196  18.513   7.318   0.960 -0.0973 -0.0400 -0.2012
 5917W        W26197   6.094  13.600   2.246 -0.2218  0.1074 -0.1611
 5918W        W26198   7.879  13.798   3.495 -0.1647 -0.2243  0.1907
 5919W        W26199  11.999  16.089   2.489  0.2003 -0.2630 -0.0560
 5920W        W26200  19.933   4.608  11.533 -0.0449 -0.0589 -0.1171
 5921W        W26201   0.312   0.298   0.460  0.1634  0.1750 -0.0988
 5922W        W26202  17.983  16.526   0.362 -0.0233  0.0588  0.0642
 5923W        W26203   6.115  11.854   2.281  0.1607  0.0133 -0.0742
 5924W        W26204  12.843  12.707   0.797 -0.3123  0.4111  0.1720
 5925W        W26205   6.056  18.609   2.089 -0.2458  0.3755 -0.4452
 5926W        W26206   0.168   5.085   1.076 -0.1917  0.2384 -0.1421
 5927W        W26207   8.418  18.989   3.133 -0.0107 -0.0748 -0.3328
 5928W        W26208   1.178   8.962   3.343  0.1431  0.2274  0.1143
 5929W        W26209  10.416  17.439   9.481 -0.2565 -0.1381 -0.2202
 5930W        W26210  18.907  10.696   0.112  0.1970  0.0224  0.0895
 5931W        W26211   1.993   9.628  13.290  0.1510  0.1671  0.0774
 5932W        W26212  13.836  18.858   0.631 -0.0274  0.0020 -0.4071
 5933W        W26213  15.918  11.672   0.873  0.1394  0.0712  0.0600
 5934W        W26214  15.475   9.935  10.364  0.1320 -0.1717 -0.1157
 5935W        W26215  13.555   0.059   1.524  0.2451 -0.6626  0.2012
 5936W        W26216   5.743   4.171  10.452  0.0942  0.0860  0.1429
 5937W        W26217   0.458  17.840   3.293  0.0794  0.0870 -0.2885
 5938W        W26218  16.924   9.732   3.098 -0.2592  0.0083 -0.3408
 5939W        W26219   5.553  15.541   4.031  0.1330  0.3051  0.1072
 5940W        W26220   8.430  14.240   0.283 -0.2636 -0.0202 -0.2852
 5941W        W26221  10.690   3.476   2.795  0.2596  0.0255 -0.2108
 5942W        W26222  19.713  18.350   2.433  0.1412 -0.0660 -0.1895
 5943W        W26223   4.068   6.670   3.026  0.3535 -0.2936 -0.0645
 5944W        W26224   7.582  15.319  13.568  0.2831 -0.1536 -0.0056
 5945W        W26225  19.039   8.307  13.481  0.0609 -0.3019 -0.0770
 5946W        W26226   3.362   3.750   9.438 -0.0279 -0.1732 -0.2754
 5947W        W26227  12.074  13.055   0.074 -0.5734 -0.1306 -0.1582
 5948W        W26228  16.554   2.414   2.755  0.1574 -0.1565 -0.0066
 5949W        W26229  14.808  18.028   1.924  0.0818  0.0053 -0.3538
 5950W        W26230   2.839   5.289   3.081  0.2169 -0.0390 -0.1417
 5951W        W26231  10.824   7.448  12.836 -0.2827  0.3908 -0.0459
 5952W        W26232  15.610   7.495   0.802 -0.3907  0.1048  0.1973
 5953W        W26233  14.308  18.334  13.063 -0.2641  0.0282  0.1820
 5954W        W26234  11.453  17.267   9.806  0.1301  0.1982 -0.1171
 5955W        W26235   7.807  12.750   1.281  0.1865 -0.3427  0.0082
 5956W        W26236  16.895  16.795  10.535 -0.0939  0.0583 -0.0418
 5957W        W26237  16.212   7.850  11.060 -0.0073  0.0401 -0.0084
 5958W        W26238   8.898  19.850   3.841 -0.1525  0.1122 -0.0916
 5959W        W26239   1.139   4.961  12.981  0.2105  0.1229 -0.6126
 5960W        W26240   0.957   2.437   5.241  0.0319 -0.3394  0.2557
 5961W        W26241   7.085  14.025   3.435  0.0878 -0.3100  0.0153
 5962W        W26242   1.219  17.959   1.220 -0.0102  0.1383  0.1494
 5963W        W26243  16.689  11.137  13.342 -0.1554  0.0520 -0.0577
 5964W        W26244  19.889   4.683   2.650 -0.0388 -0.1340 -0.0477
 5965W        W26245  11.726  15.332  10.566  0.1658 -0.2891  0.1318
 5966W        W26246   4.958  12.892   0.025  0.1404 -0.2587  0.1669
 5967W        W26247  18.359   4.294  11.366 -0.1347  0.0649  0.1958
 5968W        W26248  10.509   7.015  11.331 -0.1433 -0.1574  0.2357
 5969W        W26249   4.390   5.187   2.229 -0.0753  0.1636  0.0400
 5970W        W26250   6.236  12.311  12.656  0.1320  0.1849 -0.2919
 5971W        W26251  10.492  10.595  11.739 -0.0344 -0.1485 -0.2410
 5972W        W26252  17.632  14.557   1.653 -0.0808 -0.2615  0.1429
 5973W        W26253   3.582  14.113  12.768 -0.2730  0.1346 -0.0631
 5974W        W26254   5.896  12.950   4.109  0.1540 -0.1485  0.1543
 5975W        W26255   2.041  12.046  13.795 -0.2207 -0.0162  0.0235
 5976W        W26256   9.388  11.854   0.662 -0.1508 -0.1576  0.0899
 5977W        W26257  14.574   3.422  12.967  0.0841 -0.0536  0.1188
 5978W        W26258  16.944   6.488  11.367 -0.1006 -0.0659 -0.1417
 5979W        W26259   2.175  11.651   4.809  0.2766 -0.2419 -0.2860
 5980W        W26260   2.856  16.697   4.361  0.1584  0.1029 -0.0196
 5981W        W26261  10.795  16.928   0.441  0.1347 -0.0248  0.1520
 5982W        W26262   7.763   0.987  13.351  0.3176  0.1898 -0.0147
 5983W        W26263  10.682  15.840   0.995 -0.1987  0.3182  0.2935
 5984W        W26264   6.423  19.252   2.697  0.0356 -0.1590  0.2640
 5985W        W26265  16.693   9.697  12.542  0.0307 -0.0088 -0.0969
 5986W        W26266   5.498  13.658  11.324  0.0192 -0.2592  0.1887
 5987W        W26267   8.596   4.923  10.024  0.0786  0.0580 -0.0342
 5988W        W26268   0.821   3.902   1.223 -0.2917 -0.1437 -0.1782
 5989W        W26269  16.305  14.257   2.057  0.2187 -0.2611 -0.1035
 5990W        W26270   4.400   4.894   1.542 -0.0814  0.0914 -0.1131
 5991W        W26271   2.119  13.813   0.360 -0.0201 -0.0775  0.1272
 5992W        W26272   0.253   6.918  11.925 -0.2973 -0.4376 -0.1349
 5993W        W26273  15.833  15.547   3.181 -0.1089  0.4734  0.4844
 5994W        W26274  15.850   2.285  11.605 -0.0932  0.2810  0.0682
 5995W        W26275   4.162  12.510  10.780 -0.2450 -0.2089  0.1720
 5996W        W26276   0.710  10.650   0.599 -0.1975  0.0368  0.3318
 5997W        W26277   2.958   3.116  13.263  0.0812  0.3008 -0.0114
 5998W        W26278   9.125  14.222  10.338 -0.1994 -0.1688 -0.0564
 5999W        W26279  16.200   8.807   0.299 -0.2134  0.2039 -0.1541
 6000W        W26280  13.186   0.208  10.203 -0.2165 -0.0449  0.0200
 6001W        W26281  14.693  16.353  10.840 -0.0067  0.0008  0.0903
 6002W        W26282  18.477   1.812   2.023  0.4072 -0.1247  0.2038
 6003W        W26283  13.120  10.646  12.421  0.0463  0.0499 -0.0443
 6004W        W26284  12.923  13.168  12.372  0.1532  0.0986 -0.2786
 6005W        W26285  17.227  15.921   2.311  0.0027 -0.0621 -0.0574
 6006W        W26286  17.612  11.084   0.345  0.0968 -0.0456 -0.0934
 6007W        W26287  10.503   9.058  13.633 -0.2564  0.1723  0.1574
 6008W        W26288  12.970   6.876  10.971  0.0928 -0.0619 -0.1309
 6009W        W26289   2.349  18.073  13.359 -0.0154 -0.3216  0.2936
 6010W        W26290   7.388  18.033   1.364 -0.3128 -0.1462  0.1904
 6011W        W26291   5.513   6.208  13.295 -0.0440  0.3362 -0.0848
 6012W        W26292   6.268   9.478  13.058 -0.0126 -0.2434  0.2287
 6013W        W26293   0.350   5.387   1.776 -0.2862 -0.4163  0.0204
 6014W        W26294   2.262   8.463  13.776 -0.3016  0.2840 -0.1592
 6015W        W26295   4.228   0.075  13.480  0.0716  0.0634 -0.0479
 6016W        W26296   0.896   0.852   1.002  0.0160 -0.1621 -0.1820
 6017W        W26297  13.016   0.665  13.690  0.2983  0.0098  0.3003
 6018W        W26298  10.632   4.964   9.039  0.4975  0.0273 -0.1528
 6019W        W26299  19.750  16.805   3.472 -0.0914 -0.4330 -0.0530
 6020W        W26300  10.016   4.081  10.287  0.0043 -0.0373 -0.1530
 6021W        W26301   5.921   4.843   1.121 -0.2555  0.1794  0.0782
 6022W        W26302  19.013  10.172  12.019  0.0174 -0.2820  0.0893
 6023W        W26303   4.695   7.657  11.383 -0.3253  0.0454 -0.0245
 6024W        W26304  18.062   8.240  10.243 -0.1792  0.0907 -0.2138
 6025W        W26305   8.393  17.080   4.219 -0.2894 -0.0940  0.2739
 6026W        W26306  13.395  13.450  11.769  0.3335  0.1312 -0.1552
 6027W        W26307  16.761  16.667  12.838 -0.1484 -0.0271 -0.0749
 6028W        W26308   4.002   5.527   1.325 -0.0862 -0.3178  0.1708
 6029W        W26309   3.525  15.222   1.367 -0.0909 -0.0114  0.2894
 6030W        W26310   4.443   9.586   5.052 -0.1075  0.0906 -0.0291
 6031W        W26311   5.547   1.600  12.417 -0.1776 -0.0548 -0.0403
 6032W        W26312   3.699  10.610   4.761 -0.1675 -0.2598  0.0967
 6033W        W26313   9.156   4.806   0.664 -0.1858 -0.1122 -0.0611
 6034W        W26314  16.426   8.773  11.172 -0.2672 -0.1041  0.2331
 6035W        W26315  14.960   1.905   3.134  0.1102  0.0989  0.1496
 6036W        W26316  17.254  11.179  10.134  0.0433  0.0723 -0.2112
 6037W        W26317  16.205   0.154  13.468  0.3200 -0.1387 -0.1973
 6038W        W26318  13.609  12.754  10.132  0.2049 -0.4890  0.1615
 6039W        W26319  18.686  12.528   1.963 -0.2575 -0.1524  0.0474
 6040W        W26320   1.398   6.917  13.324 -0.1272  0.6436  0.2361
 6041W        W26321   0.712   4.995   4.291 -0.1993  0.0217 -0.5545
 6042W        W26322  11.712   9.204   2.146  0.3424  0.1549 -0.1527
 6043W        W26323  11.685  19.223   3.778 -0.1713  0.0279  0.4041
 6044W        W26324  10.580  14.874  10.859 -0.1368 -0.0248 -0.3917
 6045W        W26325   6.032  16.724   1.471  0.0685  0.3669 -0.4635
 6046W        W26326   9.656   2.985  10.593 -0.0756 -0.0907  0.0883
 6047W        W26327   9.135  13.388   5.064  0.0541  0.1151  0.0785
 6048W        W26328  18.798  18.875  11.951 -0.3150 -0.2429  0.1541
 6049W        W26329  13.936  13.545  12.202 -0.2242 -0.0846  0.0693
 6050W        W26330   3.967  11.457  10.167  0.0948  0.1841  0.0057
 6051W        W26331   8.342  11.469   1.017  0.2047 -0.1744 -0.0356
 6052W        W26332  19.360  12.816  13.827 -0.1377  0.0150  0.0153
 6053W        W26333   6.433   6.339  11.782  0.2372 -0.1229 -0.2244
 6054W        W26334  10.620   0.442   1.587 -0.2935  0.0206 -0.0371
 6055W        W26335   0.909   8.765  10.837  0.0525  0.0976 -0.2086
 6056W        W26336   7.906  11.716   2.317 -0.2366 -0.2249 -0.3345
 6057W        W26337   0.911   7.737   3.234 -0.2518  0.1604 -0.2359
 6058W        W26338  15.933  15.136  10.895 -0.3752  0.2480  0.2560
 6059W        W26339   4.276  16.884  10.641  0.2213  0.0523  0.4143
 6060W        W26340  14.690  11.389   3.698 -0.2792  0.4367 -0.3054
 6061W        W26341   0.386  13.096  11.064 -0.2569 -0.0190 -0.0334
 6062W        W26342   5.634   7.443   3.623  0.2743 -0.2863 -0.0512
 6063W        W26343  17.598  18.437  12.349  0.3808 -0.0081 -0.0409
 6064W        W26344  18.676   2.354   0.874 -0.1625 -0.2177  0.2208
 6065W        W26345   5.185   2.181   2.395 -0.0787 -0.0445 -0.1962
 6066W        W26346   7.637  10.926   0.716  0.2838 -0.2671  0.0067
 6067W        W26347   7.647   6.894   0.483 -0.2097  0.1202  0.2088
 6068W        W26348   5.878   9.434   1.761  0.0026 -0.4559 -0.0532
 6069W        W26349  12.802  16.997   1.707 -0.1079  0.0953  0.2799
 6070W        W26350   0.767  14.734   8.973  0.2014  0.1986  0.1364
 6071W        W26351   7.289  19.366   3.659  0.0994  0.0225 -0.0604
 6072W        W26352   3.294  10.472  11.102  0.0666 -0.0501 -0.1889
 6073W        W26353  11.708   0.339  10.832 -0.0782 -0.0357  0.2157
 6074W        W26354   3.954   0.446   2.142  0.0686  0.0451  0.1471
 6075W        W26355  17.618  18.406   2.094 -0.2412 -0.2928  0.0995
 6076W        W26356   9.627   8.378   1.484  0.0636  0.1225  0.2180
 6077W        W26357  11.480   4.591  10.784 -0.2176 -0.3473 -0.1804
 6078W        W26358  17.594   6.667  10.161  0.1270  0.1862 -0.4903
 6079W        W26359  10.838   9.183   1.017  0.1361  0.3689 -0.1819
 6080W        W26360  14.305  11.988   9.725 -0.2281 -0.3381  0.1049
 6081W        W26361  13.066   4.000   9.559 -0.2129 -0.1355  0.4068
 6082W        W26362   0.107  18.448   3.276 -0.2432 -0.1047 -0.0771
 6083W        W26363  11.314   2.748  11.728  0.2589 -0.2197  0.2746
 6084W        W26364   1.499   4.518   1.732  0.0306  0.1993 -0.0228
 6085W        W26365   0.990   4.184   3.049  0.5272 -0.0893 -0.1590
 6086W        W26366   6.875  19.398  12.787  0.2384  0.3168 -0.2056
 6087W        W26367  17.407  14.096   3.414  0.0648  0.2258 -0.1787
 6088W        W26368  16.556   4.799   3.394 -0.3273 -0.2200  0.1703
 6089W        W26369   7.797  13.109   1.760 -0.4247 -0.0096  0.1030
 6090W        W26370  18.800   4.900  12.887 -0.0324 -0.2153  0.0234
 6091W        W26371   6.122   6.869  10.346  0.3604 -0.2429  0.1208
 6092W        W26372   6.159   1.628  12.603  0.1568  0.0219 -0.1811
 6093W        W26373  15.536  18.615  11.631 -0.1856 -0.0718  0.2019
 6094W        W26374   5.206   4.482  11.711 -0.2218 -0.1746  0.0413
 6095W        W26375  12.620   6.714   8.744 -0.0249  0.2126 -0.0657
 6096W        W26376  11.181  11.028   0.838  0.1808  0.0179 -0.1080
 6097W        W26377   3.528  19.221   3.458  0.1051 -0.4365 -0.1164
 6098W        W26378   3.693   2.165  12.712 -0.1585  0.4571  0.1647
 6099W        W26379   3.047   3.699   0.503 -0.5461  0.0302 -0.1887
 6100W        W26380  11.453  13.772   0.071  0.0430  0.0223  0.0986
 6101W        W26381   2.342  19.287   2.925 -0.2230 -0.3968 -0.1592
 6102W        W26382   1.312  12.908  13.012  0.2964  0.1159 -0.3502
 6103W        W26383   3.332  15.283   0.838 -0.0340  0.0854 -0.2004
 6104W        W26384   4.679   2.283  13.109  0.2186  0.2260  0.2161
 6105W        W26385  17.095   8.289   2.744  0.2194  0.4787  0.0785
 6106W        W26386  16.005  19.563  12.652 -0.1873  0.0920 -0.1027
 6107W        W26387   0.836  14.310   2.659 -0.1333  0.1545 -0.0890
 6108W        W26388  16.245  11.238  10.296 -0.0116  0.1426  0.0945
 6109W        W26389   2.432   5.428   0.363  0.3868 -0.0445 -0.0677
 6110W        W26390   6.573   3.305   2.945  0.0511 -0.0474 -0.1791
 6111W        W26391   7.349   2.998   0.831  0.0825 -0.2383  0.2878
 6112W        W26392  12.628  15.664   1.984 -0.0375  0.3476  0.4810
 6113W        W26393  15.284  17.447  12.608  0.3891 -0.1300  0.2290
 6114W        W26394   2.389   9.701  11.361  0.1608  0.1621  0.0409
 6115W        W26395   3.336  16.622   1.226 -0.1064 -0.1441 -0.0493
 6116W        W26396  17.333  11.690  10.235  0.0758  0.0505  0.1324
 6117W        W26397  18.519   0.122  13.830  0.1760 -0.0648 -0.3723
 6118W        W26398   7.308   5.346  12.569  0.1620 -0.2181  0.1198
 6119W        W26399  18.546  16.678  13.447  0.1865  0.2404  0.2615
 6120W        W26400  10.886   4.674   4.455 -0.2813  0.1501 -0.2310
 6121W        W26401   3.812   4.683  12.946 -0.0897  0.2596 -0.0882
 6122W        W26402   7.344   2.587   3.772  0.1865  0.2262 -0.3438
 6123W        W26403  13.138  17.275  10.626 -0.0161 -0.2692  0.2639
 6124W        W26404   1.137   6.325   1.441  0.1962 -0.2226 -0.0180
 6125W        W26405  10.172  13.798   3.476  0.1129 -0.1292  0.0849
 6126W        W26406   0.609   1.189  12.753  0.1060 -0.2040  0.4771
 6127W        W26407  17.200   3.591   8.879  0.0266 -0.1586  0.4147
 6128W        W26408  13.869   6.016   3.481 -0.1666 -0.1849 -0.0633
 6129W        W26409   6.832   4.374   2.204  0.2819  0.1304  0.0438
 6130W        W26410  13.897   8.387   3.047 -0.4962  0.1700  0.1574
 6131W        W26411  18.258  17.935   2.779  0.1655  0.2110  0.1702
 6132W        W26412   7.813   4.834   1.276 -0.3379 -0.0497 -0.1950
 6133W        W26413  16.473   6.040  10.979  0.0724 -0.5015 -0.1881
 6134W        W26414   7.195   1.081  11.455 -0.0525  0.1172  0.0312
 6135W        W26415  17.788  12.949   9.180 -0.2051  0.2800  0.0774
 6136W        W26416   0.896   4.495   2.666  0.4220 -0.2166 -0.4264
 6137W        W26417  18.448   6.648  13.149  0.2250 -0.0423  0.0689
 6138W        W26418   7.936   3.506   0.041 -0.1026  0.2791  0.1022
 6139W        W26419   4.687   9.352   0.459 -0.2737  0.0577  0.1556
 6140W        W26420  18.447   9.177  11.565 -0.1871  0.1236 -0.0235
 6141W        W26421  17.492   0.084   8.536 -0.3112 -0.0417 -0.1410
 6142W        W26422  17.418   4.211  11.634 -0.0829 -0.0035 -0.0837
 6143W        W26423  18.152  11.551   0.755 -0.3026 -0.0455 -0.2142
 6144W        W26424   0.510  10.459   1.110  0.0894 -0.0070 -0.4910
 6145W        W26425   9.336  13.244  11.609 -0.1320 -0.0440  0.0470
 6146W        W26426   4.946  11.918  13.167  0.3062  0.4077 -0.6030
 6147W        W26427  18.833  19.341  11.806 -0.2022 -0.1391  0.0278
 6148W        W26428   9.173  13.789  11.007 -0.0076  0.1167  0.1490
 6149W        W26429   6.096  17.422  10.844  0.3382 -0.0801  0.0060
 6150W        W26430   6.603   2.282   0.419 -0.0076  0.0363 -0.4784
 6151W        W26431   8.715   8.449  11.402  0.2443 -0.2054  0.0058
 6152W        W26432  19.195  19.928   1.226 -0.2187 -0.2983  0.3103
 6153W        W26433   1.277  19.062   3.445 -0.2232 -0.0074  0.0965
 6154W        W26434  10.655   9.677  11.044  0.0367  0.3590  0.2311
 6155W        W26435   1.962  18.611  10.595 -0.0996 -0.1925  0.2600
 6156W        W26436   2.245   1.655  10.619 -0.3416 -0.1355  0.1941
 6157W        W26437  15.036  10.742   1.524 -0.4224  0.0888  0.1044
 6158W        W26438  14.281   7.550  10.690  0.1742  0.1301 -0.0608
 6159W        W26439   7.505  15.767   3.311  0.2793  0.0507  0.2281
 6160W        W26440   9.759  18.443   3.611 -0.2262  0.0259  0.1661
 6161W        W26441  15.999  12.499  12.129  0.0709 -0.1440 -0.0478
 6162W        W26442  16.207  16.164  10.660 -0.0610  0.1683  0.1909
 6163W        W26443  16.106  19.864  11.394  0.0360 -0.1275 -0.1417
 6164W        W26444   4.442  10.342  12.680  0.1638 -0.0487  0.1482
 6165W        W26445  17.266  13.882   2.068  0.0612 -0.5501 -0.1788
 6166W        W26446   3.764  10.454  11.377  0.3330 -0.1806 -0.2920
 6167W        W26447  17.498   7.033  10.674  0.0361  0.0692 -0.2599
 6168W        W26448  17.947  19.634   3.463  0.0936 -0.1463  0.0628
 6169W        W26449   6.243  16.643   4.318  0.2154  0.4539 -0.0974
 6170W        W26450  12.154  15.400  10.335  0.0559 -0.0135 -0.0426
 6171W        W26451   4.395  18.808   2.091 -0.0148 -0.2509  0.0276
 6172W        W26452  16.056  18.417   1.590 -0.1118 -0.1005  0.0202
 6173W        W26453   8.070   4.971  12.982 -0.2140  0.0405 -0.2350
 6174W        W26454  11.583   0.944   3.093  0.1263 -0.1954 -0.0467
 6175W        W26455  10.091  17.890   1.110  0.1025 -0.0370 -0.1245
 6176W        W26456   7.977  16.755  10.253 -0.0135  0.2717  0.1116
 6177W        W26457  19.103  15.079   2.116  0.1535 -0.1023  0.0917
 6178W        W26458  13.236  12.545  11.494  0.0025  0.0269 -0.1047
 6179W        W26459  18.405  10.210   3.272 -0.0808 -0.2315 -0.0427
 6180W        W26460  15.997   3.333  10.621  0.1888 -0.2582  0.1857
 6181W        W26461  11.878   9.278  11.926  0.1325 -0.0621  0.1573
 6182W        W26462  19.547  18.886  10.164 -0.1181 -0.0516 -0.0376
 6183W        W26463   7.481  11.247  11.541  0.0104 -0.4578  0.3220
 6184W        W26464   8.011   9.002  13.285  0.2883 -0.3613 -0.2558
 6185W        W26465  14.127  11.067  13.249 -0.1642 -0.1977 -0.2157
 6186W        W26466  18.262   6.844  11.913  0.1444 -0.1105 -0.0155
 6187W        W26467   3.854   1.330  13.135 -0.0893  0.1244  0.2341
 6188W        W26468  17.232  13.556  13.218  0.1687  0.2682 -0.1562
 6189W        W26469   9.429  16.621   3.270  0.1287  0.0228 -0.1215
 6190W        W26470  12.209  11.125  11.171 -0.0462  0.1512  0.2179
 6191W        W26471  17.118  11.406   2.242 -0.2656  0.1911  0.0882
 6192W        W26472   1.330  17.752  13.381  0.0918 -0.2284 -0.2330
 6193W        W26473  10.123   8.039  12.276  0.2717  0.1954 -0.0443
 6194W        W26474   5.261  18.754  10.510 -0.0466 -0.3317 -0.0746
 6195W        W26475  19.649  15.051   1.955  0.1541  0.0083 -0.0063
 6196W        W26476   1.635  11.515   0.756 -0.0379 -0.0888  0.0344
 6197W        W26477   6.678   8.746  12.593  0.0651 -0.1291  0.1575
 6198W        W26478  14.033   4.015   0.433 -0.0540 -0.0977 -0.0472
 6199W        W26479  17.665   5.356   0.576  0.1503 -0.2741  0.0917
 6200W        W26480  15.493  15.974   0.970  0.1377  0.2014 -0.0117
 6201W        W26481   6.295  18.958  12.695  0.1497 -0.1695  0.3033
 6202W        W26482   9.206  12.782   3.585 -0.0703  0.0059 -0.0194
 6203W        W26483  11.776  12.187   1.402 -0.1820 -0.1315  0.0175
 6204W        W26484   9.251   8.800  13.035  0.0031  0.0774 -0.0237
 6205W        W26485   9.005   6.932  13.050 -0.1938 -0.0405 -0.0705
 6206W        W26486  19.114   2.770  11.146  0.0490 -0.3872  0.2935
 6207W        W26487   8.223   5.650   3.605 -0.1454  0.2948 -0.0218
 6208W        W26488   8.073  13.624  13.371 -0.0685 -0.4090 -0.3214
 6209W        W26489  13.834  16.191  13.073 -0.1404  0.1277 -0.0994
 6210W        W26490  18.001   8.102   3.134 -0.1255 -0.1831 -0.1278
 6211W        W26491  11.221   3.366   2.191 -0.0912  0.0436  0.2621
 6212W        W26492  18.601  15.318  10.329 -0.2306  0.0433  0.1535
 6213W        W26493   3.428   4.598  10.107 -0.1272  0.1089 -0.1312
 6214W        W26494  17.259  18.157   0.210  0.1263 -0.2055 -0.2318
 6215W        W26495  10.595   1.260   3.717  0.0343  0.1809 -0.0673
 6216W        W26496   3.466  16.340   0.181  0.1299  0.0595  0.1354
 6217W        W26497   8.464   6.885  10.865 -0.2803 -0.3824 -0.2081
 6218W        W26498   1.526  11.778  11.043 -0.3416  0.0451  0.0288
 6219W        W26499   3.835   3.789   2.934  0.1607  0.0479  0.0829
 6220W        W26500   7.635   5.021  12.745  0.1883 -0.1296 -0.3255
 6221W        W26501   7.556   2.057   1.540 -0.1678  0.1626  0.1091
 6222W        W26502   6.807   0.368   3.237 -0.1407 -0.1039  0.0191
 6223W        W26503   0.200   7.263  11.018  0.1011  0.2146 -0.1574
 6224W        W26504   7.435   5.073   4.387  0.3568 -0.0866  0.1323
 6225W        W26505  15.904  18.453  11.257  0.1373 -0.4252  0.0821
 6226W        W26506   8.860  19.938  13.332  0.4726 -0.2422  0.1232
 6227W        W26507  18.273   9.791   0.665  0.0946  0.3428  0.0937
 6228W        W26508   0.836  10.046   4.641  0.5891  0.2186  0.1687
 6229W        W26509  16.019   9.331   1.700 -0.0921 -0.2966 -0.0192
 6230W        W26510  13.264  19.267   2.217  0.0696 -0.2197  0.1413
 6231W        W26511   7.149   8.244   1.370  0.0635 -0.4477 -0.0288
 6232W        W26512   1.397  15.406   1.474  0.1745  0.0697 -0.2311
 6233W        W26513  14.180   0.428   9.550  0.1524 -0.0789  0.0170
 6234W        W26514  16.138   1.388  12.175  0.0964  0.3600 -0.0841
 6235W        W26515  16.214   8.476   1.942  0.0107  0.1094 -0.0446
 6236W        W26516   8.912   2.004  11.079 -0.0912  0.0925 -0.0076
 6237W        W26517  10.411   2.625  11.108  0.0521 -0.2304  0.1132
 6238W        W26518  10.020  19.846  13.376  0.2704  0.2981 -0.4122
 6239W        W26519  13.223  10.608   3.007 -0.0289 -0.3427  0.0167
 6240W        W26520  11.861  14.605  11.353  0.3223 -0.0226 -0.0022
 6241W        W26521  13.199   9.359  10.490 -0.1329  0.1453 -0.0103
 6242W        W26522   4.356  12.408   0.759  0.3262 -0.0825  0.0123
 6243W        W26523  10.364  17.941   3.658  0.2018 -0.0798  0.2450
 6244W        W26524  17.631  12.123  10.302 -0.0283  0.0780 -0.1484
 6245W        W26525  17.964  12.384  12.346 -0.0440 -0.3370  0.0185
 6246W        W26526  12.473  17.840   1.229 -0.1507  0.2189 -0.1809
 6247W        W26527  10.683   0.262  10.864  0.0134  0.0749  0.1635
 6248W        W26528   7.551  12.544   2.102  0.0940  0.1820  0.1833
 6249W        W26529   4.834   8.267  11.934 -0.2564 -0.1237  0.1189
 6250W        W26530  19.754  18.333   0.550  0.0261  0.1546  0.1678
 6251W        W26531   0.835  16.419   0.433 -0.1508  0.2160 -0.0384
 6252W        W26532  12.766  10.191  13.726  0.1116  0.3682 -0.0286
 6253W        W26533   3.776   5.789   2.456  0.1428  0.2629 -0.3250
 6254W        W26534  15.855   3.513   3.354 -0.0035 -0.2475 -0.0594
 6255W        W26535  13.579  16.189   1.017  0.1348 -0.2005  0.1206
 6256W        W26536  16.137   9.273   0.106 -0.2053 -0.2813  0.2909
 6257W        W26537   5.062   1.482   0.814  0.0736  0.1129 -0.2000
 6258W        W26538   5.303   2.816  13.244  0.0082 -0.1443 -0.0034
 6259W        W26539   9.346   0.614   0.734  0.0658  0.0863  0.0683
 6260W        W26540  10.714   1.677   3.283 -0.4876  0.0037  0.1392
 6261W        W26541   3.113   5.006  11.837  0.0050 -0.0805 -0.0790
 6262W        W26542  15.518  14.040   1.975  0.1838  0.1092  0.1101
 6263W        W26543   5.048   6.099  13.536  0.1365  0.2524  0.2696
 6264W        W26544  12.888  15.175  12.358 -0.2272  0.0795  0.2291
 6265W        W26545  13.248  16.354   3.030 -0.1369  0.2416 -0.2750
 6266W        W26546  13.423  18.747   1.718  0.2023  0.1902 -0.1893
 6267W        W26547   2.100   9.841   1.146 -0.2355 -0.0239 -0.1015
 6268W        W26548  15.340   6.467   2.926  0.0093 -0.2361 -0.1369
 6269W        W26549   0.826   0.186  13.585  0.1786  0.1277  0.0022
 6270W        W26550   8.968  10.593  13.760 -0.1167 -0.4625  0.0418
 6271W        W26551  19.004  11.477   3.386  0.2853 -0.0364 -0.0488
 6272W        W26552  10.281  11.763   4.315  0.3320  0.0422 -0.0175
 6273W        W26553  11.777  10.392  12.370 -0.0568  0.0023  0.1433
 6274W        W26554  11.832   5.871   0.872  0.0739 -0.2511 -0.2393
 6275W        W26555   4.161   0.453  13.805 -0.0019  0.0880 -0.1143
 6276W        W26556  11.133  14.383   1.177 -0.1115 -0.2231  0.1413
 6277W        W26557   6.548  10.365  10.557  0.2014 -0.1652 -0.0502
 6278W        W26558  11.030   4.381   2.554  0.0138 -0.2471 -0.0435
 6279W        W26559  13.788   8.152   2.627 -0.1956  0.0043  0.3081
 6280W        W26560  13.957  18.861  10.379  0.2821 -0.3675 -0.3121
 6281W        W26561   9.019   8.889   4.481  0.2099 -0.2615  0.1602
 6282W        W26562  16.759   7.716   1.833 -0.0725 -0.0308 -0.0161
 6283W        W26563  11.643  18.456  12.173  0.1489 -0.0672 -0.0578
 6284W        W26564   5.881   7.299  10.713 -0.3508 -0.4848  0.1214
 6285W        W26565  17.503  15.237   0.610  0.3162 -0.2082  0.1607
 6286W        W26566  18.656   3.960   1.220 -0.0126 -0.0321 -0.0218
 6287W        W26567   0.565  18.318   3.434 -0.0613  0.1209  0.0834
 6288W        W26568   9.263   0.275  11.194  0.1758  0.0696 -0.1588
 6289W        W26569  13.768   3.787  13.355  0.5216 -0.4529  0.0398
 6290W        W26570  11.266  15.118  10.746 -0.0581  0.2217  0.0692
 6291W        W26571  12.107  15.008   9.730 -0.2224  0.2103 -0.0260
 6292W        W26572  19.675  13.739  13.696  0.3443  0.0213  0.2727
 6293W        W26573  11.602   1.000   2.522  0.1827 -0.1404 -0.2192
 6294W        W26574  11.271   0.866  13.787 -0.0520  0.4342 -0.1142
 6295W        W26575  11.164  10.140  10.656 -0.0517 -0.7017 -0.0769
 6296W        W26576  15.282  12.000  10.148 -0.0116 -0.2852 -0.0502
 6297W        W26577   0.540  11.087   2.384 -0.1882  0.3565  0.1563
 6298W        W26578  17.119   7.867  13.060  0.2023 -0.4070 -0.0865
 6299W        W26579  11.319  12.101   1.212 -0.2652 -0.2210  0.0310
 6300W        W26580   5.131  14.837  10.540  0.0135 -0.2531 -0.2736
 6301W        W26581   5.716  16.299  12.978 -0.2528 -0.0588  0.2266
 6302W        W26582  19.163   7.762   0.413  0.0808 -0.0421 -0.2038
 6303W        W26583  18.855   4.938  11.402 -0.1548 -0.2661  0.0694
 6304W        W26584  19.918  17.817  12.614  0.0808  0.2279  0.0806
 6305W        W26585  13.327  19.794   1.100  0.0251 -0.3178  0.0956
 6306W        W26586   5.838  11.554   3.002  0.1178 -0.0607 -0.2239
 6307W        W26587  12.941  13.960   2.540 -0.0059  0.2185  0.4185
 6308W        W26588   5.226  16.434  11.615 -0.1117 -0.3481  0.4130
 6309W        W26589  12.659  17.961  10.195  0.1605  0.1505  0.0486
 6310W        W26590  13.740   7.438  10.592 -0.1071 -0.1429  0.0699
 6311W        W26591  12.523  13.699  13.246  0.4477 -0.0816 -0.3324
 6312W        W26592  18.642  12.707   9.619 -0.0606 -0.1384 -0.0920
 6313W        W26593  17.575   1.285  10.073  0.0677  0.1732  0.0301
 6314W        W26594  19.526  18.592  12.940  0.1429  0.1997  0.0676
 6315W        W26595   0.762   1.931  11.664  0.1990 -0.1753 -0.2570
 6316W        W26596  15.300  17.846  12.225  0.0975  0.0575 -0.0167
 6317W        W26597  15.089   7.330   0.238  0.0523 -0.1866 -0.2078
 6318W        W26598  19.443  14.840   9.719  0.1690 -0.1413 -0.2171
 6319W        W26599  16.572  13.798   1.141  0.0969 -0.0104 -0.1153
 6320W        W26600   8.514   0.844   3.464  0.0524  0.1468  0.0464
 6321W        W26601  14.040  10.694   0.137  0.2542  0.0496 -0.1804
 6322W        W26602  13.689  17.369  11.372  0.0131 -0.1322  0.1445
 6323W        W26603  12.143   6.384   1.001 -0.1159 -0.0862 -0.0399
 6324W        W26604   5.786  19.099   3.431 -0.1417 -0.0178  0.0119
 6325W        W26605  11.106   6.570   1.200 -0.2684  0.1307  0.0246
 6326W        W26606   6.646  10.944  11.931  0.2501  0.0668 -0.2670
 6327W        W26607   1.636  19.909  11.209 -0.1972  0.2156 -0.3562
 6328W        W26608   6.211  16.094   3.401 -0.2397  0.2317  0.2732
 6329W        W26609   8.754  10.607  10.895 -0.0479 -0.0625 -0.2560
 6330W        W26610  14.779   0.348   1.122 -0.0443  0.0321  0.1004
 6331W        W26611   4.543   6.188   0.407  0.1895 -0.0755  0.1290
 6332W        W26612   9.530   8.119  11.480  0.3298  0.1275  0.0667
 6333W        W26613   3.502  16.516  12.727 -0.0076 -0.1676 -0.2809
 6334W        W26614   3.035  14.124  13.225  0.2799  0.0488  0.1153
 6335W        W26615   2.744  13.441  13.344 -0.1655 -0.0759  0.2412
 6336W        W26616  12.026   2.268   0.752  0.1849 -0.0222 -0.1551
 6337W        W26617  14.244  14.923   3.751 -0.2150  0.2295 -0.3360
 6338W        W26618  12.828  19.615  12.452  0.0491 -0.1444  0.1552
 6339W        W26619  16.406  18.822   0.009 -0.2005  0.1385 -0.1598
 6340W        W26620  17.085  17.163   3.287  0.3547  0.0268 -0.1842
 6341W        W26621  10.674  18.450   1.567 -0.0216  0.2538  0.1001
 6342W        W26622  13.305  18.428   9.589  0.0356 -0.0542  0.0250
 6343W        W26623   8.552   9.568  11.753  0.1804 -0.1306 -0.0475
 6344W        W26624   6.484  12.638  11.435  0.0430  0.1203 -0.1792
 6345W        W26625   8.220  17.007  13.370 -0.2654 -0.3093  0.0366
 6346W        W26626  17.476   6.644  10.917  0.1253  0.0368  0.2019
 6347W        W26627   1.373  12.347  10.274 -0.1134  0.0535  0.2436
 6348W        W26628  18.677   6.625  10.155 -0.1939  0.3104  0.0852
 6349W        W26629   1.957  18.529   3.810  0.2128  0.2267 -0.2242
 6350W        W26630   6.185   2.882   3.854  0.1510 -0.0789 -0.1678
 6351W        W26631   3.237   2.425  10.310 -0.2113 -0.1241 -0.0717
 6352W        W26632  10.307  10.645   3.063  0.2201 -0.2428  0.2166
 6353W        W26633  15.082   3.558   3.033 -0.0774  0.1418  0.1006
 6354W        W26634  15.327   7.318   2.992 -0.0226  0.2105  0.2706
 6355W        W26635   6.414   2.492  12.234  0.0636  0.1097  0.2135
 6356W        W26636   0.071   9.646  10.451  0.1136 -0.0871  0.2604
 6357W        W26637   3.141   8.439   2.070  0.2488 -0.2525 -0.1904
 6358W        W26638   5.881   6.531   1.583 -0.0885  0.1786  0.0306
 6359W        W26639   2.777   8.374   3.670  0.1340 -0.1184 -0.1351
 6360W        W26640  16.363  15.675  11.594  0.0602 -0.0034  0.1812
 6361W        W26641  16.732  12.687  12.525 -0.3009 -0.0597  0.2069
 6362W        W26642   0.397   7.214   2.617 -0.0546 -0.1179  0.3628
 6363W        W26643   2.796  10.174  10.592  0.1920  0.0672 -0.1837
 6364W        W26644   4.145  17.679  12.513  0.0046  0.0568  0.0044
 6365W        W26645   9.191  18.311   2.102 -0.0133 -0.1062 -0.3358
 6366W        W26646  11.739  10.541   3.173  0.2502 -0.4434 -0.1291
 6367W        W26647  11.546  16.527  12.681  0.4806 -0.2099  0.3096
 6368W        W26648  19.950  14.175  13.779  0.4577 -0.1562  0.2784
 6369W        W26649   5.802   9.174  13.011 -0.3460  0.2248  0.0597
 6370W        W26650  16.059  16.760   3.483  0.0658  0.1733  0.1959
 6371W        W26651  18.167   3.238   3.260 -0.1637  0.1729  0.1079
 6372W        W26652  19.813   7.066   2.171 -0.3090 -0.1921  0.1109
 6373W        W26653   6.462  16.102   4.406 -0.0287  0.0153  0.0648
 6374W        W26654  18.750   1.369  13.661  0.1145 -0.3847 -0.0185
 6375W        W26655  18.290   9.510  10.301  0.3899  0.2704 -0.1880
 6376W        W26656   8.872  19.941  12.847 -0.2174  0.0444 -0.1385
 6377W        W26657   3.301   6.968   1.999  0.0530 -0.0107  0.0418
 6378W        W26658  13.076  17.168   1.176  0.0596 -0.0598 -0.2510
 6379W        W26659  16.729  11.167   9.860 -0.0693  0.1792  0.2044
 6380W        W26660   8.849  18.446  10.708  0.0601 -0.2402 -0.2819
 6381W        W26661  11.751   2.293   2.791 -0.4136 -0.1746  0.3674
 6382W        W26662  18.941  15.419  12.686  0.0007 -0.0070 -0.1602
 6383W        W26663   7.815  10.541   1.810 -0.0577  0.2665  0.2027
 6384W        W26664   6.881   3.112  12.493  0.2184  0.1759 -0.0718
 6385W        W26665   9.857  16.788  10.170  0.1028 -0.0304 -0.4292
 6386W        W26666  11.169  14.053   2.800 -0.1110 -0.0993 -0.2535
 6387W        W26667   9.305  18.188   1.229 -0.0767  0.0901  0.0713
 6388W        W26668  16.859  11.457  11.960  0.1211 -0.1695 -0.3141
 6389W        W26669  11.225  10.752  10.486  0.0457  0.0458 -0.3254
 6390W        W26670   5.744  14.991   1.939 -0.0215  0.1222  0.1885
 6391W        W26671   3.572   1.269  11.403  0.0462  0.0884 -0.2123
 6392W        W26672  15.641  18.779   3.677 -0.0515 -0.3438  0.2699
 6393W        W26673  19.337   9.334   2.367  0.0712 -0.0349  0.0360
 6394W        W26674   2.028  19.639  10.860 -0.0569 -0.2377 -0.3367
 6395W        W26675  12.459   1.348  10.189  0.0838  0.1469 -0.2949
 6396W        W26676   2.854   6.769   0.032  0.1089 -0.1641 -0.2438
 6397W        W26677   2.363  16.894   1.342 -0.1890  0.1697  0.0123
 6398W        W26678   6.088  19.538   3.382 -0.1640  0.0288  0.2052
 6399W        W26679  13.870  12.927   3.700  0.3147 -0.2450  0.2595
 6400W        W26680  19.872  19.688  12.771 -0.0964  0.0405 -0.1436
 6401W        W26681  12.777  15.161   1.461 -0.0435  0.0523  0.1106
 6402W        W26682  10.781   6.184   1.154  0.0133 -0.1129  0.2205
 6403W        W26683  11.101  10.184   0.912 -0.0243  0.1262 -0.0888
 6404W        W26684  17.128  15.342   1.853  0.0171  0.3967  0.0368
 6405W        W26685  19.475   6.720  10.845 -0.0985  0.0747  0.2741
 6406W        W26686  17.369  10.825   9.698  0.0432  0.0752  0.0072
 6407W        W26687   2.373   6.393   3.027 -0.2157  0.1251  0.1048
 6408W        W26688   8.884  17.501  13.825 -0.1034  0.1383 -0.0466
 6409W        W26689  17.539  10.960   9.251 -0.2120  0.2412  0.1207
 6410W        W26690   7.847   0.497  11.162  0.2225 -0.0513  0.1184
 6411W        W26691  19.067   2.656  11.804 -0.1242  0.2167  0.0134
 6412W        W26692  14.830   1.179  11.236  0.1469 -0.1057  0.1702
 6413W        W26693   6.949   2.956   1.101 -0.0618  0.1489 -0.0086
 6414W        W26694  15.250   5.769   1.341 -0.3377 -0.0436  0.3252
 6415W        W26695  18.336  16.157  11.730  0.1302  0.2504  0.0720
 6416W        W26696   5.563   5.566   0.860  0.2255 -0.0293 -0.3508
 6417W        W26697   0.174   5.074   2.248 -0.1224 -0.0373 -0.2366
 6418W        W26698  16.443  12.371  12.858  0.2397  0.0010 -0.3193
 6419W        W26699   8.011  19.492   4.599  0.1624  0.0883 -0.0615
 6420W        W26700  13.764  18.675   2.223 -0.0685  0.0774  0.2600
 6421W        W26701  17.366  17.347  11.499  0.2919  0.0950  0.1316
 6422W        W26702  15.325  18.522   0.451  0.1200 -0.1933  0.0785
 6423W        W26703   2.103  17.128   0.368 -0.1670 -0.1158  0.1468
 6424W        W26704  16.619  12.371  11.815 -0.0785 -0.2195  0.1967
 6425W        W26705   0.018   8.584  13.305 -0.2468 -0.0883  0.0778
 6426W        W26706  16.960  16.447   1.798 -0.2445  0.0982 -0.1059
 6427W        W26707   0.056   9.240  10.781 -0.5077 -0.1209 -0.2919
 6428W        W26708  13.854   2.942  10.031  0.1692 -0.2265 -0.0718
 6429W        W26709  18.871  15.547  13.710  0.0116 -0.1207  0.3149
 6430W        W26710  18.002   7.287   1.217  0.0377 -0.1238  0.1945
 6431W        W26711  15.741  17.563   1.400  0.1600 -0.0693  0.2017
 6432W        W26712   2.820  11.229   2.969 -0.1574 -0.1673  0.3747
 6433W        W26713  17.232   2.575  10.011 -0.1085  0.0445 -0.3081
 6434W        W26714   1.705   6.166   0.524 -0.0325  0.3913  0.0042
 6435W        W26715  14.524   7.135  10.855  0.0759 -0.3334  0.0044
 6436W        W26716  15.965  17.086  11.733  0.2597  0.0142  0.0564
 6437W        W26717  18.583  13.722   9.455 -0.0863 -0.2497  0.2031
 6438W        W26718  17.452  18.452   2.593  0.0602 -0.2434 -0.1771
 6439W        W26719  14.113   6.011   1.689 -0.1377  0.3861 -0.2905
 6440W        W26720  18.053   9.312   2.516 -0.1726  0.1519  0.0784
 6441W        W26721  17.948  16.264   3.947  0.0559 -0.4107  0.0586
 6442W        W26722   7.657   2.214  10.815 -0.0747 -0.2923  0.2624
 6443W        W26723  16.284  16.933   4.218  0.0064  0.2311 -0.0295
 6444W        W26724  16.670   4.073   0.274  0.0736 -0.2539  0.3195
 6445W        W26725   1.857  11.951  12.200 -0.2119  0.0066  0.0542
 6446W        W26726  19.357   8.930  11.215  0.0969  0.0261 -0.0224
 6447W        W26727   3.559  15.257   2.380  0.2369  0.0872  0.1099
 6448W        W26728   1.369  17.435  12.445  0.1111  0.0644 -0.2107
 6449W        W26729  16.112  11.991  12.379 -0.1032  0.1183 -0.0863
 6450W        W26730   3.051  10.350   0.832  0.1223 -0.1903  0.0572
 6451W        W26731   9.133   2.370  13.115 -0.0419  0.1372  0.2447
 6452W        W26732   8.172  15.296   4.088  0.3610  0.0157  0.3675
 6453W        W26733  13.964  10.694  11.311 -0.0253 -0.4922  0.1833
 6454W        W26734   2.878  18.959  12.668  0.0074 -0.0900 -0.0298
 6455W        W26735  18.652   4.064   2.689  0.0511  0.0423  0.0495
 6456W        W26736  12.690  12.238   1.488  0.2245  0.1201  0.0477
 6457W        W26737   7.543   8.815   3.687 -0.0016  0.0428 -0.1516
 6458W        W26738  15.696   0.856   1.505  0.5604 -0.1880  0.0132
 6459W        W26739  12.860  12.859  12.769 -0.0428 -0.0637 -0.2881
 6460W        W26740  18.091  18.621   1.460 -0.1623  0.1167  0.4202
 6461W        W26741   1.294  13.895  12.473  0.4555 -0.2240  0.1890
 6462W        W26742  15.743  16.454   3.256 -0.0241  0.0630  0.0479
 6463W        W26743  14.856  14.999  10.588  0.0998 -0.0303  0.2478
 6464W        W26744   3.107  15.273   3.108  0.3338  0.1135  0.0111
 6465W        W26745   8.408   3.612   0.428 -0.2569 -0.0801 -0.4057
 6466W        W26746  15.917   4.015   2.683 -0.0560 -0.0094 -0.0023
 6467W        W26747   6.044   0.715  11.382 -0.1223 -0.1707  0.3791
 6468W        W26748   9.393  14.016  11.899 -0.3017  0.0852 -0.1152
 6469W        W26749  10.670  14.204  11.581  0.1656  0.0431 -0.1123
 6470W        W26750   2.060   5.572  10.616  0.0126  0.1310 -0.0828
 6471W        W26751  11.372   8.609  12.530  0.1725  0.2425  0.1496
 6472W        W26752   3.781   2.870   2.532  0.3365 -0.1823  0.2219
 6473W        W26753   0.471   9.003  10.927 -0.1271  0.2134 -0.0939
 6474W        W26754  10.849  16.508  10.574  0.1123  0.1966  0.1773
 6475W        W26755  14.870  18.847  10.598  0.3446 -0.0306  0.0152
 6476W        W26756   5.753  15.107   3.840 -0.3919  0.2253  0.2478
 6477W        W26757   2.628   7.362   2.759  0.2395  0.1731  0.3251
 6478W        W26758   9.409  18.323  11.415 -0.0300 -0.2314  0.2676
 6479W        W26759  18.870   6.897   0.124  0.4046  0.0257 -0.2107
 6480W        W26760   2.225  15.120   2.226 -0.0045  0.0809  0.1800
 6481W        W26761   7.302  15.321   3.119  0.0043  0.6048  0.2268
 6482W        W26762  16.223  18.190   2.494  0.1626 -0.2181  0.0784
 6483W        W26763  11.205   6.825  11.180  0.0111 -0.1473  0.1927
 6484W        W26764  17.434  19.551   3.423 -0.2258 -0.1336  0.0144
 6485W        W26765  15.515  10.670   1.495  0.0680  0.0406 -0.1815
 6486W        W26766  15.531  18.979   0.092  0.1720 -0.2304  0.1530
 6487W        W26767   8.789  13.915   2.202  0.2946 -0.0438 -0.1595
 6488W        W26768  18.492   1.161   0.634  0.0386 -0.3161 -0.0410
 6489W        W26769   7.662   2.758  12.818 -0.1665  0.2937 -0.1288
 6490W        W26770   7.957   6.285   0.508 -0.3046  0.0460  0.0978
 6491W        W26771  16.449  12.995   3.308  0.6162  0.1125 -0.2367
 6492W        W26772  18.900  15.070   3.061 -0.0866 -0.0910 -0.0485
 6493W        W26773  12.526   8.621   2.430  0.1203  0.3125 -0.2371
 6494W        W26774  16.775  14.676  12.054  0.0212 -0.2850 -0.0344
 6495W        W26775  16.055  15.880   8.715  0.0757  0.2774  0.0990
 6496W        W26776   5.074  10.628  13.442 -0.1457 -0.1725  0.0795
 6497W        W26777   6.957   2.109   2.647 -0.0788  0.2380  0.2075
 6498W        W26778  19.819  17.230  12.569 -0.3423 -0.0348  0.0399
 6499W        W26779  11.679   9.317   1.640  0.1717  0.0096  0.0272
 6500W        W26780   8.234   6.203   9.818 -0.2160 -0.0100  0.0638
 6501W        W26781   3.422   5.014  10.381  0.1705  0.0473  0.0887
 6502W        W26782  15.249   4.174   1.538 -0.3907  0.1346 -0.1598
 6503W        W26783  13.904   5.270  10.239 -0.2034  0.0391  0.0602
 6504W        W26784  10.967  14.249   2.244 -0.0041  0.1648 -0.2056
 6505W        W26785   0.532   5.354   2.485  0.1814 -0.0775  0.0177
 6506W        W26786  10.208   5.026  10.326  0.1083  0.1658  0.0608
 6507W        W26787   0.167  10.806  12.572 -0.0055 -0.4163  0.1791
 6508W        W26788  15.940  13.269   3.541  0.1119 -0.1708  0.3005
 6509W        W26789   2.004   5.819  11.650 -0.3283  0.1570 -0.3989
 6510W        W26790   8.460   4.963   3.481 -0.0100  0.0940 -0.0365
 6511W        W26791   9.027  16.006  13.157  0.0660 -0.0261  0.0230
 6512W        W26792   1.669  15.897  12.198  0.1588 -0.0312  0.2839
 6513W        W26793  13.848  11.447   3.196  0.0062  0.0234  0.1205
 6514W        W26794  14.189  14.206   0.199  0.3796  0.1306  0.0876
 6515W        W26795   9.235   9.874  11.190  0.1905  0.0367  0.3333
 6516W        W26796   0.757  14.429  11.520  0.0972  0.2228  0.0482
 6517W        W26797   6.322   1.644  13.549 -0.0213 -0.2904 -0.2552
 6518W        W26798   4.914   4.737   1.515 -0.0292  0.2415  0.0645
 6519W        W26799   2.773  13.232   4.930  0.0241  0.0010  0.3548
 6520W        W26800  11.140  11.178  11.484  0.0814 -0.0302 -0.0339
 6521W        W26801  12.056   3.308  11.333  0.0251  0.3914  0.0432
 6522W        W26802  11.310   8.164  13.602  0.0290 -0.1419 -0.0030
 6523W        W26803   5.879  16.427   3.404  0.1517  0.1494 -0.1494
 6524W        W26804   2.015   5.230   2.506 -0.0825  0.2016  0.1105
 6525W        W26805   4.129   1.337  12.279 -0.0762 -0.0441  0.0541
 6526W        W26806  17.431  15.224   2.683  0.1071 -0.1722 -0.5774
 6527W        W26807  13.921   8.780  12.026  0.4247 -0.1567  0.1342
 6528W        W26808   8.743  17.317  13.256 -0.0763 -0.0291 -0.2670
 6529W        W26809  17.910   2.181  12.616 -0.1739 -0.2284 -0.1085
 6530W        W26810   0.085   3.466   3.746 -0.1467  0.1575 -0.0683
 6531W        W26811  11.397   1.069  11.371  0.3200 -0.0011  0.0043
 6532W        W26812   1.289  13.890   0.131  0.2761 -0.0047 -0.1085
 6533W        W26813  15.819  13.603   3.143  0.0084  0.0149 -0.1315
 6534W        W26814   1.386   9.485  11.140 -0.1356 -0.1167  0.0353
 6535W        W26815   6.846   1.719  10.778 -0.1937 -0.1012 -0.0472
 6536W        W26816  15.261  16.418   2.732  0.0447  0.1441  0.3320
 6537W        W26817  12.630   4.613   3.419  0.0141 -0.2715  0.2891
 6538W        W26818  17.433  16.383  11.665 -0.0206 -0.1020 -0.0599
 6539W        W26819   4.733  19.647   2.213  0.1251 -0.3100 -0.1357
 6540W        W26820  10.792  16.660   9.806  0.0211 -0.1045  0.1618
 6541W        W26821  11.332  15.437  12.534 -0.0364 -0.1762  0.1448
 6542W        W26822  16.429   2.023  10.191 -0.0568  0.0354  0.0644
 6543W        W26823  13.473   2.629   2.251  0.2851  0.3883 -0.2351
 6544W        W26824   6.447   2.182   2.573 -0.4054 -0.0166 -0.1371
 6545W        W26825   3.103  10.890  11.022  0.0925 -0.1558 -0.0281
 6546W        W26826  17.742   5.250   2.441 -0.0406 -0.2567 -0.0683
 6547W        W26827   7.818  16.941  12.025 -0.4076  0.1018  0.1790
 6548W        W26828  19.820   0.051  13.738  0.2417  0.3045 -0.0479
 6549W        W26829   9.538  15.289  13.254 -0.1680  0.2710 -0.2902
 6550W        W26830   0.710  12.144   4.716 -0.0750  0.0345 -0.1675
 6551W        W26831   6.061  14.829   2.829 -0.2498 -0.0531 -0.2949
 6552W        W26832   7.366   3.997  10.069  0.2408 -0.0077 -0.0619
 6553W        W26833  11.427  13.943  13.158 -0.0400  0.1701 -0.3648
 6554W        W26834  19.313  13.508  12.162  0.0587 -0.3352  0.3828
 6555W        W26835   6.203   5.413   3.881 -0.2060  0.3475 -0.2959
 6556W        W26836  18.045  14.991  10.159  0.0494 -0.2485 -0.1115
 6557W        W26837  14.155   2.079   2.523 -0.0225  0.0063  0.0199
 6558W        W26838   1.697   5.225   1.002 -0.0237 -0.0684  0.2035
 6559W        W26839  11.910  10.172  13.686 -0.0144 -0.3004  0.1409
 6560W        W26840  13.684   4.371   0.701 -0.0647  0.0013 -0.3308
 6561W        W26841   7.115   6.247   3.160  0.3893  0.0742 -0.0604
 6562W        W26842  10.251   6.971   4.360  0.2885  0.1416 -0.0822
 6563W        W26843  14.926   4.927  13.831  0.2225  0.0640 -0.1446
 6564W        W26844   9.421  15.558   1.581 -0.0499  0.2996 -0.1567
 6565W        W26845  13.745   1.618  13.016  0.1748 -0.1305 -0.1861
 6566W        W26846  12.636   2.869  13.069 -0.4726 -0.0408  0.0655
 6567W        W26847   1.200  16.042  11.961 -0.3670  0.3054  0.1282
 6568W        W26848   6.624  12.189   4.166  0.1446  0.0884  0.0229
 6569W        W26849   7.920  11.758  12.438  0.0821 -0.3328 -0.1662
 6570W        W26850  19.790  12.336  10.589 -0.0336  0.0014 -0.0619
 6571W        W26851  13.405  11.938   4.745 -0.1229  0.1140 -0.2122
 6572W        W26852  16.987  17.172  11.943 -0.2487  0.1650  0.1678
 6573W        W26853  15.301  11.173   1.541  0.1634 -0.4299  0.0084
 6574W        W26854   9.359  17.460  10.460  0.2372 -0.1511 -0.0210
 6575W        W26855   8.998   5.292  10.711  0.1590 -0.0299 -0.0734
 6576W        W26856   1.131   7.105  11.077 -0.1603 -0.1695 -0.2210
 6577W        W26857   8.794   9.157   1.773 -0.1646  0.2226  0.0124
 6578W        W26858   1.165  14.254   9.607  0.2425  0.3263 -0.3709
 6579W        W26859  15.312   2.824   2.529  0.2899 -0.0062 -0.3245
 6580W        W26860  13.596  15.995  11.393 -0.3028 -0.1381 -0.0972
 6581W        W26861  16.343  19.545   2.976  0.1783  0.0769  0.1035
 6582W        W26862   6.550  17.591   1.041  0.0647  0.2284 -0.1252
 6583W        W26863  18.762   8.638   0.026 -0.1771  0.1151 -0.0315
 6584W        W26864   4.562   3.310   1.170 -0.1355 -0.1617  0.0733
 6585W        W26865  14.623   9.425   1.244  0.1311  0.0990  0.0349
 6586W        W26866   4.138  14.428   4.111 -0.1144 -0.0052 -0.1468
 6587W        W26867  16.167   9.259  11.083  0.0055 -0.0209  0.1267
 6588W        W26868  16.182  15.231   1.839 -0.0377 -0.0421  0.1884
 6589W        W26869  18.961  17.350  12.922 -0.2074 -0.1882 -0.0631
 6590W        W26870   0.718   1.241   2.035  0.3368 -0.0807  0.1559
 6591W        W26871   4.072   8.422   1.827 -0.2432 -0.2574 -0.0685
 6592W        W26872   1.760  10.297   1.740  0.1789  0.3793 -0.2220
 6593W        W26873  12.467  16.450   2.491 -0.3442 -0.0096  0.3048
 6594W        W26874   6.488  13.172  11.597  0.1573  0.0784 -0.0368
 6595W        W26875   3.973   6.299   0.611  0.2242 -0.2279 -0.2065
 6596W        W26876   3.389   4.770  13.777 -0.1856  0.4165  0.4773
 6597W        W26877  12.921   1.014   2.967  0.1708 -0.1218 -0.1942
 6598W        W26878   1.613   3.087  11.962 -0.1095 -0.1195 -0.0354
 6599W        W26879  18.525   5.272   1.116  0.0413 -0.0839  0.0893
 6600W        W26880   2.339   5.335  10.911 -0.0234 -0.1261 -0.0562
 6601W        W26881   6.598  10.452   0.709 -0.2072 -0.1479  0.2996
 6602W        W26882  17.802  16.089   2.153  0.1921 -0.1719 -0.0180
 6603W        W26883  12.539  15.966  13.506  0.5000 -0.1588  0.0963
 6604W        W26884  12.964   1.887  11.821  0.0750 -0.0052 -0.0285
 6605W        W26885  14.664   3.229  11.634 -0.1169  0.2196 -0.0306
 6606W        W26886  16.920  12.908  11.114 -0.0125  0.2222  0.0857
 6607W        W26887   1.464  11.629  12.231 -0.2542 -0.0654  0.1267
 6608W        W26888  16.075   8.915   2.004 -0.1057  0.0090  0.0201
 6609W        W26889   7.518  18.950  12.235  0.2068 -0.0599 -0.1955
 6610W        W26890   9.643  10.521  11.554 -0.0062  0.4101  0.0795
 6611W        W26891  19.373   1.281   3.094  0.2290 -0.0714 -0.2994
 6612W        W26892   2.121  11.177   4.746 -0.0535  0.1115  0.0081
 6613W        W26893  15.541  11.743   3.774  0.0833  0.1081 -0.1285
 6614W        W26894   2.563   6.682   0.774 -0.1235 -0.0639 -0.2978
 6615W        W26895  12.896   1.750  10.917 -0.0034 -0.1375 -0.1967
 6616W        W26896   9.365  19.924   0.052  0.0507 -0.1912  0.1558
 6617W        W26897   2.346   5.836   0.020  0.0980 -0.1097  0.0101
 6618W        W26898   3.943  18.871  11.762  0.4644 -0.0611 -0.1298
 6619W        W26899  16.616  14.653  10.029 -0.0327  0.0955  0.0078
 6620W        W26900   1.591  16.865   1.964 -0.0400  0.0922 -0.2165
 6621W        W26901   5.603   7.190  13.512 -0.0589  0.3411 -0.1749
 6622W        W26902  11.501  17.872   0.774  0.0653 -0.4094  0.2599
 6623W        W26903  16.416  13.807   2.282  0.1489 -0.0874 -0.1068
 6624W        W26904  12.868  17.829   3.769  0.1052  0.0431  0.0433
 6625W        W26905   3.025  19.382   0.466 -0.0169 -0.0844 -0.0259
 6626W        W26906   9.623  10.922   0.397  0.2558  0.1198 -0.1418
 6627W        W26907  10.827  17.594  11.710  0.0095 -0.0106 -0.4659
 6628W        W26908  10.036   9.049  12.075 -0.3514 -0.1475  0.0471
 6629W        W26909   5.979  13.175  11.876 -0.3194  0.3533  0.0625
 6630W        W26910   1.168   9.961  11.379  0.0004 -0.1607 -0.0324
 6631W        W26911   2.609   9.760   1.774 -0.3362 -0.0477 -0.0343
 6632W        W26912   6.528  14.740   1.760  0.1379  0.0288 -0.0343
 6633W        W26913   4.712  15.226  10.605  0.0998 -0.1218  0.2629
 6634W        W26914   0.012  10.296   1.646 -0.0752 -0.2961 -0.1669
 6635W        W26915   3.857   6.918  11.678  0.1898 -0.1610  0.1896
 6636W        W26916   1.344   2.741   2.213  0.3210 -0.0384 -0.1840
 6637W        W26917  10.331   9.428   0.138 -0.0247 -0.1021 -0.1886
 6638W        W26918   3.286  10.487  13.327 -0.0621 -0.0590  0.1103
 6639W        W26919   8.910   1.004   0.312 -0.1340  0.0629 -0.0136
 6640W        W26920  10.652   2.621  11.613 -0.3435  0.0668  0.1326
 6641W        W26921   9.093  10.136  13.518 -0.0086 -0.1103  0.1733
 6642W        W26922   4.477   5.593  10.070 -0.0192 -0.0049 -0.2125
 6643W        W26923   6.854   6.363   1.553  0.3259 -0.1820  0.0456
 6644W        W26924   5.480   7.263  11.157 -0.2275 -0.0318 -0.2246
 6645W        W26925  12.894   1.963  12.791  0.1239  0.0056 -0.0670
 6646W        W26926   9.642   8.440   3.060  0.1911  0.0617  0.4852
 6647W        W26927   5.717   4.211   5.144  0.0392 -0.2749 -0.5113
 6648W        W26928  12.535  11.685   1.537 -0.1717 -0.3047  0.1375
 6649W        W26929  12.287  12.093   0.153  0.0969 -0.4788 -0.1903
 6650W        W26930  11.541  15.790  13.342  0.2103  0.0085 -0.0511
 6651W        W26931   1.310   5.682   0.850 -0.2770  0.1490  0.0762
 6652W        W26932   6.487  17.748   1.701 -0.0981  0.1700 -0.0897
 6653W        W26933  14.054  18.765   3.227 -0.1331 -0.0372 -0.0229
 6654W        W26934  14.988   1.948   2.622 -0.0321  0.0004  0.0902
 6655W        W26935   8.757  12.530  12.615 -0.0291 -0.1288 -0.0899
 6656W        W26936  19.076  10.872   3.494 -0.0791 -0.0081 -0.0732
 6657W        W26937  19.557   7.192   1.064  0.1325  0.0014  0.2070
 6658W        W26938   8.716  12.146  12.267  0.0597 -0.1666  0.2153
 6659W        W26939  13.355   8.157  10.144 -0.5612 -0.0309 -0.3284
 6660W        W26940   9.745   6.727   2.158 -0.0725  0.3675 -0.0049
 6661W        W26941  18.376  16.269  10.365  0.1107 -0.1703  0.3723
 6662W        W26942  14.569  12.710   0.927  0.4001  0.2735  0.0257
 6663W        W26943   6.097  16.353  11.191  0.1598 -0.1161 -0.0455
 6664W        W26944  13.171  13.294  13.656  0.1514  0.1711  0.1748
 6665W        W26945  12.442   1.080  11.486 -0.1488  0.0756 -0.1289
 6666W        W26946  17.855  13.987   1.455  0.0772 -0.0018 -0.1754
 6667W        W26947  16.706   5.949   3.494  0.2523  0.0314  0.2312
 6668W        W26948  10.072   9.862   0.943  0.1969  0.0744  0.2667
 6669W        W26949  14.904   4.943   3.982 -0.1395  0.0194  0.1980
 6670W        W26950  11.008  14.165  11.938  0.1507  0.0371  0.0250
 6671W        W26951  19.896   5.839  13.621  0.0093 -0.1884 -0.0527
 6672W        W26952  16.517  15.726  12.091  0.1599 -0.0326 -0.3113
 6673W        W26953   3.651   0.859   3.315  0.2141 -0.2995  0.1359
 6674W        W26954   5.986  17.372  10.331 -0.1803 -0.0740 -0.2205
 6675W        W26955   1.995   8.525   2.899  0.1626 -0.0247  0.0959
 6676W        W26956  14.887  10.722  11.860 -0.2374  0.2518 -0.1138
 6677W        W26957  10.199   2.012   0.217 -0.5490 -0.2912  0.3108
 6678W        W26958   5.056  13.447   2.895  0.1478  0.0767 -0.0256
 6679W        W26959   5.074  19.678  13.770  0.0356  0.1307  0.0664
 6680W        W26960  15.076   2.299  12.350  0.1648  0.1678  0.2969
 6681W        W26961   7.151   8.028   1.829  0.0736 -0.1904 -0.3683
 6682W        W26962  14.484  18.967  10.881  0.2575 -0.1534 -0.0164
 6683W        W26963  18.032   3.266  13.182  0.1730  0.1531  0.2815
 6684W        W26964   3.586  13.848  11.044 -0.3104  0.0108 -0.0434
 6685W        W26965   2.363   3.326   3.595 -0.0669 -0.1237 -0.2011
 6686W        W26966   2.560  18.012   3.359 -0.2180  0.1973 -0.0037
 6687W        W26967   7.240  19.066   2.490  0.1161 -0.1031  0.3224
 6688W        W26968  10.903  19.154   0.407  0.0616  0.2199  0.2003
 6689W        W26969  18.618  16.616  11.251  0.3160  0.2388 -0.1119
 6690W        W26970  14.971  19.025   9.606 -0.1335  0.2863  0.3498
 6691W        W26971   0.628  14.585   0.394 -0.3596  0.1258 -0.0929
 6692W        W26972   6.095   9.931  12.515 -0.2858 -0.4308 -0.1626
 6693W        W26973  11.549  11.709   2.364 -0.2992 -0.0299  0.0673
 6694W        W26974   7.724  19.254  10.265  0.1774  0.1853 -0.0378
 6695W        W26975   7.488   7.435   0.437  0.2659  0.2615  0.0386
 6696W        W26976  10.214  17.100  13.696  0.1618  0.4021 -0.1453
 6697W        W26977  19.620   0.206  11.456  0.0470  0.2982  0.1964
 6698W        W26978   0.956  12.333  11.327  0.2492  0.0197 -0.0110
 6699W        W26979   8.369  13.058   2.605  0.0191  0.3806  0.2868
 6700W        W26980  14.336  18.764  12.735 -0.2258  0.1932  0.1090
 6701W        W26981   2.123   8.615  13.117  0.0724 -0.1053 -0.0765
 6702W        W26982   5.174   6.567  13.215 -0.1769  0.0015 -0.1656
 6703W        W26983   9.377   3.380  11.455  0.2244  0.0148 -0.2758
 6704W        W26984   1.689   8.818   0.241  0.1390 -0.0698  0.2605
 6705W        W26985  10.254   5.160  10.816 -0.0752 -0.0032  0.3556
 6706W        W26986   4.499  10.986   1.052 -0.1701 -0.0908 -0.4111
 6707W        W26987  12.602  13.377  11.241 -0.1212 -0.1708 -0.1872
 6708W        W26988  16.851   7.224  10.583 -0.0957 -0.1472  0.2090
 6709W        W26989   9.987   7.975   0.097 -0.0181 -0.2506  0.2708
 6710W        W26990   4.944   1.736  11.442  0.5319  0.1838 -0.0424
 6711W        W26991  15.456  12.204  10.689  0.2681 -0.0782 -0.1079
 6712W        W26992   4.995  14.986   1.204 -0.2464 -0.2709  0.0522
 6713W        W26993   7.738   3.189   3.338 -0.0056  0.0298  0.0958
 6714W        W26994   9.566   3.355   3.233 -0.0008 -0.1881 -0.1672
 6715W        W26995   4.589   9.627  13.236 -0.2746  0.0169 -0.2434
 6716W        W26996   2.827   4.578  12.114 -0.0017 -0.1161 -0.0287
 6717W        W26997   3.252   2.535  11.330 -0.2063  0.1198 -0.0588
 6718W        W26998  13.515   0.535   1.691  0.2197 -0.0620 -0.1417
 6719W        W26999  17.801  18.251   8.977 -0.0414 -0.0148 -0.0240
 6720W        W27000   3.842   9.742   3.215 -0.0896 -0.0893 -0.1714
 6721W        W27001  13.653   9.208   1.664 -0.3998 -0.3724 -0.1170
 6722W        W27002   8.300  15.679  12.558  0.3728 -0.0471 -0.2633
 6723W        W27003  16.143  11.900   1.629 -0.1143 -0.4060  0.1940
 6724W        W27004   5.209  19.910   1.734 -0.0107 -0.0268 -0.0033
 6725W        W27005  18.954   1.041   0.896 -0.3652 -0.3842 -0.2619
 6726W        W27006  15.385   6.014  12.427 -0.0724  0.0245  0.1927
 6727W        W27007  14.476   0.567  12.516  0.1425  0.2168 -0.0929
 6728W        W27008   5.859  14.368   2.778  0.3566  0.1342 -0.4623
 6729W        W27009  18.689   9.502   0.457 -0.0143  0.2170 -0.3662
 6730W        W27010   5.666   4.379   1.835  0.2923 -0.2346 -0.1335
 6731W        W27011  16.866  12.459  11.379  0.1180  0.1996 -0.1845
 6732W        W27012  14.523  13.620  10.334  0.1110  0.2334 -0.0686
 6733W        W27013   8.597   7.588  12.332 -0.1226  0.0473 -0.5002
 6734W        W27014  15.939   0.831   9.839  0.0781  0.2166 -0.1634
 6735W        W27015  11.934  11.397  11.925 -0.4458 -0.1668 -0.2940
 6736W        W27016  11.045   2.248  11.672  0.3973 -0.0402 -0.3557
 6737W        W27017   0.879  18.961  12.108 -0.0963  0.1002 -0.0740
 6738W        W27018   6.947   3.875   2.343 -0.1023  0.4283 -0.3027
 6739W        W27019  11.795   5.962  13.518 -0.3672 -0.2710 -0.4142
 6740W        W27020   0.683   2.105   2.500 -0.1461  0.2451 -0.0779
 6741W        W27021  15.533   6.877  10.027 -0.1689  0.1394  0.0432
 6742W        W27022  16.719  12.840   1.695  0.1617 -0.0911 -0.3230
 6743W        W27023  19.021  17.620   1.643  0.2764  0.0726 -0.0938
 6744W        W27024  13.631  11.707   0.161 -0.0082  0.0254 -0.0177
 6745W        W27025   4.369  19.713  11.318 -0.4917  0.1048  0.0706
 6746W        W27026  13.540  15.864  12.731  0.0731 -0.0012  0.3731
 6747W        W27027   0.112  17.922  13.493 -0.1040 -0.1479  0.2355
 6748W        W27028   1.421   8.768   9.806 -0.3061  0.3574  0.0810
 6749W        W27029  14.089  15.934   1.088  0.3007  0.3302  0.2647
 6750W        W27030  15.901  10.257   0.571 -0.0241  0.0532 -0.0623
 6751W        W27031   9.112  13.417   4.565  0.1371  0.1320 -0.1492
 6752W        W27032   4.905   3.929  11.277  0.1636  0.3005 -0.2149
 6753W        W27033   8.829  15.948  11.805 -0.1722  0.3244  0.2495
 6754W        W27034  19.703  18.375  13.458  0.0338  0.1221  0.3586
 6755W        W27035  13.904  17.799   2.179 -0.0087 -0.0767  0.4343
 6756W        W27036  10.198   6.627  11.039  0.2073 -0.0560 -0.0322
 6757W        W27037  16.332  11.247  13.664 -0.1463  0.0267 -0.3458
 6758W        W27038   9.718   5.542  11.626 -0.2507 -0.4072 -0.2353
 6759W        W27039  15.914  18.681  12.417  0.0131 -0.1291  0.0281
 6760W        W27040  12.347   4.495  10.255 -0.2255 -0.1122 -0.2210
 6761W        W27041   9.862  16.807   3.020  0.2606 -0.1418 -0.0767
 6762W        W27042   8.773   2.464  12.297 -0.0447 -0.0548 -0.0511
 6763W        W27043   5.675  16.733  12.269  0.1365 -0.2373  0.3282
 6764W        W27044   2.060   5.744   2.501 -0.0251 -0.1207 -0.3460
 6765W        W27045   1.876  15.528   0.555  0.4118  0.2253  0.0820
 6766W        W27046  18.817  10.923  11.300  0.1092  0.0427 -0.0944
 6767W        W27047   6.427   3.459   1.085  0.0558 -0.3569 -0.1292
 6768W        W27048  16.253   8.367  12.745  0.1070  0.1325  0.0414
 6769W        W27049   5.349   7.322   0.473  0.0487 -0.0803 -0.4556
 6770W        W27050   7.656   5.544   4.174 -0.1445  0.0043  0.2356
 6771W        W27051   7.100   4.581  11.277  0.0660  0.0178  0.0487
 6772W        W27052  13.447   4.927   2.471 -0.2091 -0.0107  0.4285
 6773W        W27053   5.148  14.060  11.087  0.0183  0.0002 -0.1912
 6774W        W27054  17.273  18.471   0.639  0.1303  0.2601 -0.1206
 6775W        W27055   5.533   3.329   3.756 -0.1492  0.0811 -0.0694
 6776W        W27056   4.438   0.711   3.689  0.0311  0.0396 -0.0894
 6777W        W27057  13.563   4.927   0.496  0.2200 -0.0569  0.0304
 6778W        W27058   6.542  15.764  11.420 -0.1302  0.0096  0.0497
 6779W        W27059   6.288  15.223   1.301  0.0180  0.0830  0.1973
 6780W        W27060  14.911  18.971   2.508  0.1799  0.1235 -0.1404
 6781W        W27061   0.530  16.345   2.719 -0.0996 -0.2268  0.1194
 6782W        W27062  13.693   4.071  11.345  0.1001  0.2536 -0.0078
 6783W        W27063   3.812  16.239  13.060 -0.1271 -0.1814  0.0146
 6784W        W27064   4.490   1.916   0.104  0.1484 -0.1904 -0.0995
 6785W        W27065  10.304  13.167   0.450  0.1639 -0.3151 -0.5062
 6786W        W27066  14.682  15.847  11.252 -0.0738  0.0449  0.0266
 6787W        W27067  18.856  15.525   1.213  0.2615 -0.0152  0.0602
 6788W        W27068  19.504  11.492  10.164  0.1523 -0.0086 -0.2650
 6789W        W27069   4.159  12.406   2.668 -0.1261  0.0952  0.4343
 6790W        W27070   2.697   5.424  12.346 -0.0104  0.2302 -0.1724
 6791W        W27071  14.436  16.973   1.776  0.0993  0.2038  0.0284
 6792W        W27072   5.150   8.615  11.220 -0.4291 -0.0591  0.3066
 6793W        W27073  17.017   0.005   9.856 -0.0898  0.2121 -0.0281
 6794W        W27074   9.000   7.179  12.239  0.1577  0.0444  0.0999
 6795W        W27075   4.194  12.836   0.022  0.0931 -0.0778 -0.0702
 6796W        W27076   4.768  19.915  12.623  0.1848 -0.1356 -0.1038
 6797W        W27077  15.279   4.992   9.628  0.2190  0.1597  0.0477
 6798W        W27078   1.762   9.468   2.522 -0.0237  0.0345  0.0704
 6799W        W27079   8.278  14.494  13.222  0.0350  0.0216  0.1551
 6800W        W27080  12.457   3.216  11.768  0.2637 -0.1295  0.0533
 6801W        W27081  10.730  11.968   2.300 -0.0926  0.0559  0.3975
 6802W        W27082   4.815  17.162   2.047 -0.0218 -0.2919  0.1288
 6803W        W27083   9.797   6.213   3.740 -0.1214  0.1278 -0.0725
 6804W        W27084  16.328   5.698  12.955  0.0178 -0.2692 -0.1600
 6805W        W27085   4.049   4.780   0.123 -0.3774  0.4406 -0.3212
 6806W        W27086  10.412  10.214   2.802  0.2194 -0.1474 -0.1546
 6807W        W27087   5.570   7.178   4.985 -0.0099  0.0649  0.0154
 6808W        W27088   8.330  11.199   3.656 -0.4897 -0.1442 -0.0135
 6809W        W27089  14.910   9.462  11.347 -0.2024 -0.0265 -0.0577
 6810W        W27090  10.921   5.096  12.806 -0.1464  0.1916 -0.0339
 6811W        W27091  17.169   5.844   0.773  0.2003  0.0171 -0.0284
 6812W        W27092  13.151   3.303  13.827 -0.0438 -0.0016  0.0964
 6813W        W27093   9.882   1.107   0.349 -0.1233  0.1825  0.0294
 6814W        W27094  16.222  19.607  13.490  0.1036  0.0739  0.4219
 6815W        W27095   9.156   9.657   2.653 -0.0204 -0.0708 -0.1846
 6816W        W27096   3.948  16.518   0.097 -0.1241 -0.1346  0.1093
 6817W        W27097  12.484   2.052  11.785  0.0891  0.1936  0.1916
 6818W        W27098  17.729   4.694   2.090  0.1277 -0.1452  0.1328
 6819W        W27099  12.458   1.283   2.858  0.1474  0.4423 -0.2751
 6820W        W27100   9.132  15.656   9.831 -0.2941 -0.0004  0.1181
 6821W        W27101  19.524  18.142  12.693  0.0618  0.1907  0.2490
 6822W        W27102  11.902   0.576   1.827  0.2442 -0.2116  0.0893
 6823W        W27103   7.335  11.717   3.079  0.3000 -0.0039 -0.0676
 6824W        W27104  11.566  11.450  10.663  0.0324  0.1845  0.1605
 6825W        W27105   0.721   1.993   3.012 -0.1651  0.1739 -0.0328
 6826W        W27106  16.418  16.918   3.755 -0.2450  0.1472 -0.3716
 6827W        W27107  18.612  14.644   3.205  0.2242  0.0701 -0.2766
 6828W        W27108   9.343  13.725   5.330 -0.1421  0.3985 -0.2660
 6829W        W27109  17.282   5.848   1.551  0.0547 -0.1213  0.1234
 6830W        W27110  16.587   0.777  10.800  0.0819 -0.3242 -0.2407
 6831W        W27111  13.346  16.975   1.641  0.0664 -0.0882 -0.0304
 6832W        W27112   1.964  16.496  11.336  0.0301  0.0896  0.1143
 6833W        W27113   1.629   6.668  12.925 -0.1798  0.1713 -0.1427
 6834W        W27114   1.000  14.867   0.436  0.1085  0.3056  0.0611
 6835W        W27115  13.994  16.243   3.593 -0.1975 -0.2842 -0.1056
 6836W        W27116  15.531   4.821   1.626  0.2072  0.5040  0.0986
 6837W        W27117  11.367   5.698  13.147 -0.1623  0.3074  0.0333
 6838W        W27118  19.256  18.105  12.270  0.0965  0.1283  0.2098
 6839W        W27119  10.570  16.857   1.824  0.2024 -0.0510  0.1907
 6840W        W27120  12.245  16.402   4.827  0.1148  0.1454  0.1748
 6841W        W27121  13.982   1.332   3.683  0.0906 -0.1141 -0.3287
 6842W        W27122  11.084  15.962   1.328  0.0981  0.0618 -0.0383
 6843W        W27123  10.372   0.209   8.705  0.2287  0.1310  0.0234
 6844W        W27124   3.478   3.746   2.220 -0.1224 -0.0658  0.0481
 6845W        W27125  10.814   4.008   1.445 -0.1392 -0.1171 -0.1580
 6846W        W27126  18.863  11.518   2.329  0.0912 -0.0490  0.1086
 6847W        W27127   1.544   4.811   2.141 -0.0956 -0.2292  0.0815
 6848W        W27128   7.591  12.762  13.537  0.1448 -0.0276  0.2619
 6849W        W27129   2.312   1.665  13.019 -0.1499 -0.0939 -0.0327
 6850W        W27130  10.901  18.942  13.246  0.0430  0.1478 -0.1558
 6851W        W27131   9.997   4.752  12.725 -0.1191 -0.0331  0.2006
 6852W        W27132   3.748   5.552   5.193 -0.3085  0.1361 -0.1137
 6853W        W27133  19.331  11.941  12.595 -0.2180 -0.0467 -0.2554
 6854W        W27134  11.952   6.836   3.453  0.1181  0.3766 -0.0150
 6855W        W27135   5.306  14.169  11.619 -0.2486 -0.0405 -0.2309
 6856W        W27136  13.738   4.945  13.839  0.0576 -0.3034 -0.0595
 6857W        W27137   5.533   1.283   0.962 -0.1002  0.0432  0.0106
 6858W        W27138   0.562   3.930  10.416 -0.0870  0.4472  0.0484
 6859W        W27139   0.691  10.263   3.332  0.0293  0.3950  0.3666
 6860W        W27140   7.801   7.858   9.824  0.1365 -0.2708 -0.1782
 6861W        W27141   9.353   1.516  12.369  0.0415 -0.1051  0.2236
 6862W        W27142   9.773  18.404  10.479  0.2386  0.0669  0.2832
 6863W        W27143  13.362   6.627   1.200 -0.2860 -0.0393  0.0157
 6864W        W27144   5.252  15.314   0.845  0.1930 -0.0379 -0.1390
 6865W        W27145  10.833   2.389  12.947  0.0005 -0.3337  0.4660
 6866W        W27146   2.251  12.955  11.677  0.1505 -0.0440  0.0602
 6867W        W27147  14.458  12.864  10.088 -0.0527  0.1451  0.1418
 6868W        W27148   0.062  13.313   1.091  0.0452 -0.0574 -0.0766
 6869W        W27149   4.627   2.920   0.018  0.0595 -0.4372  0.1654
 6870W        W27150   5.984  13.951   3.042 -0.3446 -0.0837 -0.1623
 6871W        W27151   7.332  12.770   1.167 -0.1020 -0.2005 -0.1968
 6872W        W27152   1.550   4.312   9.107  0.4164  0.1529 -0.2938
 6873W        W27153  18.134  10.382  13.539 -0.0955 -0.1414  0.3499
 6874W        W27154   2.456  15.058  11.469 -0.2358 -0.1402 -0.1715
 6875W        W27155  10.645   6.606  10.300  0.0134 -0.0635 -0.2626
 6876W        W27156  13.281   6.885  10.276  0.1518  0.0305 -0.3456
 6877W        W27157   9.707   8.000   3.419 -0.0254 -0.1564 -0.0199
 6878W        W27158  12.429   5.569   9.858  0.2613  0.0889 -0.3491
 6879W        W27159   0.061   0.985   0.957  0.1472  0.0059  0.2819
 6880W        W27160  14.035  10.669   2.884  0.3370  0.1229  0.0631
 6881W        W27161  13.142   1.657   0.884  0.1644  0.2014 -0.1157
 6882W        W27162   3.270   1.650  11.308  0.0842  0.1172 -0.1933
 6883W        W27163   2.507  14.712  12.809  0.0278  0.3323 -0.1968
 6884W        W27164   2.804   1.585   1.879  0.4315 -0.1661 -0.0564
 6885W        W27165   6.625   3.009   4.028 -0.1121 -0.0433 -0.1874
 6886W        W27166   1.149  11.661   9.810 -0.0802 -0.0631 -0.1690
 6887W        W27167  19.481  13.883  11.575  0.0726  0.0461 -0.3146
 6888W        W27168  19.016   6.718  11.023 -0.0025 -0.1332  0.3232
 6889W        W27169  15.060  14.141   0.444 -0.2522  0.0488 -0.0339
 6890W        W27170   5.552   2.181  10.612 -0.1497  0.1117 -0.1194
 6891W        W27171  14.487   4.792   2.367 -0.3929 -0.2238 -0.2363
 6892W        W27172   2.347   7.900  11.217  0.1816 -0.2569  0.1950
 6893W        W27173   0.296   5.577  12.010  0.1556 -0.0960  0.5671
 6894W        W27174   0.492   3.262   3.406 -0.2839  0.0481  0.2182
 6895W        W27175  19.242   8.368  12.167  0.3629 -0.1991  0.0184
 6896W        W27176   3.979  17.391   0.448  0.0394 -0.1660 -0.4338
 6897W        W27177  18.111  17.446  10.921  0.1726  0.2391  0.1775
 6898W        W27178   2.264   9.614  12.783 -0.4548  0.1359 -0.0013
 6899W        W27179  13.491   2.220   0.877 -0.0344  0.2542  0.0443
 6900W        W27180   6.328  19.713   4.236  0.0164 -0.3168  0.1380
 6901W        W27181  19.782  10.078  10.723 -0.1537  0.3102  0.1472
 6902W        W27182   5.987   5.746  12.751  0.0223 -0.2656  0.0283
 6903W        W27183   3.211  14.045  12.047 -0.3210 -0.0636 -0.1997
 6904W        W27184  14.446  16.972   2.344 -0.2337 -0.0712  0.1618
 6905W        W27185  10.388   7.932  10.753  0.1914  0.3188 -0.0002
 6906W        W27186  19.011   1.954  10.319 -0.1101 -0.2834 -0.2831
 6907W        W27187   9.537  10.777  12.769  0.3001 -0.2908 -0.1161
 6908W        W27188   5.417  10.751  12.012  0.1437 -0.1759  0.1685
 6909W        W27189   5.461   1.010  11.279  0.2110  0.0487 -0.1266
 6910W        W27190   7.650  19.345   0.130  0.1546 -0.2146 -0.3464
 6911W        W27191  15.071  14.922   2.468  0.0248 -0.0716 -0.0599
 6912W        W27192  15.265  12.668  10.680  0.0175 -0.3859 -0.0445
 6913W        W27193  10.566   4.323  13.337  0.1529 -0.2275 -0.2547
 6914W        W27194   7.997  11.320  11.432 -0.4933  0.1456 -0.3225
 6915W        W27195  13.153  15.708  10.231 -0.1333 -0.1334 -0.1353
 6916W        W27196   7.770  12.599   0.827 -0.0820  0.1656  0.3626
 6917W        W27197   8.198  12.831  11.855  0.1265 -0.1884  0.0713
 6918W        W27198   2.548   8.559   2.145  0.0692  0.0468  0.0436
 6919W        W27199   5.826   3.325  13.522 -0.3306 -0.0320 -0.0524
 6920W        W27200  12.223  16.360  13.382  0.3784  0.0760  0.1113
 6921W        W27201  12.286  16.637  12.984 -0.1448 -0.1742  0.0864
 6922W        W27202   9.179   8.439  12.301 -0.1554  0.1648  0.0946
 6923W        W27203  16.908   1.142  10.708 -0.0080 -0.0875  0.2358
 6924W        W27204   9.473  12.937   0.845  0.2641 -0.0004 -0.1724
 6925W        W27205   5.652   2.766   3.772 -0.1875 -0.1129 -0.0290
 6926W        W27206   3.933  19.086   3.241 -0.0214 -0.0008  0.1450
 6927W        W27207   2.749  15.709   1.713  0.2034 -0.1698  0.0884
 6928W        W27208   3.434  15.477  13.713 -0.4620 -0.1180  0.3434
 6929W        W27209   7.923  15.636   1.219  0.2406  0.1423  0.2717
 6930W        W27210   7.398  14.152  13.184  0.3682 -0.2079  0.0717
 6931W        W27211   0.974   3.628  10.633  0.3652 -0.0211  0.1279
 6932W        W27212   2.288   3.682   1.805  0.0915 -0.0964  0.0235
 6933W        W27213  16.287   6.408   4.800 -0.1628  0.1793 -0.2710
 6934W        W27214   5.250   3.596   2.980  0.0718  0.2081 -0.1505
 6935W        W27215   3.532  15.607  12.046  0.2654 -0.0094  0.0887
 6936W        W27216   2.482  14.258   9.970  0.0117 -0.2744  0.0485
 6937W        W27217   9.081   4.624   1.100  0.3132 -0.0121  0.0205
 6938W        W27218  14.069  18.268  12.588  0.0084  0.2289  0.1407
 6939W        W27219  13.424   8.465   3.287  0.3443  0.0549 -0.1238
 6940W        W27220  13.004  10.749   1.690 -0.3133  0.1630 -0.3287
 6941W        W27221   0.286   6.557   2.652 -0.1318 -0.1424 -0.1579
 6942W        W27222  10.711   1.021   1.880  0.0397  0.0923  0.1603
 6943W        W27223  19.279   7.034   0.478  0.0007  0.0119  0.2473
 6944W        W27224  15.658   6.517  11.404 -0.0721 -0.0303 -0.0080
 6945W        W27225   4.278   6.733   0.599  0.1500  0.0466 -0.0562
 6946W        W27226   9.405  18.046   0.746  0.1189  0.0394 -0.1090
 6947W        W27227  16.942  17.279   0.531 -0.1537  0.1673  0.0381
 6948W        W27228  14.734   4.679   1.572 -0.1272 -0.3679 -0.0648
 6949W        W27229   6.573   4.728  10.665  0.0566 -0.2809 -0.3028
 6950W        W27230  19.557  17.366   1.628 -0.1234  0.2527 -0.3612
 6951W        W27231  15.885  16.831   2.896  0.2818 -0.0668  0.0909
 6952W        W27232  19.947   5.828   3.222  0.3530  0.0689  0.0363
 6953W        W27233   8.990   2.875   3.939  0.1634  0.4128 -0.0238
 6954W        W27234  11.187  11.811  13.329 -0.1145 -0.2070 -0.2294
 6955W        W27235  18.825   0.695   0.575 -0.1273 -0.4279  0.1180
 6956W        W27236   0.610  12.880  10.554  0.2543 -0.2106  0.3630
 6957W        W27237  11.190  14.090   0.706 -0.2794 -0.0905 -0.2097
 6958W        W27238  17.364  19.336   1.604 -0.0764  0.0968  0.0202
 6959W        W27239  10.607   2.600   3.181  0.3650 -0.1864  0.1669
 6960W        W27240  14.016  16.031  12.602 -0.0714 -0.3492  0.1245
 6961W        W27241   2.707  12.519   0.287 -0.1220 -0.3018 -0.0149
 6962W        W27242   3.820   7.929  12.887  0.0120 -0.0090 -0.2815
 6963W        W27243   4.061  13.943  12.759  0.3719  0.1035  0.0793
 6964W        W27244   9.760  16.215   9.284 -0.1591  0.0909 -0.0389
 6965W        W27245  13.067   6.078  12.988 -0.0849  0.3243 -0.0311
 6966W        W27246   4.087  17.810  12.990 -0.0682  0.1944  0.1738
 6967W        W27247   0.825  15.123   3.372  0.3321  0.1306  0.0673
 6968W        W27248  16.103  10.191   2.716  0.3059  0.0011 -0.1581
 6969W        W27249  19.197   3.977   1.453  0.2647  0.2006 -0.0327
 6970W        W27250  13.088   7.957   2.025  0.0345  0.1450 -0.1739
 6971W        W27251  16.002  14.234  13.447  0.1250 -0.1397 -0.0505
 6972W        W27252   9.084  17.030   2.452  0.1816  0.2381 -0.1190
 6973W        W27253  17.606   5.133  12.465 -0.1121  0.1373  0.0246
 6974W        W27254  11.830  14.009   3.959 -0.1147  0.2456 -0.2405
 6975W        W27255   4.207   3.880  12.461 -0.1397  0.0233  0.0222
 6976W        W27256  10.515   9.644   2.725 -0.0880 -0.4679 -0.0875
 6977W        W27257  14.773   7.504  12.119 -0.1191  0.1263 -0.2306
 6978W        W27258   0.234  18.801   0.320 -0.1363 -0.0154 -0.0613
 6979W        W27259   0.672  19.357  10.081 -0.0546 -0.1049  0.0678
 6980W        W27260  15.614   9.423  12.021  0.0011  0.0299 -0.0180
 6981W        W27261  18.161  11.067   2.388  0.1774  0.1359 -0.1796
 6982W        W27262  17.928  10.713   0.571 -0.0720 -0.1559 -0.2411
 6983W        W27263  14.822   9.134   0.532  0.1539  0.0463  0.2977
 6984W        W27264   0.888   2.996  13.808  0.1134  0.1569  0.1867
 6985W        W27265   4.399  16.059   3.854  0.1032  0.0237 -0.0325
 6986W        W27266  10.515   8.442  13.006  0.0678 -0.4575 -0.1229
 6987W        W27267  18.019  17.871  11.160  0.2361 -0.1198  0.0596
 6988W        W27268   0.121   9.645   1.758  0.0928  0.1625  0.0915
 6989W        W27269   0.344  17.922  11.166  0.1937  0.1117  0.2922
 6990W        W27270  15.764  14.488   1.351  0.4387 -0.0772 -0.0357
 6991W        W27271  14.522  12.305  10.829 -0.0149  0.0157 -0.1221
 6992W        W27272   8.469   6.530   2.481  0.1803 -0.0786 -0.0768
 6993W        W27273   5.868   2.858  11.505  0.1348 -0.0599  0.0645
 6994W        W27274  17.014  14.678  11.550 -0.1417  0.2557  0.1386
 6995W        W27275   1.166  19.073   1.537  0.0702 -0.2820  0.1011
 6996W        W27276   1.464   3.050   1.204  0.2229 -0.2277 -0.1459
 6997W        W27277   2.032   7.926   2.638  0.1186 -0.0116 -0.1021
 6998W        W27278  13.933  16.250   4.873  0.0766  0.1770  0.2756
 6999W        W27279   8.912  19.011   1.250 -0.2133 -0.0437 -0.3824
 7000W        W27280   3.959  17.572   0.933  0.1655 -0.3990  0.0901
 7001W        W27281  14.627   2.549  12.206  0.1280  0.0824  0.2347
 7002W        W27282   3.070   7.240   1.241 -0.0843 -0.2003  0.2329
 7003W        W27283  13.783   2.728  11.588  0.0848 -0.0625  0.2449
 7004W        W27284   0.343   1.285   1.632 -0.0606  0.1435  0.0941
 7005W        W27285  17.138  14.817   0.940 -0.0256  0.0365  0.0911
 7006W        W27286   2.877   0.061  10.996 -0.2067  0.0118 -0.0232
 7007W        W27287  12.774  17.764   2.704 -0.0027 -0.2702  0.0662
 7008W        W27288  12.843   5.755   3.288  0.1477 -0.1261 -0.1862
 7009W        W27289  14.660   9.865  13.799 -0.2351 -0.2186 -0.1229
 7010W        W27290  15.688  18.080   3.129 -0.0918 -0.1472  0.1732
 7011W        W27291   0.162  12.084  13.622  0.2322  0.0108 -0.2430
 7012W        W27292  17.985  14.440   0.661  0.1033  0.1895  0.0283
 7013W        W27293  18.613   2.771   9.908  0.5662  0.0088  0.0371
 7014W        W27294   3.383   1.357  12.828 -0.1715 -0.2897 -0.0803
 7015W        W27295   1.144  12.550  12.294  0.1300 -0.1230 -0.2344
 7016W        W27296   5.216   6.780  11.499  0.0935  0.2089  0.1786
 7017W        W27297  11.592   0.261   0.732  0.1642 -0.2646 -0.1684
 7018W        W27298  12.077  12.548   3.302 -0.0340  0.2510  0.1416
 7019W        W27299   7.541  16.364   4.808  0.1823  0.0224 -0.0824
 7020W        W27300  10.232   2.240   3.595  0.1935  0.0146  0.1444
 7021W        W27301   2.302  18.290   2.524 -0.2801  0.0840 -0.2027
 7022W        W27302   8.940  16.405   0.806  0.1643  0.2144  0.0653
 7023W        W27303  12.250  15.041  12.153  0.2585  0.0764 -0.2164
 7024W        W27304   6.880   6.492  12.610 -0.2827  0.1596  0.1061
 7025W        W27305  14.972   4.554   9.984 -0.0327 -0.4153 -0.0482
 7026W        W27306   3.777   5.187  12.792 -0.1454  0.0599 -0.0977
 7027W        W27307  15.141   5.917   2.667 -0.3174 -0.1837  0.3400
 7028W        W27308   2.355  15.446  12.775 -0.1791 -0.3704 -0.1514
 7029W        W27309  13.068  10.957   9.334 -0.1556 -0.0904  0.0386
 7030W        W27310   5.612   3.292   0.241 -0.1809 -0.0065 -0.3017
 7031W        W27311   4.982   0.659  13.221 -0.0057 -0.0185  0.0613
 7032W        W27312  16.180  16.221   3.508 -0.2085  0.2238 -0.0188
 7033W        W27313   6.765  17.710   9.278 -0.1564 -0.3021  0.1838
 7034W        W27314   1.714  14.843  12.443  0.0422 -0.2584 -0.2503
 7035W        W27315  19.298  10.775  11.055 -0.3527 -0.1660  0.2367
 7036W        W27316   0.702  13.377   2.211 -0.0669 -0.1124 -0.3182
 7037W        W27317  12.809  17.063  11.572 -0.1896 -0.2967 -0.0077
 7038W        W27318  15.369  13.723   3.247  0.1479 -0.3040 -0.3534
 7039W        W27319   2.259   7.917   0.206  0.0225 -0.3617  0.0069
 7040W        W27320  12.644  13.630   2.895  0.2563 -0.0440 -0.0834
 7041W        W27321  14.092  12.777   0.230  0.1948 -0.0546  0.2153
 7042W        W27322  16.782   4.832  10.268  0.4376 -0.1545 -0.0256
 7043W        W27323  18.081   4.380  10.866 -0.0814  0.0010 -0.1562
 7044W        W27324  10.327   1.671  11.404 -0.3262  0.2607  0.0605
 7045W        W27325   0.405   5.202   4.664  0.1731  0.1658 -0.0136
 7046W        W27326  12.907   5.148   3.276 -0.0381 -0.2531 -0.0398
 7047W        W27327  13.966  12.306  13.004  0.1635 -0.3267 -0.0235
 7048W        W27328   0.520   7.953   3.121 -0.2955 -0.4766 -0.2201
 7049W        W27329   3.035   1.812   1.214 -0.2443 -0.0224  0.2532
 7050W        W27330   4.758   0.689  11.801  0.0493 -0.1253  0.1089
 7051W        W27331  10.923  13.658   0.884  0.1797 -0.0741 -0.0365
 7052W        W27332  10.910   6.017  13.134 -0.0322 -0.7543  0.0301
 7053W        W27333  18.365  17.450   2.576  0.1617 -0.1974 -0.0365
 7054W        W27334  16.328   8.742  13.236  0.0252  0.1626 -0.2247
 7055W        W27335  12.785  19.094   3.861  0.1694  0.0928 -0.0858
 7056W        W27336   7.476   2.127   0.515  0.0834 -0.2471  0.1477
 7057W        W27337  15.881   9.086   9.847 -0.2272  0.1358 -0.1588
 7058W        W27338   1.489   2.708   0.574 -0.2710 -0.1395  0.2098
 7059W        W27339   1.633  17.202   4.132 -0.2605  0.1358  0.1775
 7060W        W27340  19.690  12.198   3.703 -0.4600 -0.1876  0.0089
 7061W        W27341   0.117  16.778   0.952  0.1184 -0.3140 -0.4074
 7062W        W27342  16.738   5.062   0.733  0.0030  0.0229 -0.0014
 7063W        W27343   5.332   3.464  12.736 -0.3704  0.0947  0.0135
 7064W        W27344   0.613  18.293   4.044 -0.0936  0.1154 -0.0457
 7065W        W27345   0.235   1.561  13.796  0.0088  0.3655 -0.1434
 7066W        W27346   2.433  10.997   1.895  0.1879  0.1384  0.1243
 7067W        W27347   9.347  17.146  12.990  0.0348  0.2973 -0.2245
 7068W        W27348  16.432   2.976  13.367 -0.1480 -0.3347  0.1405
 7069W        W27349  15.706  13.466  11.179 -0.0289 -0.0069  0.0090
 7070W        W27350   6.900  10.327   2.134  0.0793 -0.3303  0.3898
 7071W        W27351   7.607   7.796  13.212  0.2047  0.0572 -0.2024
 7072W        W27352   7.620  16.398   1.755  0.1991 -0.0303 -0.1555
 7073W        W27353   6.268   4.955   4.125  0.0733  0.1949 -0.1694
 7074W        W27354  17.080   5.950  12.562  0.0613  0.2916 -0.3323
 7075W        W27355   7.928  11.464  12.003  0.2200 -0.4184  0.1350
 7076W        W27356   8.822   8.092   0.627 -0.1289  0.0342  0.0146
 7077W        W27357   7.304  17.202  11.435 -0.1878 -0.2221  0.1641
 7078W        W27358   7.312  11.765   2.135  0.0521  0.2852 -0.0545
 7079W        W27359  13.143   1.087   1.411 -0.1063 -0.1206  0.1537
 7080W        W27360   3.597   7.161  11.074 -0.0148  0.3037  0.1058
 7081W        W27361  16.908   8.363  10.374 -0.0696 -0.2609 -0.1538
 7082W        W27362  13.154  18.191   1.212  0.2775 -0.1687  0.2533
 7083W        W27363   5.038  10.729  12.383 -0.1491  0.2933 -0.0971
 7084W        W27364  11.401  15.987   0.429 -0.1207  0.0276 -0.0444
 7085W        W27365  17.540   8.635   0.594 -0.2520 -0.2209 -0.2857
 7086W        W27366  11.858   0.657   3.399 -0.1695  0.1161 -0.0448
 7087W        W27367   9.307   2.270  10.762 -0.0126  0.2132 -0.0222
 7088W        W27368  14.289  15.717   8.944  0.1656  0.1036 -0.1492
 7089W        W27369  15.197   7.597   1.730  0.1505 -0.2729  0.0911
 7090W        W27370  19.895   6.634   2.997 -0.0994  0.0974  0.0118
 7091W        W27371   0.486  18.004  12.823 -0.1582 -0.0892 -0.0872
 7092W        W27372   1.886  18.855   4.316 -0.4506 -0.3083 -0.0197
 7093W        W27373   6.198  11.769   3.718  0.4370  0.1302  0.2819
 7094W        W27374  19.527  13.300  10.823  0.2445 -0.1217  0.0073
 7095W        W27375   8.017   9.252   3.664 -0.1192  0.1957  0.3354
 7096W        W27376   8.756  14.417   3.554 -0.0750 -0.1431 -0.1811
 7097W        W27377   6.428   7.659   1.438 -0.3360 -0.3346 -0.2165
 7098W        W27378   1.794  17.624  12.656 -0.1671  0.0895  0.1896
 7099W        W27379   8.978  15.517   1.394 -0.1291  0.2499  0.0353
 7100W        W27380   8.897  16.885  13.055  0.2830  0.3253 -0.1070
 7101W        W27381   7.946   6.858  10.721 -0.3133  0.2936 -0.0447
 7102W        W27382   1.394  17.151   3.420 -0.4181 -0.1058 -0.2679
 7103W        W27383  10.808   0.185   1.198  0.4014  0.3418 -0.0039
 7104W        W27384  11.654   2.566  12.523  0.1602  0.0813 -0.0615
 7105W        W27385   8.847  10.368   0.451 -0.2173  0.1449  0.1468
 7106W        W27386   6.698  10.752  11.415  0.1926  0.0668  0.1295
 7107W        W27387   5.959  14.780   4.270 -0.0229 -0.1983 -0.0705
 7108W        W27388   3.023   2.277   0.524 -0.2751  0.1126 -0.0917
 7109W        W27389  19.365  15.579  12.265 -0.1070  0.0257 -0.0673
 7110W        W27390   3.862  19.614   3.340  0.4661 -0.3738 -0.0346
 7111W        W27391  13.075  16.532   3.884 -0.3715 -0.1518  0.0960
 7112W        W27392  11.901   5.889  10.495  0.3613 -0.2446  0.1884
 7113W        W27393  12.866   1.470   1.260 -0.0851  0.0226 -0.1409
 7114W        W27394   4.124   5.277   1.766  0.1210  0.1932  0.0027
 7115W        W27395   4.795  12.390   1.004 -0.3942 -0.0243  0.0450
 7116W        W27396  15.900  18.034  11.526 -0.0400 -0.3136 -0.1383
 7117W        W27397  14.614   0.161  12.235 -0.2329 -0.1531 -0.1381
 7118W        W27398  10.639   4.391  12.444  0.0687 -0.0941  0.0087
 7119W        W27399  11.156   8.314   9.425  0.0476 -0.2661  0.0034
 7120W        W27400   6.657   4.529  11.087  0.0025  0.1199  0.2360
 7121W        W27401  17.775  10.577   9.075 -0.1422  0.0244 -0.1825
 7122W        W27402   9.119   8.325  13.095  0.3082  0.3876 -0.1182
 7123W        W27403   9.936   6.938  13.237 -0.3274  0.0292 -0.0043
 7124W        W27404   4.843  14.873  10.990 -0.3067 -0.0216 -0.1211
 7125W        W27405   1.541  11.698  13.061 -0.0108 -0.0361 -0.0834
 7126W        W27406   6.743   4.577  13.049 -0.0898  0.2070 -0.1125
 7127W        W27407  15.340   4.234  12.829  0.0735  0.1146 -0.0559
 7128W        W27408  15.527  18.138   0.749  0.4478  0.1905  0.0774
 7129W        W27409  10.008   5.420   1.751 -0.1110  0.1826 -0.2376
 7130W        W27410  14.657  14.840   2.755  0.0070  0.3687  0.0251
 7131W        W27411   4.569  18.677   1.051 -0.1063  0.1533  0.2744
 7132W        W27412   7.006   0.031  11.645  0.0903  0.0543  0.0693
 7133W        W27413  11.618  10.061  13.199 -0.2491 -0.0260 -0.3683
 7134W        W27414  14.592   8.404  11.954 -0.2631 -0.1344 -0.0191
 7135W        W27415   0.486   8.495  11.145 -0.0493  0.0032 -0.1278
 7136W        W27416   9.681  15.647  11.121 -0.0318  0.0789  0.2609
 7137W        W27417   7.224   3.380   2.354 -0.1229  0.0048 -0.0289
 7138W        W27418   9.843  10.787   4.901 -0.0022  0.0637  0.1446
 7139W        W27419  10.576  18.879  11.399  0.0075 -0.0760  0.0040
 7140W        W27420   2.432  13.272   9.923  0.1683 -0.2540 -0.3498
 7141W        W27421  15.406  18.614  11.134  0.0435 -0.0861  0.1314
 7142W        W27422   4.168  18.156   3.103 -0.0879 -0.0751 -0.0432
 7143W        W27423  15.169  11.618   1.222 -0.2526  0.0010  0.0138
 7144W        W27424   6.532   5.762   9.746  0.2354 -0.2037  0.2219
 7145W        W27425   0.369   7.832   1.302 -0.0801 -0.3715 -0.2138
 7146W        W27426   2.082   0.995   0.050  0.1804 -0.2206  0.1787
 7147W        W27427   0.290   2.733   4.008 -0.0469 -0.1639 -0.0535
 7148W        W27428  19.719   9.550  11.531 -0.1302 -0.1099  0.1280
 7149W        W27429  13.188   0.616   2.098  0.1397  0.2474  0.1337
 7150W        W27430  18.284   6.562  10.559 -0.0437 -0.1748 -0.0390
 7151W        W27431  12.126   9.367   2.407  0.1982 -0.0488 -0.2180
 7152W        W27432   2.861   7.124   1.722 -0.1013 -0.2357  0.0692
 7153W        W27433  16.072  18.077   8.534  0.2653  0.1362  0.0349
 7154W        W27434   6.504   8.794   4.175 -0.1930  0.2408  0.0599
 7155W        W27435  18.445  10.501  11.314 -0.2597 -0.2624  0.0026
 7156W        W27436  18.925   7.894   1.636  0.3674  0.0273 -0.0329
 7157W        W27437   3.350  13.092   3.600 -0.0837 -0.1107 -0.2105
 7158W        W27438  13.530  18.030   0.870  0.1748  0.0125  0.1913
 7159W        W27439  17.831   9.523  13.203  0.2708 -0.0554 -0.2760
 7160W        W27440   3.609  18.097  11.985  0.4155 -0.0093 -0.0757
 7161W        W27441   5.698   4.460   0.826  0.0773  0.1509 -0.0770
 7162W        W27442  18.075  18.351  13.256 -0.0918 -0.3253 -0.0213
 7163W        W27443   2.801  17.762  11.740 -0.0583  0.1099  0.1104
 7164W        W27444   6.396  13.057  13.615 -0.2166  0.2588  0.0219
 7165W        W27445   3.252   9.790   1.936 -0.0005 -0.0152 -0.4479
 7166W        W27446  18.259   4.939  12.638  0.0878 -0.0188 -0.2484
 7167W        W27447   7.396  16.206  12.308 -0.0719 -0.1136  0.2651
 7168W        W27448   7.079  13.381  12.586  0.0122  0.1521  0.2197
 7169W        W27449   4.411   6.609  12.833  0.1217 -0.0464  0.4910
 7170W        W27450   2.988  19.305  11.426  0.0286  0.0208  0.0218
 7171W        W27451  10.274   2.806  13.440 -0.2438 -0.4120  0.0736
 7172W        W27452   1.387  11.850   0.509  0.0397 -0.3836 -0.2876
 7173W        W27453   7.557   0.851   3.184  0.0445 -0.2216 -0.2110
 7174W        W27454   4.185   3.189   9.488 -0.1069 -0.4472 -0.4945
 7175W        W27455  18.284   7.823  10.133 -0.1766  0.1164  0.0250
 7176W        W27456  12.420   4.342  13.574 -0.1453 -0.2354 -0.1486
 7177W        W27457   5.495  10.459  13.164 -0.0006 -0.0675 -0.1110
 7178W        W27458   2.223  11.638   1.348  0.2935 -0.0029 -0.0729
 7179W        W27459   1.948   9.257   3.675 -0.1571  0.0635 -0.1021
 7180W        W27460   2.125   3.770   1.333  0.1075 -0.2435 -0.0439
 7181W        W27461   5.156   9.074  10.350 -0.0278  0.3754 -0.0989
 7182W        W27462   2.328  18.000  10.261  0.1082 -0.3565  0.1294
 7183W        W27463  10.806   0.873   0.475 -0.1470  0.0363 -0.0438
 7184W        W27464  17.810   5.689   2.117  0.1883 -0.0284  0.0115
 7185W        W27465  14.831  17.271  10.682 -0.0277  0.1329 -0.1927
 7186W        W27466  10.496   2.869  12.471 -0.1561  0.0629  0.2308
 7187W        W27467   0.258  14.891   3.277 -0.1823 -0.0285  0.1040
 7188W        W27468   5.776  15.145  12.580 -0.0608 -0.1981 -0.0013
 7189W        W27469  12.510   9.329  11.779  0.1019  0.0295  0.1284
 7190W        W27470  14.449   7.605  10.221 -0.1431 -0.0060 -0.1016
 7191W        W27471   0.627  19.497  11.742  0.1492 -0.0105 -0.1138
 7192W        W27472   1.817   3.674   1.768 -0.0942  0.0642  0.2243
 7193W        W27473   2.586   6.385  10.778  0.0487  0.2052  0.1326
 7194W        W27474   5.445  16.887  11.308  0.1397 -0.0564 -0.1229
 7195W        W27475  11.380   7.684  10.696 -0.1184  0.0810 -0.0907
 7196W        W27476  19.837  18.516  10.287  0.0978 -0.1211 -0.1083
 7197W        W27477  12.385  13.594  10.780 -0.0448  0.2091  0.0906
 7198W        W27478  14.651   1.655  12.059 -0.1842 -0.3169 -0.1147
 7199W        W27479   9.509  12.893  13.324  0.3574 -0.1188  0.0433
 7200W        W27480   8.320  17.832   3.787  0.0998  0.1452 -0.1014
 7201W        W27481  12.700  15.680   9.753 -0.0125  0.3287  0.3007
 7202W        W27482  13.649  18.542   0.164 -0.0534 -0.2341 -0.0857
 7203W        W27483  17.457   5.144   2.904  0.3230  0.2931  0.0696
 7204W        W27484  16.160  12.909  10.780  0.2775  0.2421  0.2320
 7205W        W27485  19.852   3.382   2.666  0.3574  0.0752 -0.0876
 7206W        W27486  17.814   5.773   0.926 -0.2992 -0.1250  0.0487
 7207W        W27487  11.557  18.091   3.004  0.0262 -0.1324 -0.2094
 7208W        W27488  10.304   7.315   3.655  0.0437 -0.1072 -0.2252
 7209W        W27489   5.697   1.090  13.707  0.4302  0.0693 -0.2074
 7210W        W27490   8.379   1.038   0.172 -0.2969  0.2676  0.3557
 7211W        W27491  13.144   8.864   0.419  0.2055 -0.1120 -0.3409
 7212W        W27492  12.740  16.025  11.899 -0.3774  0.2934  0.0294
 7213W        W27493  17.112   6.800   0.631 -0.0448 -0.1439 -0.0958
 7214W        W27494   6.125   4.510  11.609  0.0727 -0.1233  0.1253
 7215W        W27495   7.304   3.164   1.565 -0.0008  0.2604  0.0633
 7216W        W27496   0.975   1.008   0.062 -0.0113 -0.0373  0.1148
 7217W        W27497   6.485  13.179   3.068  0.0131  0.2050  0.3399
 7218W        W27498  10.596  18.086   1.035  0.1117  0.0118 -0.1832
 7219W        W27499  10.182  16.465  10.851 -0.0193  0.1690 -0.1423
 7220W        W27500   1.060  12.014   2.532  0.2351  0.0938  0.0598
 7221W        W27501   8.979  13.568  12.283 -0.1656  0.1357 -0.0547
 7222W        W27502   1.640   8.547  11.192  0.1522 -0.1754  0.2888
 7223W        W27503   6.095   0.600   2.587 -0.0096 -0.0033 -0.1337
 7224W        W27504   8.898   3.474   0.160  0.2026 -0.0371  0.0221
 7225W        W27505  10.033   0.064  12.800  0.2190 -0.0168 -0.0301
 7226W        W27506  16.174  11.863  12.923  0.2642 -0.2881 -0.0885
 7227W        W27507   0.585  16.162   1.108 -0.1034  0.1874 -0.0469
 7228W        W27508  10.452   3.476  12.721 -0.0212  0.2437  0.2625
 7229W        W27509  19.882  16.755  10.571 -0.4433  0.2115  0.2413
 7230W        W27510  11.140  18.771  12.116  0.1561 -0.3717  0.1082
 7231W        W27511   7.575   1.398  11.829  0.2034  0.0708 -0.3530
 7232W        W27512  10.842   9.288  13.366 -0.0308 -0.0026 -0.2808
 7233W        W27513   6.385  13.925   1.981  0.5163  0.2702 -0.1570
 7234W        W27514   5.693  13.546  12.652  0.1146 -0.0491  0.2343
 7235W        W27515   7.682   2.205  11.458  0.1051 -0.0759 -0.1591
 7236W        W27516  15.705  18.400   2.312 -0.1263  0.4071  0.0007
 7237W        W27517   3.152  19.361  10.229  0.1175 -0.0326 -0.2537
 7238W        W27518  17.071   6.123  13.805 -0.0865 -0.0913  0.0773
 7239W        W27519   5.609  12.991  11.607 -0.0938  0.1586 -0.0220
 7240W        W27520  18.788   5.617  13.724 -0.2503  0.2358  0.0397
 7241W        W27521   5.088   0.487   3.147 -0.0482  0.1752 -0.1326
 7242W        W27522   9.908   2.525   2.438 -0.0053  0.0529 -0.0244
 7243W        W27523   7.860   3.077  12.564  0.0572 -0.1864  0.4344
 7244W        W27524  17.751  15.172  10.509  0.0678 -0.0236 -0.0594
 7245W        W27525   9.439   0.222  12.168  0.2042  0.0346 -0.3849
 7246W        W27526  16.018   9.697  12.293  0.0117 -0.2169 -0.2078
 7247W        W27527  16.376  19.093  13.439 -0.0793  0.0423 -0.0012
 7248W        W27528  18.501   6.059   1.770 -0.5893 -0.0869 -0.0794
 7249W        W27529   7.850  12.047  12.008  0.1384  0.1784  0.0053
 7250W        W27530   2.246   0.907  12.192  0.1887  0.0752  0.1830
 7251W        W27531   0.396  16.470   0.218 -0.1765 -0.0119 -0.0481
 7252W        W27532  18.803   2.781   0.117  0.0233  0.1830 -0.1914
 7253W        W27533   7.244  12.213  10.424  0.3881  0.1760 -0.2305
 7254W        W27534   2.623  16.145  10.794  0.1422 -0.3893  0.0487
 7255W        W27535  18.460   4.701  13.795  0.1316 -0.0261  0.1088
 7256W        W27536  11.572   7.508   2.694 -0.2858  0.0535 -0.0921
 7257W        W27537   7.071   4.013   9.120  0.1442  0.0830 -0.2760
 7258W        W27538   9.233   0.335   4.595  0.0712 -0.2413 -0.1455
 7259W        W27539   3.150  12.963   4.100 -0.0796 -0.1810  0.1139
 7260W        W27540   4.807   7.424  13.372 -0.0617 -0.0536 -0.0656
 7261W        W27541   9.451  16.518  11.407  0.1239  0.1502  0.0812
 7262W        W27542  16.752   2.082  12.518 -0.0214  0.2344 -0.0399
 7263W        W27543  16.246   5.983  12.494 -0.1330  0.2433  0.2635
 7264W        W27544   4.687   0.190   3.474  0.0832  0.0452  0.0539
 7265W        W27545   3.408  14.509   3.115  0.4668  0.2822  0.1775
 7266W        W27546  15.877  10.210   1.420  0.3178 -0.0475  0.0807
 7267W        W27547  14.163  16.514  10.345  0.1117  0.0198 -0.2154
 7268W        W27548  16.097  14.871  10.069 -0.1361 -0.1680 -0.0745
 7269W        W27549  14.547  17.827   2.936  0.2207 -0.0719 -0.4794
 7270W        W27550  18.383  19.586  10.990 -0.0815 -0.0316 -0.4744
 7271W        W27551  13.107  16.367  10.569 -0.2112  0.0737  0.1814
 7272W        W27552  16.329  10.964  12.401 -0.2139 -0.2455  0.3105
 7273W        W27553   1.131   1.030   1.835 -0.4398  0.1322  0.0548
 7274W        W27554  15.159   6.200   1.632  0.3797 -0.0404  0.0464
 7275W        W27555   4.053   8.512   1.217 -0.1015  0.1110  0.2649
 7276W        W27556   2.328  15.108   0.151  0.3125  0.0777 -0.0685
 7277W        W27557   8.618   5.493  12.268  0.1513 -0.0056 -0.2643
 7278W        W27558  17.279  11.708  13.618  0.1804 -0.2528 -0.3265
 7279W        W27559   4.864  13.094  12.766  0.1903 -0.0042  0.0017
 7280W        W27560   3.248   2.950   3.436 -0.0096 -0.4016 -0.0766
 7281W        W27561  17.860   9.228   2.068 -0.1448  0.1011  0.3719
 7282W        W27562   1.049  18.128  11.580  0.1035  0.2659 -0.3058
 7283W        W27563   3.071   6.145  10.737  0.2338  0.1765 -0.1022
 7284W        W27564   8.446  18.251   0.657  0.0004 -0.2134  0.2967
 7285W        W27565   0.523   7.584  10.850  0.2686 -0.0505 -0.2112
 7286W        W27566   0.152   4.025  12.926  0.1624  0.1211 -0.1653
 7287W        W27567  13.434  10.546  13.580  0.0569 -0.2137 -0.1049
 7288W        W27568  11.404   5.581   1.016 -0.3210 -0.1359 -0.3387
 7289W        W27569   4.764  12.011  13.612  0.1893  0.1551 -0.2214
 7290W        W27570   3.172  12.909   3.183  0.1151 -0.1336 -0.3781
 7291W        W27571   3.562  14.695  10.538 -0.1814  0.0664 -0.0280
 7292W        W27572   0.613  12.092  13.313 -0.1576 -0.1995 -0.6222
 7293W        W27573   9.267   7.467   1.904 -0.2149  0.0402 -0.0581
 7294W        W27574  17.131  10.985   0.460 -0.4296  0.0144 -0.3572
 7295W        W27575   3.639  13.573  13.596  0.2674 -0.0153 -0.1870
 7296W        W27576  19.734   1.163  10.572  0.1524  0.1135 -0.1877
 7297W        W27577  11.068  15.071  11.568 -0.0731 -0.1971  0.2679
 7298W        W27578   6.063  14.097  13.001  0.3793 -0.1669 -0.4915
 7299W        W27579  12.608   3.113  10.788  0.2722 -0.2678  0.2507
 7300W        W27580  13.148   3.592  11.355  0.1122  0.1931  0.2519
 7301W        W27581   5.222   3.087   0.713  0.1073 -0.0043 -0.2364
 7302W        W27582  14.442   1.306  11.758 -0.2864 -0.0538  0.2994
 7303W        W27583   5.145   2.937   3.644  0.0175 -0.1362 -0.2076
 7304W        W27584  19.732  16.561  11.902  0.0722  0.0657  0.0502
 7305W        W27585  11.256  19.955   3.520 -0.1312  0.2606 -0.0911
 7306W        W27586  14.494   6.382  12.781 -0.1074  0.0017 -0.4140
 7307W        W27587   3.064   5.573   9.300 -0.3641  0.1148  0.0894
 7308W        W27588   8.670   4.481   3.374  0.3906  0.1957 -0.0295
 7309W        W27589   0.488  18.576  10.372  0.1213  0.3157  0.0394
 7310W        W27590   3.455  12.560  10.619  0.1710 -0.0926  0.0142
 7311W        W27591  17.373   6.133  11.318 -0.5817 -0.1620 -0.0074
 7312W        W27592  18.151   5.802  12.908 -0.0599 -0.2937 -0.2386
 7313W        W27593   4.305  14.376   1.667 -0.0653 -0.0051 -0.1506
 7314W        W27594   0.034   1.948   3.026  0.1606  0.0519 -0.0405
 7315W        W27595  18.103   4.148   0.569 -0.0736  0.1839 -0.0810
 7316W        W27596   3.303  10.262   1.594  0.0186  0.0036 -0.4179
 7317W        W27597   7.942   4.106   1.828  0.1244  0.0746 -0.0197
 7318W        W27598   8.119  12.114   2.648 -0.2856  0.1386  0.0466
 7319W        W27599   6.411  18.215   1.929  0.3695 -0.5334  0.2929
 7320W        W27600  11.285  16.586   1.985  0.0664 -0.0506 -0.4266
 7321W        W27601   8.627   4.019  10.008  0.1352 -0.2391  0.1314
 7322W        W27602   0.975   5.370  11.492  0.1506  0.1010 -0.0037
 7323W        W27603   8.231   7.371   1.022  0.0389 -0.0653 -0.2749
 7324W        W27604   7.949  18.053   4.069  0.0294 -0.2913  0.1723
 7325W        W27605  17.228  17.302   2.788 -0.1206 -0.2456 -0.4128
 7326W        W27606   3.019   6.812  12.483  0.1224  0.0555  0.0468
 7327W        W27607  13.139  11.800   2.662  0.1964  0.0644 -0.4213
 7328W        W27608  19.037  13.836  11.863  0.0207 -0.0688  0.1485
 7329W        W27609  16.999  11.482   1.737  0.1226  0.0382 -0.0085
 7330W        W27610  10.887  18.109   1.918 -0.0864 -0.1315 -0.2996
 7331W        W27611  17.898  15.260   0.320  0.0820  0.2151  0.0022
 7332W        W27612  16.621   1.016  10.358  0.3697  0.0878 -0.1977
 7333W        W27613  13.289  19.124  11.746 -0.0306  0.1896  0.0775
 7334W        W27614  18.201   3.825  11.343  0.2939  0.0938  0.0396
 7335W        W27615  18.248   3.467  11.856  0.2299 -0.0428 -0.3431
 7336W        W27616  17.241  10.387  13.723  0.1552  0.2670  0.0503
 7337W        W27617   5.259  18.383  13.684 -0.1642  0.3414 -0.0873
 7338W        W27618   5.349  12.298   4.247 -0.1911  0.0657 -0.2660
 7339W        W27619   2.081  11.589  13.143  0.0449 -0.1775  0.1394
 7340W        W27620   2.658   9.704   3.002 -0.1476 -0.0961 -0.3476
 7341W        W27621   7.839   7.608  12.807 -0.2769 -0.0366  0.1581
 7342W        W27622   3.765  17.833  11.543  0.0859 -0.0815 -0.0436
 7343W        W27623  14.270   5.609   0.281 -0.2612  0.1075  0.0758
 7344W        W27624   1.620  11.940   2.317 -0.0822 -0.0279 -0.0723
 7345W        W27625  11.529  18.368  13.222 -0.2106  0.2700 -0.0649
 7346W        W27626  10.887   0.423   3.480 -0.2727 -0.0647 -0.1007
 7347W        W27627  12.592   6.299  12.286 -0.1995  0.0718 -0.1588
 7348W        W27628  13.805   5.615  12.446  0.0557 -0.1597  0.1260
 7349W        W27629  19.901  18.039   0.919  0.1774 -0.0828 -0.3924
 7350W        W27630  17.529   5.722   2.585  0.1144 -0.0543  0.0350
 7351W        W27631   6.369  12.142   1.941  0.1086 -0.1541  0.1211
 7352W        W27632  10.565   3.961   1.875 -0.0703  0.0553  0.1029
 7353W        W27633  13.426   1.846   1.316 -0.1441 -0.1976  0.1107
 7354W        W27634   0.165   4.540   9.907 -0.1476  0.2623 -0.0774
 7355W        W27635   6.649   4.393   2.732  0.0640  0.0835 -0.0382
 7356W        W27636   9.247   2.474  12.587 -0.4247 -0.0324 -0.2586
 7357W        W27637  11.217   6.041   1.958 -0.0476 -0.1206  0.1842
 7358W        W27638   6.057  15.016   3.377  0.1536  0.2691 -0.3395
 7359W        W27639   1.226  11.983   0.042 -0.1900  0.0598  0.1681
 7360W        W27640   7.084  15.240   1.443  0.0018  0.3779 -0.0393
 7361W        W27641  11.294   2.129   0.324  0.0010 -0.0962  0.1759
 7362W        W27642  10.970   2.747  12.593  0.0048  0.0712 -0.1599
 7363W        W27643   0.530  10.269  13.032 -0.1107 -0.1478  0.0469
 7364W        W27644   1.141   1.124  11.418 -0.0584  0.3160 -0.2791
 7365W        W27645  15.433   0.925   3.679 -0.0145 -0.0579 -0.3221
 7366W        W27646  11.195  16.994   4.289 -0.1910  0.1583 -0.0574
 7367W        W27647   5.832   1.527  11.968 -0.0202 -0.2108 -0.1345
 7368W        W27648  10.801   9.221   2.721  0.0695  0.3787  0.1109
 7369W        W27649   8.439   9.616   0.131 -0.3208 -0.0664 -0.1180
 7370W        W27650  14.948   0.244   3.925  0.1395 -0.0367 -0.0581
 7371W        W27651   0.319   9.363   1.369 -0.1888  0.0394 -0.0931
 7372W        W27652  16.622   7.125   1.913 -0.1979 -0.0429 -0.3252
 7373W        W27653  12.102   6.021   9.732 -0.0730  0.2678  0.0563
 7374W        W27654  17.072   7.299  12.184  0.0610  0.0032 -0.0400
 7375W        W27655   8.213  13.220   0.468  0.1286  0.0506 -0.1352
 7376W        W27656  10.561  15.386   2.098  0.1472  0.1860  0.2406
 7377W        W27657   8.738  11.631   1.216 -0.0966 -0.1122  0.1586
 7378W        W27658   6.897  12.838  11.378  0.1656 -0.1370  0.1088
 7379W        W27659   9.687   3.791  11.319 -0.0959  0.0222 -0.0967
 7380W        W27660   3.074  15.324   3.634  0.1307  0.0516  0.2780
 7381W        W27661  17.646   0.722  11.352  0.2253  0.2654 -0.0549
 7382W        W27662  12.984   4.872  11.387 -0.0898  0.0229 -0.0218
 7383W        W27663  11.646  14.912  13.313  0.3219  0.2898 -0.1984
 7384W        W27664  16.798  18.581  12.711 -0.0531  0.1328 -0.0219
 7385W        W27665   1.562   8.583  13.679  0.3504 -0.0521  0.0314
 7386W        W27666  17.715  11.345  10.198  0.2153 -0.2302 -0.0924
 7387W        W27667   0.066   0.394   2.217 -0.2906  0.0761 -0.1023
 7388W        W27668   1.675  13.822   0.438  0.3335  0.1142  0.0197
 7389W        W27669   3.986  18.483  12.166  0.0955  0.0547  0.2120
 7390W        W27670   5.432   7.805   2.609 -0.0983 -0.3109  0.0380
 7391W        W27671  17.745   5.185   1.073 -0.1611 -0.1831 -0.1326
 7392W        W27672  15.024  10.306   0.913 -0.0370  0.2714 -0.0745
 7393W        W27673  18.655  17.974   9.925  0.1625 -0.2415  0.0517
 7394W        W27674   2.165  17.555   0.121  0.0159  0.1152  0.1523
 7395W        W27675  13.891   0.663   0.865  0.1130 -0.0586  0.0392
 7396W        W27676  16.882   3.678   3.441  0.0768 -0.0285  0.1092
 7397W        W27677   4.297  19.844   3.373 -0.1951  0.0302  0.3192
 7398W        W27678   5.668   0.384  11.142  0.1650  0.1806 -0.1075
 7399W        W27679  18.568  16.433   2.398  0.0625 -0.2814  0.0626
 7400W        W27680  17.611  15.288  11.209 -0.1368  0.2116 -0.0209
 7401W        W27681   2.896   3.583  13.008  0.2055 -0.1025 -0.0626
 7402W        W27682  15.501   2.439  10.614 -0.0556  0.0792 -0.1015
 7403W        W27683   8.818   1.502  12.372 -0.0678  0.2527 -0.2202
 7404W        W27684  19.042   5.460  12.132  0.1598  0.1128 -0.1025
 7405W        W27685   0.257   2.338  11.727 -0.0512  0.4399 -0.0673
 7406W        W27686   2.045  10.017  13.628 -0.1434 -0.0371  0.1488
 7407W        W27687  17.648  15.103  11.931 -0.4015  0.2703 -0.2364
 7408W        W27688  18.320   0.134  11.186  0.1603  0.0801  0.0075
 7409W        W27689  19.782   5.503   2.010  0.1943 -0.1213 -0.1466
 7410W        W27690  12.102   1.033   4.933 -0.0468  0.0406  0.0890
 7411W        W27691   8.796   0.899  10.372  0.1385  0.0806  0.2169
 7412W        W27692  18.408  12.826   2.564 -0.1481  0.1338  0.1092
 7413W        W27693   7.066   7.144  13.228 -0.1064 -0.2599  0.2053
 7414W        W27694  14.436  19.616  13.201  0.1521  0.0766  0.0152
 7415W        W27695   2.127   3.078  11.079 -0.1541  0.0855 -0.3195
 7416W        W27696  18.430   7.880   2.859  0.1441  0.2670  0.1045
 7417W        W27697  19.027   3.164   2.500 -0.0449 -0.0145  0.2979
 7418W        W27698   9.422  17.054   2.949  0.3337  0.1148 -0.0853
 7419W        W27699  15.824   7.967   2.785 -0.2089  0.1276  0.2170
 7420W        W27700  17.110   5.365   0.004 -0.0267 -0.1295  0.0953
 7421W        W27701  14.039  18.726   5.040 -0.0113 -0.3705 -0.0111
 7422W        W27702  11.612   7.260   3.562 -0.0222  0.1535  0.2141
 7423W        W27703   6.707   5.903  11.925 -0.2944 -0.0313 -0.1920
 7424W        W27704  16.347   2.412  12.569  0.1283 -0.0076 -0.1890
 7425W        W27705   9.564  14.586   3.217 -0.3140 -0.1232 -0.0309
 7426W        W27706  17.363   3.874   1.111 -0.0304  0.0566  0.3761
 7427W        W27707  19.653  12.151   2.369 -0.1771  0.0362  0.2186
 7428W        W27708   3.844   0.020  13.089  0.1182 -0.0574  0.0245
 7429W        W27709  17.523  19.608   0.509 -0.1189  0.1324  0.0979
 7430W        W27710  11.869   4.528   1.654 -0.1280 -0.0817 -0.3100
 7431W        W27711  15.721  15.252   2.770 -0.0213 -0.2540 -0.2883
 7432W        W27712   8.446   1.587   0.100  0.3928 -0.1353  0.1050
 7433W        W27713  11.788  19.140  11.031  0.1131 -0.0598 -0.0137
 7434W        W27714  18.423  17.603  11.354 -0.0627  0.1110 -0.2242
 7435W        W27715   5.610  15.166  13.783  0.1000 -0.1070 -0.0859
 7436W        W27716   1.643   1.415   0.951  0.0147 -0.0037  0.0789
 7437W        W27717  14.693   6.532   3.345  0.2467 -0.3029 -0.1286
 7438W        W27718   4.772   6.569  11.280 -0.2417  0.2982 -0.2188
 7439W        W27719  16.047  18.223  10.768 -0.0662 -0.1174  0.2728
 7440W        W27720   0.072   6.847   1.771 -0.2679 -0.1552  0.2834
 7441W        W27721  16.565  14.958   0.348  0.2487  0.1840 -0.0461
 7442W        W27722   9.642   6.660   3.706 -0.0609 -0.0103  0.0394
 7443W        W27723  19.909   6.280  12.435  0.2132 -0.2722 -0.1654
 7444W        W27724   5.773   4.958  13.264  0.2262  0.0291 -0.1939
 7445W        W27725  11.963   1.823   2.744  0.1645 -0.1683 -0.1838
 7446W        W27726  10.221  15.079   3.587 -0.1594 -0.3556 -0.1932
 7447W        W27727   5.718  19.729   4.933  0.1180  0.1041 -0.1710
 7448W        W27728   2.464  14.743   0.577  0.3020  0.1323  0.2013
 7449W        W27729   2.158  12.036  11.495 -0.3752 -0.3333  0.0887
 7450W        W27730   5.346  10.220   2.396  0.2561  0.0585  0.2075
 7451W        W27731   5.863   2.450   0.080 -0.2716 -0.2341  0.0981
 7452W        W27732  19.565   7.939  12.859 -0.1730 -0.0570  0.0435
 7453W        W27733   7.876  12.413  13.825  0.1739 -0.2772  0.0188
 7454W        W27734  18.264   6.484   1.817  0.1067 -0.2905 -0.1207
 7455W        W27735   8.389  14.766   4.837 -0.1128  0.2350 -0.1809
 7456W        W27736  12.071  16.414   2.101 -0.2557 -0.1212  0.1381
 7457W        W27737  17.274   9.738   1.694  0.0982  0.2908  0.1179
 7458W        W27738   8.916   4.669   2.166  0.1390  0.1856 -0.2899
 7459W        W27739   7.092  17.531   1.895 -0.1267  0.0194  0.2704
 7460W        W27740   5.158   6.253  11.321  0.0994 -0.3771  0.0830
 7461W        W27741  15.230  12.785   0.328  0.1500  0.0664 -0.1059
 7462W        W27742  17.359  13.204   0.919 -0.1548 -0.4241  0.0609
 7463W        W27743  13.163   5.713   4.592 -0.0483 -0.0722  0.0966
 7464W        W27744  10.011   7.838  11.323 -0.2459 -0.2722  0.0466
 7465W        W27745  13.028  10.044  11.348 -0.0841  0.1905  0.1717
 7466W        W27746   4.543   6.906   1.007  0.1218  0.2313 -0.1783
 7467W        W27747  19.519  19.691   3.645  0.1196 -0.0451 -0.0314
 7468W        W27748   1.790  11.035  13.830 -0.0933  0.0434  0.7113
 7469W        W27749   3.466   7.666   1.786 -0.0314 -0.1459  0.3469
 7470W        W27750  17.564   9.847  12.890  0.0377 -0.0865 -0.2686
 7471W        W27751   1.056  16.741   2.680  0.0459 -0.0060 -0.4311
 7472W        W27752  15.335  16.458   1.057 -0.1940  0.1512 -0.0965
 7473W        W27753  14.018   5.260  13.540  0.0913 -0.1596 -0.0754
 7474W        W27754   4.133   6.472   1.251 -0.1855  0.1206 -0.0719
 7475W        W27755  12.023  12.673   0.441 -0.3676 -0.1353  0.1124
 7476W        W27756  12.377   1.504  12.289  0.0171  0.1424  0.0303
 7477W        W27757   3.852  19.156   0.012 -0.1232 -0.0624 -0.0150
 7478W        W27758  18.799   3.621   9.794 -0.1607  0.0031  0.0736
 7479W        W27759   9.306   7.028   2.424 -0.2251 -0.0375 -0.0644
 7480W        W27760  18.423   2.482   1.992  0.1152 -0.2017 -0.1625
 7481W        W27761   9.198  13.177   1.748 -0.3890 -0.0170 -0.0323
 7482W        W27762  14.554  10.898   1.528  0.2946 -0.0108 -0.0445
 7483W        W27763  18.886   4.870   0.528 -0.0245 -0.0893 -0.1668
 7484W        W27764  18.737  18.998  12.765 -0.0118 -0.1638  0.4964
 7485W        W27765  15.569  19.881   3.088  0.0760  0.2114  0.0374
 7486W        W27766  12.012   1.743  13.760 -0.2985  0.1457  0.0197
 7487W        W27767   0.585   4.572   9.630 -0.0049 -0.1076 -0.4639
 7488W        W27768   9.201  18.673  10.981 -0.0248 -0.3011  0.0147
 7489W        W27769   3.241   2.261   2.222  0.1268  0.1424  0.1160
 7490W        W27770  11.054  16.972   8.846 -0.0386  0.0219  0.1560
 7491W        W27771   5.726   6.994   3.568 -0.3069 -0.1024  0.2702
 7492W        W27772  16.650   8.639   3.259 -0.0803  0.0119  0.0914
 7493W        W27773  14.260   8.015   3.143  0.0260 -0.1029 -0.2368
 7494W        W27774   4.126  13.696   3.451 -0.0595 -0.1571  0.1044
 7495W        W27775   0.833   2.434   0.711 -0.2475  0.0625  0.0442
 7496W        W27776  12.983   7.877  13.583  0.3962  0.1174 -0.1889
 7497W        W27777  12.788  10.381   2.138 -0.0559  0.1090 -0.1898
 7498W        W27778  10.605  16.866  12.399  0.0686 -0.0517  0.1100
 7499W        W27779  19.857   5.806   0.980  0.0646 -0.3709 -0.0357
 7500W        W27780  16.170  10.649   2.978 -0.0150 -0.2376  0.0295
 7501W        W27781  14.674   7.194  13.228  0.3378 -0.1428  0.1850
 7502W        W27782  14.259   8.981  12.822 -0.0291 -0.3055  0.1711
 7503W        W27783  11.051   3.994   9.258  0.1292 -0.2602 -0.0868
 7504W        W27784   0.143  17.703   2.400  0.1507  0.1916  0.2567
 7505W        W27785   2.278  15.413  10.484 -0.2408 -0.1765 -0.0132
 7506W        W27786   1.761   7.676   3.007  0.2592  0.0096  0.1001
 7507W        W27787   4.756   8.420   3.606  0.0206 -0.0765  0.1207
 7508W        W27788  12.130  17.661  11.238 -0.2874 -0.0313  0.0135
 7509W        W27789  18.548  14.365   3.572 -0.0737  0.0119  0.1447
 7510W        W27790   1.161   9.880   1.866 -0.0959  0.1740 -0.0128
 7511W        W27791  14.630  18.361  11.502 -0.2447  0.1359 -0.2696
 7512W        W27792   8.588   2.752   0.712  0.1451  0.0710 -0.1680
 7513W        W27793  11.394  15.409   0.800 -0.1729 -0.3346 -0.0634
 7514W        W27794   0.753   4.095  13.049 -0.1266  0.3313 -0.1114
 7515W        W27795   8.107  15.804   3.060  0.2362 -0.0871 -0.1614
 7516W        W27796  11.436  15.007   1.765 -0.1504  0.2845 -0.0245
 7517W        W27797   0.221   7.617  10.012 -0.3584 -0.3120  0.2939
 7518W        W27798  16.670   7.193   0.872  0.2101  0.0928 -0.2103
 7519W        W27799  13.114   3.256  13.020  0.0419 -0.3986 -0.0348
 7520W        W27800   0.211  11.161  12.110 -0.0188 -0.0274 -0.0827
 7521W        W27801   1.520   4.081   1.945  0.1649 -0.0437  0.0959
 7522W        W27802   5.935  15.163   9.854  0.1338  0.3447 -0.2107
 7523W        W27803  14.368  10.394   1.958 -0.0930 -0.1688  0.1054
 7524W        W27804  14.809  16.774   9.379 -0.2189  0.0505  0.2255
 7525W        W27805  12.932  13.561   1.156  0.0562 -0.1495 -0.0149
 7526W        W27806  15.485   8.672   9.449  0.1786 -0.1889  0.0851
 7527W        W27807  18.562   3.014   3.498  0.2637 -0.2720  0.0472
 7528W        W27808   9.835   1.327   3.029 -0.1433  0.1700  0.0444
 7529W        W27809   0.151  15.224   0.163 -0.0181 -0.3713  0.0206
 7530W        W27810   5.573   2.406  13.546  0.0034 -0.2906 -0.1351
 7531W        W27811   6.775   8.274  10.643  0.0496 -0.0608  0.1958
 7532W        W27812  16.141  17.542  10.233  0.3911 -0.1719 -0.2958
 7533W        W27813   5.995   1.113  13.229 -0.0193  0.0799 -0.1175
 7534W        W27814   0.597  15.775  12.967 -0.3096 -0.1477  0.2337
 7535W        W27815  16.210  10.997   2.000 -0.1903  0.2366 -0.0707
 7536W        W27816   8.893  14.501   0.532  0.1655 -0.0135  0.1097
 7537W        W27817   5.385   7.813  12.849 -0.0210 -0.0005  0.1962
 7538W        W27818  16.443   5.537  10.952 -0.3367  0.3349 -0.0075
 7539W        W27819   0.685  12.775  11.290 -0.1174 -0.0921  0.1492
 7540W        W27820  11.970  10.347  12.884 -0.0621  0.0810  0.0024
 7541W        W27821   8.480  16.196   0.870  0.0224 -0.1439 -0.1374
 7542W        W27822  13.939   4.554   2.126 -0.0850 -0.0314  0.1263
 7543W        W27823   4.207   0.239   2.935 -0.0793 -0.3572  0.1405
 7544W        W27824   3.913   8.134  11.056 -0.3167  0.1459  0.1610
 7545W        W27825  16.366  12.197  11.322 -0.0829  0.2162 -0.2154
 7546W        W27826  13.368   2.197  11.426  0.0759  0.1939 -0.0540
 7547W        W27827   9.101  16.828   1.308  0.0507 -0.4315 -0.4281
 7548W        W27828  15.776  12.617  10.576 -0.0055 -0.0081 -0.1660
 7549W        W27829   3.260  17.095   1.199  0.3895  0.2458  0.1855
 7550W        W27830  15.223  12.383  11.614 -0.0041  0.0235  0.5786
 7551W        W27831  18.591   3.488   2.849 -0.2228  0.0676  0.2346
 7552W        W27832   0.976  10.348   0.194  0.3887  0.0162  0.0305
 7553W        W27833  12.377  11.760  11.099  0.0991 -0.2044 -0.0462
 7554W        W27834   9.697   2.600  11.509 -0.0952 -0.0743  0.2789
 7555W        W27835   7.026  14.780   1.647 -0.0796 -0.0531 -0.1058
 7556W        W27836  14.088  11.442  12.804 -0.0249  0.0119 -0.0202
 7557W        W27837  17.286   9.702   8.930  0.1256 -0.0320  0.0980
 7558W        W27838  11.377   7.765  12.296 -0.1868 -0.0826 -0.3898
 7559W        W27839  19.631   4.085  12.804 -0.1367 -0.1608 -0.0809
 7560W        W27840  14.561  13.802   4.520 -0.2320 -0.2595  0.1385
 7561W        W27841  10.914   6.956  13.084 -0.2075  0.0310  0.1924
 7562W        W27842   6.510   0.650  12.525 -0.2062  0.1471 -0.2078
 7563W        W27843  13.632   6.029   2.591  0.3275 -0.1115  0.2880
 7564W        W27844   0.401  11.287   2.910 -0.0510  0.2733 -0.0089
 7565W        W27845  11.337  13.177   3.247  0.0215 -0.0469  0.1819
 7566W        W27846   6.550   7.881  11.125  0.1513  0.0551  0.5588
 7567W        W27847  16.040  13.157   3.067  0.1388  0.0301 -0.2870
 7568W        W27848  18.809  14.629   2.231  0.1787  0.2026 -0.0301
 7569W        W27849   4.478   8.197  10.672  0.1318 -0.1952  0.0277
 7570W        W27850   5.534  12.892   1.299  0.2011  0.1941  0.0921
 7571W        W27851  15.100   6.857   3.209 -0.1941  0.5594 -0.1972
 7572W        W27852   0.773  13.926  12.367  0.1383  0.0895  0.0029
 7573W        W27853  18.684  18.272  10.796 -0.3136  0.1245  0.1996
 7574W        W27854   8.652   3.506   2.096  0.0564  0.1804 -0.1659
 7575W        W27855   8.813   0.027  12.169 -0.1328 -0.0406  0.0180
 7576W        W27856   7.892   0.389  12.669 -0.1258  0.1573 -0.3004
 7577W        W27857  15.874  11.546   0.122 -0.2609 -0.1763  0.2284
 7578W        W27858   3.213   9.229  11.974 -0.0686 -0.0270 -0.0955
 7579W        W27859  18.761   9.184   9.644  0.1329  0.0575 -0.1052
 7580W        W27860   2.788   3.497   3.340 -0.0036 -0.1742  0.0561
 7581W        W27861  19.059  19.107   4.031 -0.0473 -0.0627  0.0348
 7582W        W27862   3.583   5.714  12.501 -0.0038 -0.0030 -0.1122
 7583W        W27863  15.245  10.186   9.196  0.1831 -0.1367  0.2479
 7584W        W27864   4.773   4.976  10.677 -0.2515 -0.0039  0.1506
 7585W        W27865   6.915   5.491  10.984 -0.1231 -0.1117  0.2321
 7586W        W27866  17.775   2.111  11.696 -0.0898 -0.0804  0.1034
 7587W        W27867  17.466  12.463  12.263 -0.1152 -0.1108 -0.2591
 7588W        W27868  17.038   3.216   0.660  0.0498  0.5617  0.1112
 7589W        W27869   5.782   3.743   4.130  0.0115 -0.0707 -0.1221
 7590W        W27870   2.418  18.644  11.413  0.0543  0.1408 -0.0117
 7591W        W27871   6.862  12.550   2.581 -0.1645  0.0027  0.2838
 7592W        W27872  16.928   6.448   1.544 -0.2567  0.4233  0.3930
 7593W        W27873   2.615  15.229   3.817  0.1062 -0.3127 -0.0380
 7594W        W27874   8.453  17.204  10.795  0.2946  0.2016  0.0500
 7595W        W27875   3.369  18.686  13.238  0.1171 -0.0582 -0.0927
 7596W        W27876   5.460   8.849   3.267 -0.2503 -0.0868 -0.4126
 7597W        W27877  13.426  12.063  11.753  0.2869  0.0368  0.4157
 7598W        W27878   1.626   4.324   2.874  0.2052  0.0499 -0.3043
 7599W        W27879  14.468   6.445   9.042 -0.2033  0.1847  0.2873
 7600W        W27880  18.271  10.081   1.667  0.0274  0.1066 -0.1263
 7601W        W27881  14.262   2.078   4.871  0.0545  0.1722 -0.1122
 7602W        W27882  13.213  19.260   1.186  0.1456 -0.3145  0.0555
 7603W        W27883  12.856   7.524  13.269  0.0080 -0.0555  0.0492
 7604W        W27884   4.761  18.764  11.394 -0.1855 -0.3815 -0.1222
 7605W        W27885  11.933   6.933  13.649  0.0593  0.2405  0.0503
 7606W        W27886   7.536  16.848   2.539 -0.0084 -0.2070 -0.2001
 7607W        W27887   5.450  19.940  11.425  0.3394  0.0221  0.2387
 7608W        W27888  14.603   9.454  12.143 -0.0003  0.0379  0.3323
 7609W        W27889   8.827   7.943  13.333  0.5355 -0.2812  0.1185
 7610W        W27890   9.285   4.333   0.725  0.2280  0.2196  0.0565
 7611W        W27891  12.229  17.116  12.869  0.0270  0.2624  0.2538
 7612W        W27892   8.624   7.387   3.967 -0.0982 -0.1647  0.0084
 7613W        W27893   5.744  19.806   3.120 -0.1560 -0.1192  0.3205
 7614W        W27894   7.474  10.843  11.073 -0.0823  0.3038  0.1627
 7615W        W27895  10.481   5.109   3.409  0.1029 -0.2562  0.3692
 7616W        W27896  13.089   7.107   1.810  0.4108  0.1638 -0.0582
 7617W        W27897   4.481  14.663  10.624  0.1495 -0.1215  0.2643
 7618W        W27898  17.937  12.850  13.045  0.1419 -0.0720 -0.0447
 7619W        W27899  13.111  12.514  12.582 -0.2337  0.1469  0.1453
 7620W        W27900   8.095  13.939   1.734  0.2004  0.0015 -0.0885
 7621W        W27901   9.677  19.194  12.995 -0.1602 -0.3302  0.0948
 7622W        W27902  19.296   2.425   3.136  0.0159  0.1251  0.1214
 7623W        W27903  13.155   7.951  13.133  0.0435 -0.0605  0.0104
 7624W        W27904   3.786  16.304   3.642  0.1439 -0.1959  0.1950
 7625W        W27905  14.777  17.363  13.542 -0.2420 -0.0225 -0.0088
 7626W        W27906   9.484   1.996  13.587 -0.1010 -0.0848 -0.2670
 7627W        W27907   1.291   8.926  12.499  0.1387  0.0989 -0.0877
 7628W        W27908  14.021   3.786  12.064  0.1307  0.2073  0.4254
 7629W        W27909   4.730   8.372   3.065  0.1652  0.0287  0.1668
 7630W        W27910  18.588  13.665  12.898 -0.3220  0.2300 -0.2883
 7631W        W27911   3.013   9.562   1.494 -0.0973  0.1727  0.0163
 7632W        W27912  11.103   8.709   1.093  0.2739 -0.0953  0.2212
 7633W        W27913   0.394  15.466   9.538  0.0522  0.3248 -0.2141
 7634W        W27914   7.395  10.494   3.833 -0.0772  0.0488  0.0775
 7635W        W27915   9.745  16.883   1.236  0.2865 -0.2316 -0.0783
 7636W        W27916   7.372   4.658   1.184 -0.0058  0.1805 -0.2410
 7637W        W27917   4.219   2.662   2.187  0.3524  0.3125  0.0951
 7638W        W27918  14.382   9.003   3.504 -0.1065 -0.1380 -0.0608
 7639W        W27919  12.553   0.493   1.414  0.3796  0.1677 -0.1531
 7640W        W27920  12.242  15.312   0.533 -0.0815  0.1268  0.0403
 7641W        W27921   1.130  16.814   2.172  0.0302  0.0136  0.0919
 7642W        W27922  16.940   7.718  12.020 -0.2861 -0.3393  0.5527
 7643W        W27923  14.566   1.854  10.039  0.1321 -0.1517  0.0047
 7644W        W27924  18.633   3.264   0.585 -0.2482 -0.0264  0.1405
 7645W        W27925   4.832  11.554   2.295  0.0958  0.0545  0.0604
 7646W        W27926  18.259   3.036  12.470 -0.1495 -0.2765  0.0667
 7647W        W27927   0.312   4.566   2.970 -0.1530  0.0269 -0.1701
 7648W        W27928  14.805   0.068   9.821  0.4262  0.0185  0.1607
 7649W        W27929  11.996  18.815   1.350 -0.1147  0.2358  0.3208
 7650W        W27930  17.865  12.824   0.197 -0.1842  0.2531 -0.0023
 7651W        W27931  16.561   2.452  10.965 -0.1612  0.1043 -0.4132
 7652W        W27932   0.723  12.818   1.059 -0.0956  0.1126 -0.0655
 7653W        W27933   0.143  11.412  13.106 -0.1315  0.0359 -0.3444
 7654W        W27934  13.519  12.789  12.353 -0.1528  0.1015  0.0296
 7655W        W27935  10.204   8.864  10.426 -0.0722 -0.0167  0.1771
 7656W        W27936  12.135  15.872   0.759 -0.1379 -0.1959  0.0064
 7657W        W27937   9.634  16.770  11.024  0.2695  0.2009  0.1661
 7658W        W27938  14.424   2.075   1.092 -0.2970 -0.1516 -0.2286
 7659W        W27939  14.607  14.280  12.054  0.0023 -0.2978 -0.0177
 7660W        W27940  13.177  18.279  12.291 -0.0467 -0.1383  0.2660
 7661W        W27941   5.853  10.241   1.893  0.2111 -0.1253 -0.1280
 7662W        W27942   8.944  10.356  12.326  0.1016 -0.1103  0.0720
 7663W        W27943  10.692   8.563   1.391  0.1484  0.0985  0.2599
 7664W        W27944  14.991  12.250  10.513 -0.0372 -0.1134  0.0982
 7665W        W27945   2.341   6.944   2.520 -0.1099  0.3471  0.2603
 7666W        W27946   9.719  13.195  12.984 -0.4045 -0.0101 -0.0500
 7667W        W27947  15.078   0.705  10.421  0.2302  0.2275  0.1066
 7668W        W27948  18.755   2.222   1.786 -0.2642 -0.1239 -0.0307
 7669W        W27949  15.601  18.291   8.618  0.1847  0.0105  0.0088
 7670W        W27950   1.619   2.508   3.670 -0.2085  0.2768  0.0649
 7671W        W27951  17.079  16.293   3.501 -0.2215  0.0505 -0.0229
 7672W        W27952  16.010  11.625  12.060  0.3995 -0.0410  0.3726
 7673W        W27953   0.207  16.911   0.019  0.2415  0.1270 -0.1923
 7674W        W27954   5.930  15.810  13.111 -0.1336  0.1045  0.0687
 7675W        W27955   4.557   1.264  13.823 -0.0883 -0.2196 -0.2951
 7676W        W27956   4.761   4.340   2.367  0.0211  0.3523  0.1039
 7677W        W27957  11.144   6.136  10.723 -0.2743 -0.2143  0.1094
 7678W        W27958  12.934  13.322  10.841  0.0603 -0.1350  0.1877
 7679W        W27959  11.191   2.782   0.496  0.1678  0.0169  0.2148
 7680W        W27960  11.345  14.278   3.783  0.0042  0.0070  0.0228
 7681W        W27961   6.350   4.139   2.365  0.0794  0.1079  0.0129
 7682W        W27962  16.266   0.937   3.149  0.2391 -0.4387  0.0246
 7683W        W27963  11.919   6.971  12.595 -0.0133  0.3017 -0.3295
 7684W        W27964   4.807   5.032   0.390 -0.1841  0.1550  0.0761
 7685W        W27965   8.245  14.017  13.747  0.0657  0.0345 -0.0128
 7686W        W27966  16.978   4.628  11.954  0.0955 -0.0075  0.1364
 7687W        W27967   5.794  10.193  12.258 -0.1337  0.2958 -0.3041
 7688W        W27968  14.514  12.518  11.832  0.1804 -0.1858 -0.0933
 7689W        W27969   6.947  12.424   3.275 -0.0815  0.0290 -0.0278
 7690W        W27970  18.409   1.799   2.521  0.1793  0.0598 -0.2643
 7691W        W27971  10.440   8.199   0.967 -0.0775  0.0753  0.1085
 7692W        W27972  15.000   9.203  11.818  0.1776  0.1288 -0.2129
 7693W        W27973   0.157  19.090   2.474 -0.2279 -0.0209 -0.1213
 7694W        W27974   9.573  19.527   0.962 -0.0864  0.1181 -0.0744
 7695W        W27975   8.752  11.746   2.866 -0.0306 -0.0320 -0.4307
 7696W        W27976  15.858  19.386  10.075  0.0346  0.3736 -0.0701
 7697W        W27977   7.563   7.160   3.388  0.0299  0.0270 -0.1460
 7698W        W27978   2.417  10.439  10.784  0.2305  0.2525  0.1196
 7699W        W27979  14.810   4.350  12.275  0.0400 -0.1003 -0.2316
 7700W        W27980  14.060   0.894  12.417  0.0756 -0.0141 -0.4343
 7701W        W27981   7.096  10.447   0.064 -0.2553 -0.0099  0.2346
 7702W        W27982   8.812  18.073  12.662  0.1457  0.1730 -0.4926
 7703W        W27983  11.875  12.578   2.213  0.0326  0.1025 -0.0802
 7704W        W27984  12.152   1.714  10.164  0.2727  0.1130  0.0137
 7705W        W27985  15.738   7.589  10.547  0.0310  0.3915  0.0017
 7706W        W27986   8.870  17.036  10.607 -0.1108  0.0438 -0.1429
 7707W        W27987  11.532   4.554  11.611  0.1571 -0.2027  0.0816
 7708W        W27988  16.903   3.771   2.567  0.2094 -0.0856 -0.0417
 7709W        W27989  18.314   2.078   1.630 -0.0327  0.1255  0.1140
 7710W        W27990  14.874   2.827   3.791 -0.0893 -0.0727 -0.1062
 7711W        W27991  16.817  13.580   0.180  0.0445 -0.0735  0.0792
 7712W        W27992  16.476  10.150   0.658  0.0553 -0.1972 -0.2177
 7713W        W27993  19.612  11.948   2.890 -0.0272 -0.0830  0.2332
 7714W        W27994   8.697  17.200   4.685 -0.2271 -0.0902  0.1629
 7715W        W27995   7.294   8.329   0.539 -0.6122 -0.0582  0.0652
 7716W        W27996  16.572  15.193   2.143  0.1459 -0.0774 -0.0777
 7717W        W27997  15.655   5.607   1.120  0.1299 -0.0443 -0.0408
 7718W        W27998  17.676  14.285  10.812  0.2540 -0.2291  0.0783
 7719W        W27999  18.613  19.897   1.285 -0.3568 -0.1494 -0.1006
 7720W        W28000  17.714  16.178  11.001 -0.0106 -0.0248 -0.0661
 7721W        W28001  15.799   9.927  13.113  0.0042 -0.0070  0.2322
 7722W        W28002  12.462  12.936   0.399  0.0251 -0.2381 -0.0641
 7723W        W28003   8.761  13.330   9.347 -0.0807 -0.2325  0.0241
 7724W        W28004   4.921  19.365   2.541  0.0481  0.2596 -0.2405
 7725W        W28005  16.618  10.687   1.531 -0.0211  0.2198 -0.3144
 7726W        W28006  14.691   5.511   9.922 -0.1031  0.0162 -0.2403
 7727W        W28007  16.162   0.567  10.742  0.1876 -0.2728  0.0406
 7728W        W28008   2.705   2.215  12.955 -0.0059  0.0100 -0.2063
 7729W        W28009  12.995  14.411   0.441  0.2205  0.1244 -0.0510
 7730W        W28010   2.545   7.448   1.458  0.2071 -0.0630  0.3808
 7731W        W28011  17.660  12.732  13.547  0.2151 -0.1745  0.2150
 7732W        W28012   2.287  13.296   4.170 -0.2170 -0.2355 -0.2171
 7733W        W28013   0.624   9.667   1.731 -0.0342  0.0517  0.0495
 7734W        W28014   6.109  10.652   2.149  0.2738 -0.1885 -0.3876
 7735W        W28015  11.333   5.798   4.143 -0.1141 -0.0712 -0.3670
 7736W        W28016   2.855   3.214  12.166 -0.2764  0.3972  0.0076
 7737W        W28017  13.848   0.727  11.307  0.2511  0.2278  0.5885
 7738W        W28018  14.249  12.908   2.999 -0.1433 -0.0422  0.1350
 7739W        W28019  11.064  12.277   3.084  0.2568 -0.0539 -0.2403
 7740W        W28020   8.780   1.506   3.836 -0.0984  0.2979 -0.0293
 7741W        W28021  14.961   7.489  13.561 -0.2803  0.1554 -0.0574
 7742W        W28022   5.792  17.274   4.153  0.0421 -0.0924 -0.3398
 7743W        W28023   8.467  13.385   2.957 -0.1542 -0.0298 -0.0325
 7744W        W28024  16.327  11.720   1.216 -0.0673  0.0924 -0.1320
 7745W        W28025  18.685   8.535  13.018  0.0121  0.1063 -0.0435
 7746W        W28026  15.617  18.437  10.591  0.0014 -0.0651 -0.6351
 7747W        W28027   5.865   3.985   4.677  0.1319 -0.0033  0.1504
 7748W        W28028   6.585  16.130  12.978 -0.2675 -0.2337 -0.0652
 7749W        W28029   9.296  19.285   1.365  0.2161 -0.0416 -0.2368
 7750W        W28030  19.671  17.343   9.401  0.0947 -0.2517  0.1292
 7751W        W28031   3.631  15.625   0.715 -0.2323 -0.5296  0.2422
 7752W        W28032   0.430  17.582   1.766 -0.4278 -0.1231 -0.1404
 7753W        W28033  12.492   3.424   4.422  0.1597  0.0697  0.0768
 7754W        W28034  15.352  19.438  10.968  0.0613 -0.2545 -0.0271
 7755W        W28035   5.530  14.946   9.305 -0.1547 -0.0632  0.2060
 7756W        W28036  12.875  12.418  13.089  0.0291 -0.1395  0.1943
 7757W        W28037   5.251  10.778   3.097  0.0167  0.3853  0.2220
 7758W        W28038   8.121  16.193   1.745 -0.1115 -0.2386  0.2235
 7759W        W28039   8.630  17.613  11.565 -0.0603  0.2164 -0.1267
 7760W        W28040   9.347   7.686  11.266 -0.1215 -0.0460 -0.2543
 7761W        W28041  15.872  17.881  12.223 -0.0007 -0.0162 -0.1763
 7762W        W28042   5.829   9.251  10.963 -0.0564  0.0681  0.1265
 7763W        W28043  15.336   9.902  10.831 -0.4789 -0.1081 -0.0790
 7764W        W28044   4.671  10.344  10.972 -0.0528  0.0235 -0.0699
 7765W        W28045   5.526   2.787   9.873 -0.0659  0.0545  0.2058
 7766W        W28046   5.638   3.890   3.097 -0.0836  0.1558  0.1121
 7767W        W28047  13.790  15.105  10.694 -0.0893 -0.0022  0.0774
 7768W        W28048  18.390  11.574   2.153  0.1085 -0.4632 -0.0900
 7769W        W28049   4.838  13.479   2.352  0.2860 -0.1917  0.3451
 7770W        W28050   4.946  16.032  13.016  0.4699 -0.0939 -0.0961
 7771W        W28051   8.738  16.065   3.296 -0.0251  0.2068 -0.0278
 7772W        W28052   2.933   6.978   3.618  0.0358  0.2796  0.1469
 7773W        W28053   1.343   1.650   1.389 -0.0618 -0.3020  0.0605
 7774W        W28054   2.455  13.972  12.440 -0.3004  0.0055 -0.1730
 7775W        W28055   7.389  10.819  12.504 -0.0489 -0.1103  0.0128
 7776W        W28056   3.788  14.879  13.792  0.1209 -0.1533 -0.0792
 7777W        W28057   6.289   1.819   1.962  0.1323 -0.0405 -0.1104
 7778W        W28058   7.589   6.033  11.993  0.0476  0.0183 -0.0101
 7779W        W28059  15.688  13.398  13.048 -0.3355  0.0234 -0.1829
 7780W        W28060   8.084   3.926   1.367  0.1945  0.0091 -0.0585
 7781W        W28061  17.193  13.596   1.618 -0.0619  0.2816 -0.1122
 7782W        W28062   3.471   6.592   0.700  0.1596  0.0492  0.4516
 7783W        W28063  19.688  11.795  13.524 -0.0216  0.1949 -0.1483
 7784W        W28064  18.479   1.958  12.412  0.2418 -0.3388  0.0207
 7785W        W28065  13.229   5.801   1.538 -0.2413  0.4705 -0.1307
 7786W        W28066   4.983  18.190  11.372  0.2331  0.0985 -0.0334
 7787W        W28067   5.778   7.818   0.818 -0.1287  0.5144 -0.1103
 7788W        W28068   3.657  19.917  11.305 -0.2945  0.2057 -0.0931
 7789W        W28069   9.910   7.339  11.166  0.0325  0.3448 -0.3337
 7790W        W28070  19.526   4.965   1.293  0.0287  0.0880  0.0871
 7791W        W28071   1.353  11.392   0.199 -0.1401 -0.0721  0.0017
 7792W        W28072  12.194   7.697   1.707  0.0633  0.0597 -0.0293
 7793W        W28073  15.722   9.433   2.679 -0.2465 -0.4340 -0.0641
 7794W        W28074  11.055   6.747   1.646  0.1042 -0.1424  0.0615
 7795W        W28075  17.890   8.819   2.966 -0.0727 -0.2073  0.0104
 7796W        W28076  18.785   9.313  12.330  0.3910  0.0415 -0.2333
 7797W        W28077  16.514   4.813  11.985  0.3923  0.2358 -0.1219
 7798W        W28078   0.152  10.659   0.727  0.0209 -0.1368 -0.2780
 7799W        W28079  18.401   9.529   9.792 -0.1071 -0.4827 -0.1333
 7800W        W28080  19.526   6.316   9.239  0.0648  0.1343  0.1113
 7801W        W28081  13.273  15.194  11.125  0.1579 -0.0754  0.3298
 7802W        W28082   6.039   1.615   1.573 -0.3462  0.0113 -0.0968
 7803W        W28083  17.603  18.996  11.070 -0.1858 -0.1564  0.0622
 7804W        W28084   4.220   8.104   0.497 -0.3176  0.0227  0.0647
 7805W        W28085  18.571   8.382  11.206 -0.0112 -0.1868  0.2390
 7806W        W28086   3.355  18.305   1.726 -0.1616  0.1401 -0.2848
 7807W        W28087   7.276   3.626  11.043 -0.1155 -0.0511 -0.4187
 7808W        W28088   7.496   9.638  12.913  0.1279 -0.0495 -0.2344
 7809W        W28089   0.912  12.345   1.625 -0.1776 -0.0631 -0.1145
 7810W        W28090  16.323  14.095   0.849  0.2928 -0.0459 -0.1908
 7811W        W28091  13.088  18.709   3.754  0.0251  0.0962  0.3050
 7812W        W28092  15.270  10.284   2.911 -0.1482 -0.0595  0.3433
 7813W        W28093   6.939   4.794   0.525 -0.1310  0.1481  0.2103
 7814W        W28094   6.338  12.634   4.300  0.0870 -0.1454 -0.1703
 7815W        W28095  19.029   4.363   2.843 -0.0689 -0.0404  0.1886
 7816W        W28096  12.005   1.004   2.233  0.1367  0.3272  0.2089
 7817W        W28097   8.250   8.069  11.568  0.2687 -0.1856 -0.2259
 7818W        W28098   5.495  19.714   3.530 -0.0406  0.0580 -0.1918
 7819W        W28099   6.404   4.755   2.502  0.0916  0.4939 -0.0577
 7820W        W28100   3.703  17.925   3.474 -0.3636  0.1738 -0.1512
 7821W        W28101   3.053   9.986   1.216 -0.0347  0.3253 -0.1585
 7822W        W28102   3.794   1.574   1.862 -0.0636 -0.0536 -0.0737
 7823W        W28103   1.087   0.487   0.050 -0.3230  0.0949 -0.0009
 7824W        W28104   3.526   6.205   0.376  0.1076  0.1009  0.1508
 7825W        W28105  12.873  10.834  10.421 -0.0389  0.0316 -0.0462
 7826W        W28106   5.966  17.718   0.236 -0.0115  0.0289 -0.0777
 7827W        W28107   8.359   2.129   0.301  0.1540 -0.0488  0.1031
 7828W        W28108   2.426   1.037   2.731 -0.0645  0.0071  0.2858
 7829W        W28109   7.313   4.665   2.284 -0.4205  0.0768 -0.0552
 7830W        W28110   9.494   1.478   1.702  0.0993 -0.5082 -0.1366
 7831W        W28111   6.079  16.778  13.598  0.3433  0.0360 -0.4215
 7832W        W28112   1.331   0.168   9.508 -0.2123  0.3809  0.3118
 7833W        W28113   3.100   1.479  10.004  0.3721 -0.0424 -0.1682
 7834W        W28114   7.345  10.591   2.015 -0.4034 -0.1466 -0.1741
 7835W        W28115   6.043   7.901  11.619 -0.0576 -0.1635  0.2684
 7836W        W28116  17.265   4.970   0.826 -0.0557 -0.0067  0.1787
 7837W        W28117   3.651  10.370   2.043  0.3695 -0.2333 -0.0435
 7838W        W28118  11.457   6.557   2.396 -0.3059 -0.1241 -0.1732
 7839W        W28119   1.989   2.527  12.640  0.2300 -0.1786  0.1591
 7840W        W28120   6.400  18.333  13.488 -0.0235  0.1015  0.1246
 7841W        W28121   7.319   1.324   0.146  0.2408 -0.0083 -0.0633
 7842W        W28122   7.196  13.838   3.946  0.1158  0.0747 -0.1189
 7843W        W28123  19.845  15.465   0.890  0.2837 -0.2910 -0.1318
 7844W        W28124  13.664  19.524   1.435  0.0083  0.0197  0.2691
 7845W        W28125  15.771  17.599   3.531 -0.1325 -0.2823  0.2601
 7846W        W28126   2.693   9.729  10.257  0.2003  0.0077  0.0669
 7847W        W28127   4.439   6.291   0.899  0.0945  0.0313  0.2805
 7848W        W28128   0.128  18.119   1.438  0.1359 -0.0031  0.1301
 7849W        W28129   7.233   6.165   0.201  0.0236 -0.1024 -0.2095
 7850W        W28130  18.470   2.729   0.507  0.1762 -0.1885 -0.1631
 7851W        W28131   8.163  19.861   0.870 -0.3605 -0.1209  0.3012
 7852W        W28132   8.634   3.102   3.672 -0.3662 -0.0386 -0.0080
 7853W        W28133  16.069   6.848  12.633  0.1856  0.2596 -0.1115
 7854W        W28134   9.890   1.694  13.729 -0.1964 -0.1487  0.2123
 7855W        W28135   0.722  19.268   1.878  0.0660 -0.0492  0.3470
 7856W        W28136   8.448  16.393  10.191 -0.0153  0.2244  0.2004
 7857W        W28137   8.817  12.923  11.697 -0.0826  0.0869 -0.1040
 7858W        W28138   0.196   4.767  10.510  0.3011 -0.4041 -0.0053
 7859W        W28139   0.911  11.211   9.811  0.0720  0.1143 -0.1008
 7860W        W28140   2.668   3.210  10.965  0.0442 -0.0477  0.0419
 7861W        W28141  18.644   4.835   0.971 -0.0052 -0.0135  0.4145
 7862W        W28142   8.061  12.666   0.373  0.0287 -0.0169 -0.1093
 7863W        W28143  11.242  17.000   3.382 -0.1160  0.0097 -0.2841
 7864W        W28144   1.604  19.277  13.217  0.0204 -0.0260  0.1240
 7865W        W28145  16.357  17.476  12.513 -0.0318  0.0930 -0.1126
 7866W        W28146   1.410  12.592  11.836 -0.1982  0.0614  0.0739
 7867W        W28147   5.673  12.251   1.030 -0.3397 -0.2426 -0.0675
 7868W        W28148  14.789   6.935  12.837  0.2656  0.3093 -0.2751
 7869W        W28149  12.485   4.721   8.974 -0.1612 -0.0168  0.1594
 7870W        W28150   0.041   0.740  10.648  0.3067 -0.0971 -0.1807
 7871W        W28151  17.712  18.214   1.025  0.0955  0.0331 -0.2445
 7872W        W28152  16.751  10.529  10.753  0.0525  0.1499  0.1727
 7873W        W28153  18.574   7.256  12.244 -0.2206  0.0716  0.1764
 7874W        W28154  15.820   6.864  12.218 -0.1119 -0.0463  0.0762
 7875W        W28155   5.161   2.067   3.790 -0.0691  0.1693  0.2950
 7876W        W28156   0.964   4.788   9.927 -0.1401  0.3048  0.0167
 7877W        W28157   0.541  17.399   9.004  0.1138 -0.0189 -0.1050
 7878W        W28158  17.535   3.417  13.063  0.0861 -0.1676  0.2356
 7879W        W28159   0.930  13.174   1.288  0.1409  0.0342 -0.1613
 7880W        W28160  17.848  12.393   0.341 -0.2254 -0.0366  0.2842
 7881W        W28161  11.100  12.352  13.380 -0.0294 -0.1109  0.0697
 7882W        W28162   4.224   1.248   2.044  0.0560 -0.0765  0.0178
 7883W        W28163  14.062   9.428  11.974  0.0497 -0.4706  0.2745
 7884W        W28164  17.020  16.084   9.958 -0.4382 -0.0904  0.2272
 7885W        W28165  19.899  13.908  11.811 -0.0619  0.0022 -0.0265
 7886W        W28166   5.787  10.270  12.825 -0.0697 -0.0684 -0.2761
 7887W        W28167   8.373   3.322  10.445  0.1228 -0.2065  0.2785
 7888W        W28168   1.079  14.934   2.196  0.2303  0.0545 -0.0948
 7889W        W28169   5.779  11.517   3.825 -0.0602 -0.2249  0.0608
 7890W        W28170   5.424  16.710   0.775  0.0934  0.0197  0.0416
 7891W        W28171  14.619   6.005   1.680 -0.0132 -0.1269 -0.0992
 7892W        W28172   9.826   4.111   2.914 -0.3099 -0.0996 -0.0506
 7893W        W28173   9.554  10.559  12.115 -0.1039 -0.1593 -0.0050
 7894W        W28174  10.693  19.465   2.370 -0.0941  0.0968 -0.0786
 7895W        W28175   8.971  12.116   4.299  0.0158  0.3013  0.0438
 7896W        W28176   7.561  16.972  10.398  0.1663  0.1631  0.2559
 7897W        W28177   8.131   6.613  13.580 -0.1670  0.1039  0.4988
 7898W        W28178   6.211  11.973   0.373 -0.0624 -0.0958  0.3891
 7899W        W28179  17.554   3.938  10.064 -0.2105 -0.1135 -0.2003
 7900W        W28180  12.138  12.728   3.793  0.0132  0.0386 -0.0568
 7901W        W28181   2.038  17.264  11.614 -0.0888 -0.0643  0.2387
 7902W        W28182  12.651   1.040   1.469 -0.3361  0.0797  0.2285
 7903W        W28183  18.630  14.143  10.278 -0.1155 -0.0366 -0.0435
 7904W        W28184  10.922  17.047  12.859 -0.0592  0.0397  0.0828
 7905W        W28185   1.148  12.530   3.907  0.4277 -0.0513  0.4840
 7906W        W28186   6.756  10.712  13.217  0.1352 -0.0317  0.2115
 7907W        W28187  18.764  10.120  12.602 -0.0507  0.0827  0.0635
 7908W        W28188  15.940  16.366  11.013 -0.3432 -0.1737 -0.1428
 7909W        W28189   0.221   3.062  11.077  0.3010  0.2411  0.2040
 7910W        W28190  13.966  15.805  13.400  0.2375 -0.2256 -0.1279
 7911W        W28191   9.121  19.739   4.231  0.1543  0.0991  0.5033
 7912W        W28192  18.186   8.097  12.008 -0.1996 -0.0702  0.0063
 7913W        W28193   1.069   1.105   3.218  0.2253  0.1129  0.0008
 7914W        W28194  18.776   6.338  10.646 -0.1054 -0.0889  0.2943
 7915W        W28195  16.569  10.118  12.948 -0.1652  0.0866  0.0325
 7916W        W28196   2.892  19.878  12.853  0.2260  0.1746  0.1903
 7917W        W28197   7.642   6.979   2.916 -0.0468 -0.0282 -0.1166
 7918W        W28198  17.347   2.860   2.838 -0.1133 -0.1209 -0.1830
 7919W        W28199   8.137  15.378   1.772  0.1402  0.0200 -0.1685
 7920W        W28200  15.515   6.259  13.802 -0.0888  0.1550 -0.2052
 7921W        W28201  18.788  15.636  13.162  0.1383  0.0146 -0.4039
 7922W        W28202  19.437   9.540  13.616 -0.0847 -0.0365  0.0730
 7923W        W28203   0.401   6.092  13.636 -0.2766  0.2958  0.0666
 7924W        W28204  11.165  19.953  10.028 -0.0649  0.0726  0.2376
 7925W        W28205  14.487  10.416  12.032 -0.1460  0.2151 -0.0911
 7926W        W28206  10.554  17.729   1.922 -0.1240 -0.7641 -0.0862
 7927W        W28207  16.512   3.019  10.028  0.0777 -0.2930  0.0569
 7928W        W28208   9.460  15.361  10.739  0.0474 -0.1464 -0.2666
 7929W        W28209  12.034   2.175   9.968 -0.0277 -0.0591 -0.4359
 7930W        W28210   7.782  14.482   3.560 -0.0820 -0.4047 -0.3133
 7931W        W28211   1.570  19.798   2.660 -0.2322  0.4673 -0.1023
 7932W        W28212  17.009   4.708  10.709  0.0959  0.1447 -0.2716
 7933W        W28213  12.551   7.130   0.834  0.0674 -0.0341 -0.2799
 7934W        W28214   2.888   9.643   0.234  0.0889 -0.0346 -0.4602
 7935W        W28215   9.176   7.721  13.034 -0.2915  0.1610 -0.1851
 7936W        W28216   4.379  16.430   2.269  0.0585  0.1977  0.0249
 7937W        W28217  18.024   5.555  11.638 -0.0709  0.0742  0.0369
 7938W        W28218   7.078  14.264   2.447  0.0881  0.0535  0.1151
 7939W        W28219   3.399  14.122  11.400  0.3616 -0.0701 -0.4014
 7940W        W28220   4.855  16.963   2.616  0.2164  0.0269 -0.4217
 7941W        W28221   7.216  19.318  12.384 -0.0694  0.0390 -0.1219
 7942W        W28222   4.519  13.939  11.926  0.1510  0.3126  0.3354
 7943W        W28223  10.195  16.945  11.584 -0.0459  0.1357 -0.1445
 7944W        W28224   3.249  15.496   0.315  0.0828 -0.1253  0.3089
 7945W        W28225  17.397  12.976  11.039  0.0429  0.3594 -0.1586
 7946W        W28226  16.074   4.338   2.366 -0.2617  0.0100  0.3813
 7947W        W28227  10.211   4.827   1.516  0.1469  0.2345  0.3347
 7948W        W28228   2.093  17.926   3.066 -0.2418 -0.1165 -0.2868
 7949W        W28229   8.291  13.341   3.419 -0.0102  0.0733  0.0055
 7950W        W28230  10.171   0.318  13.646  0.0025 -0.0871 -0.0455
 7951W        W28231   5.243  19.814   4.946 -0.0753  0.3125 -0.2503
 7952W        W28232  11.510  16.442   9.918 -0.2149  0.1139 -0.3549
 7953W        W28233   7.561   3.888  12.276  0.2323 -0.0479 -0.1176
 7954W        W28234  13.404  16.436  10.979  0.1707  0.0032  0.2146
 7955W        W28235   3.835   1.754   3.454  0.2650 -0.0930  0.1371
 7956W        W28236  18.537  11.908   0.600  0.0091  0.1149 -0.0566
 7957W        W28237  11.977  12.747   1.620 -0.2010 -0.2493 -0.0147
 7958W        W28238  11.326   0.613   3.696 -0.0365  0.1181  0.1949
 7959W        W28239   8.805   4.789   1.688  0.1462  0.2094  0.0811
 7960W        W28240  11.075   9.287   3.842 -0.2069 -0.2576 -0.0445
 7961W        W28241  10.213   8.354   3.996 -0.0697 -0.2436 -0.0981
 7962W        W28242  16.071   0.325  12.929  0.0458 -0.3224 -0.2079
 7963W        W28243  11.912  10.752  11.691  0.0094  0.1074 -0.4858
 7964W        W28244   1.443  17.042   2.901  0.0858 -0.0640  0.3263
 7965W        W28245  10.276   6.254   3.652 -0.2386  0.2462 -0.1882
 7966W        W28246   2.045   2.888  11.591 -0.5333  0.1513  0.1240
 7967W        W28247   4.965  18.003  13.471  0.1006 -0.4671  0.2754
 7968W        W28248  13.245   7.057   0.244 -0.4271  0.0539 -0.0332
 7969W        W28249  16.290   6.302   3.300  0.2349  0.0633 -0.0068
 7970W        W28250  16.446  13.065  12.689  0.1818  0.0242  0.2009
 7971W        W28251  15.633   5.318  11.424 -0.3054 -0.0621 -0.0717
 7972W        W28252   8.909   4.161   1.948  0.0812 -0.1601 -0.2025
 7973W        W28253   6.579  10.647   2.496  0.4343  0.1990 -0.0015
 7974W        W28254  17.914  12.171   2.290  0.0329 -0.0258  0.0945
 7975W        W28255  15.875  18.437   2.841 -0.0431 -0.0503  0.1448
 7976W        W28256   5.094  14.320  12.753  0.3187 -0.1360  0.0437
 7977W        W28257  17.527   3.212   2.013 -0.1872  0.0940  0.1694
 7978W        W28258  10.845   4.281  10.069  0.0827 -0.1335  0.0370
 7979W        W28259  10.053  19.643   3.405 -0.1170  0.1780  0.3723
 7980W        W28260  13.106  13.830  10.897  0.2151  0.2690 -0.1388
 7981W        W28261  16.395  19.411   1.536  0.3277  0.2521  0.0223
 7982W        W28262  13.862  18.108   2.970 -0.0385  0.0797 -0.2952
 7983W        W28263  12.980   6.678  12.279 -0.2361  0.1666  0.2543
 7984W        W28264   4.836   0.443  12.793  0.1020  0.0422 -0.3537
 7985W        W28265   5.299  13.704   3.382 -0.0882 -0.2049  0.2493
 7986W        W28266  12.667   7.411  10.645 -0.0925 -0.1464  0.1697
 7987W        W28267   9.274   1.683   0.046  0.5814 -0.0059  0.0906
 7988W        W28268   8.168   5.756  12.215 -0.1391 -0.0659  0.2469
 7989W        W28269   3.770  15.570  10.600  0.1024 -0.0017 -0.0899
 7990W        W28270  18.739   8.056  12.903 -0.0365 -0.0932  0.3992
 7991W        W28271  18.886   7.155  10.198 -0.0096 -0.2310 -0.2236
 7992W        W28272  12.281   3.878  13.736 -0.1616  0.0953 -0.0058
 7993W        W28273   5.691  19.718  12.191 -0.1640  0.0618  0.0536
 7994W        W28274   5.070  15.664  11.973 -0.2348 -0.1598 -0.1863
 7995W        W28275   9.605  13.708   0.102  0.1256 -0.0313 -0.0752
 7996W        W28276  19.750   7.666  10.983 -0.0042 -0.0754 -0.0274
 7997W        W28277   8.381  16.680  11.517 -0.1475 -0.2725  0.3993
 7998W        W28278  12.178   7.090  11.140 -0.2592 -0.1216  0.2268
 7999W        W28279   8.371  11.382   4.135 -0.1396  0.0784 -0.0522
 8000W        W28280   0.756  16.037  10.541  0.2000  0.1246 -0.0747
 8001W        W28281  15.372  15.273   1.591 -0.1661  0.0459 -0.2075
 8002W        W28282   8.440   0.150  11.884  0.1390  0.1081 -0.0401
 8003W        W28283   5.038   3.400  11.088 -0.0229 -0.1934 -0.2823
 8004W        W28284  13.522  15.969  10.585  0.1251  0.0420 -0.1751
 8005W        W28285  14.430   4.535   1.952 -0.1591 -0.3347 -0.2435
 8006W        W28286  18.299  18.379   1.053 -0.2301 -0.3278  0.2489
 8007W        W28287   2.282   3.888  11.327 -0.1144 -0.0690 -0.3115
 8008W        W28288  15.455  19.396   1.652 -0.0056  0.0703 -0.1758
 8009W        W28289  17.183  15.205  11.668  0.1263 -0.0876 -0.0096
 8010W        W28290   0.320   9.432  13.464  0.0107 -0.1377 -0.2406
 8011W        W28291   8.729   5.287   1.751  0.2618  0.2375 -0.3674
 8012W        W28292   7.149   3.095  12.038  0.3099  0.0114 -0.1078
 8013W        W28293  13.169  16.003   1.295 -0.0181 -0.0232 -0.2614
 8014W        W28294  17.977  15.602   2.103 -0.0294 -0.1698 -0.1670
 8015W        W28295  19.407   9.162   2.870 -0.0338  0.1079 -0.2843
 8016W        W28296   4.854  11.045   2.997 -0.1246 -0.0774 -0.0993
 8017W        W28297   7.811   3.386  12.137 -0.1268  0.2326  0.0947
 8018W        W28298  10.181  14.220   2.440 -0.0298 -0.4013  0.2433
 8019W        W28299  17.493  11.196  11.134 -0.0534 -0.0671 -0.2587
 8020W        W28300   6.218  15.571   1.992  0.3749 -0.0512 -0.0016
 8021W        W28301  18.722   1.865  11.204 -0.0374  0.0140  0.0529
 8022W        W28302   4.790  12.655  12.440  0.2591 -0.4509 -0.2705
 8023W        W28303   9.536   3.266  12.179 -0.0831 -0.4765  0.0597
 8024W        W28304   1.582   3.171  10.976  0.1144 -0.1649  0.0931
 8025W        W28305  10.368   3.345   2.434  0.2708 -0.3094 -0.0705
 8026W        W28306  19.160  11.818   3.061 -0.2902 -0.0567 -0.0313
 8027W        W28307   1.652  12.241   0.248 -0.2830 -0.0300  0.2456
 8028W        W28308  12.471  10.059  10.621  0.0294 -0.3076  0.1651
 8029W        W28309  13.675   3.730   3.161 -0.0015  0.0852  0.5096
 8030W        W28310   9.537  13.378   1.431 -0.1183 -0.2157 -0.1358
 8031W        W28311  17.713   1.390  12.227 -0.0905 -0.2168 -0.2316
 8032W        W28312   8.098  11.893  11.575 -0.3148 -0.1845 -0.0105
 8033W        W28313  15.315   7.779  13.827  0.2455  0.3664  0.0160
 8034W        W28314  17.290  10.272   1.070  0.1927 -0.1038 -0.4260
 8035W        W28315  14.417   8.861  13.266  0.0658 -0.0486  0.0142
 8036W        W28316   5.026   3.136   1.199  0.1299 -0.0738 -0.3325
 8037W        W28317   6.980   4.374  10.246 -0.1396 -0.0117  0.0834
 8038W        W28318   1.816  19.775   3.098 -0.1552 -0.1603 -0.1255
 8039W        W28319   4.908   8.102   1.845  0.1529 -0.2095 -0.1445
 8040W        W28320   7.673  14.636  12.408  0.1715  0.0167 -0.0625
 8041W        W28321  18.567  11.372   0.353  0.0777 -0.1507 -0.0089
 8042W        W28322   0.908  13.829  10.409 -0.2340  0.1514  0.0505
 8043W        W28323   8.639   3.575  11.656 -0.1325 -0.5113  0.0552
 8044W        W28324  13.532  18.808  11.099 -0.1405 -0.2269 -0.0560
 8045W        W28325   9.055  10.491   2.230  0.1128  0.0727 -0.2485
 8046W        W28326   0.114  16.260   1.348 -0.0231  0.0622  0.0479
 8047W        W28327  12.509  13.116   2.568 -0.0175  0.1256  0.1057
 8048W        W28328  12.146   2.173  10.493 -0.3421 -0.2234  0.0024
 8049W        W28329  10.447  12.894  11.671  0.0024 -0.3989 -0.0627
 8050W        W28330  10.781  14.847   0.968 -0.2159  0.0722  0.0080
 8051W        W28331   5.725   8.932   1.763  0.1674 -0.2174 -0.0025
 8052W        W28332  17.481   2.880   0.336  0.0506  0.0918  0.0797
 8053W        W28333  19.294   2.289  12.568  0.3136 -0.3805  0.2269
 8054W        W28334   7.538  14.011   3.154 -0.2545 -0.0551  0.0428
 8055W        W28335  16.665  15.527   1.734 -0.1156 -0.0365  0.1107
 8056W        W28336  13.367   7.032   3.439 -0.0806 -0.2348 -0.1875
 8057W        W28337  19.776  12.625   2.192  0.0078  0.2090  0.1141
 8058W        W28338  12.634  11.396  11.322 -0.0849 -0.0122  0.2011
 8059W        W28339  14.109   5.721   2.074  0.2975 -0.1473  0.0154
 8060W        W28340  19.671   6.752   1.325  0.2690  0.0422 -0.0088
 8061W        W28341   7.376  12.002  11.318  0.4415 -0.1826 -0.1511
 8062W        W28342  13.665   1.686  10.145  0.2329 -0.2455 -0.1235
 8063W        W28343  15.557   3.499  11.361 -0.0949 -0.1636 -0.2889
 8064W        W28344   6.840   3.857   3.573 -0.0361 -0.1108 -0.2548
 8065W        W28345   3.017   1.578  10.853 -0.0365 -0.0086 -0.0468
 8066W        W28346   2.872  11.041   4.346  0.1331  0.1072  0.0925
 8067W        W28347  13.336   8.224  11.471  0.0937 -0.1980  0.0216
 8068W        W28348  15.022  14.322  10.120 -0.1068  0.0957 -0.0016
 8069W        W28349   2.963  13.560  11.897 -0.0401  0.2063 -0.0426
 8070W        W28350   0.196   5.821  12.467 -0.0608  0.2402  0.0537
 8071W        W28351  18.125  18.721   1.999 -0.2170 -0.0564  0.1408
 8072W        W28352  18.387   4.768  10.594  0.1751 -0.0247  0.0113
 8073W        W28353  10.941   1.151  11.717 -0.1423 -0.3158 -0.1583
 8074W        W28354   8.308   1.921   3.163 -0.1589 -0.0359 -0.1203
 8075W        W28355   0.112   5.475   0.110  0.0199  0.0411 -0.4447
 8076W        W28356  12.440  19.574   1.758 -0.1864  0.1313  0.1025
 8077W        W28357  12.265   2.094   0.256 -0.1521 -0.1825  0.2558
 8078W        W28358  10.973  11.122   3.530  0.0839  0.1738 -0.0099
 8079W        W28359   5.772  12.595  12.279 -0.3857  0.0997  0.0597
 8080W        W28360   7.338   9.396   1.498 -0.4453  0.3047 -0.0879
 8081W        W28361  17.581  16.948  12.752 -0.0410  0.1779 -0.1776
 8082W        W28362   3.633   0.494   0.873 -0.0829  0.0636  0.0112
 8083W        W28363  15.949  15.076   3.253  0.0145  0.0293 -0.3516
 8084W        W28364   5.031  11.900  11.691 -0.1109 -0.1986  0.3275
 8085W        W28365   6.903  19.474  11.468 -0.0324 -0.0825  0.0457
 8086W        W28366   6.048   5.622   3.096 -0.0511  0.1945  0.0516
 8087W        W28367  19.531   8.846  12.121  0.2185  0.1568 -0.1759
 8088W        W28368   9.088   3.868   0.433  0.0531 -0.0206  0.1101
 8089W        W28369  13.576   4.414   1.714  0.3915 -0.3082  0.4103
 8090W        W28370  12.880  10.224   1.644  0.2044 -0.1691  0.2401
 8091W        W28371   8.923  14.427   4.513 -0.2937  0.3397 -0.0674
 8092W        W28372   0.370  10.564  10.717 -0.1745  0.2076 -0.2619
 8093W        W28373   8.652   3.291  12.028 -0.0411 -0.3107  0.2158
 8094W        W28374  19.363   6.254   0.827 -0.1935  0.2920 -0.2232
 8095W        W28375   3.099   1.250  11.680  0.0871 -0.2235 -0.1130
 8096W        W28376  15.315  14.899  13.327 -0.0195 -0.0266 -0.2373
 8097W        W28377   6.339   3.738   0.259 -0.0351 -0.0813 -0.1016
 8098W        W28378  19.706   3.774   3.535 -0.0278  0.1693  0.0033
 8099W        W28379   2.980   4.749  10.237  0.1748  0.2255  0.4083
 8100W        W28380   4.080   5.536  11.092 -0.0957 -0.0100 -0.0465
 8101W        W28381  14.851  17.470  12.217  0.1727 -0.1359 -0.0707
 8102W        W28382  15.934  11.470  12.530  0.3663 -0.1119  0.1795
 8103W        W28383   3.935   8.236   3.381  0.2247 -0.2849 -0.1441
 8104W        W28384   1.232  10.706   0.667  0.1862  0.4544 -0.0095
 8105W        W28385  12.636  15.529  13.832 -0.2078 -0.2482  0.0392
 8106W        W28386   8.299  13.735   2.149 -0.0323 -0.2405 -0.2148
 8107W        W28387   3.114   5.421  12.144 -0.1189 -0.1698 -0.3038
 8108W        W28388   0.980   9.299   1.766  0.0218 -0.0362  0.0056
 8109W        W28389  14.827  13.258  10.141  0.1453  0.3362  0.3353
 8110W        W28390  19.585   5.398   4.261  0.0748  0.1382  0.4566
 8111W        W28391   5.365   9.297  13.627  0.2288  0.1426 -0.1325
 8112W        W28392  17.300   4.297  12.826 -0.0116  0.0352 -0.0978
 8113W        W28393   4.483  11.207   2.528  0.1518 -0.1992  0.2333
 8114W        W28394   7.064   9.948   0.352 -0.0597  0.1221  0.1236
 8115W        W28395   5.609  16.946  12.732  0.1331 -0.0947  0.2691
 8116W        W28396   5.976  18.606   3.399  0.0572 -0.1040 -0.3560
 8117W        W28397  13.607  17.237   2.884  0.1174  0.1140 -0.3161
 8118W        W28398   0.442  17.130  12.460 -0.1385 -0.0067  0.0862
 8119W        W28399   9.729   4.742  12.138 -0.0523  0.3157 -0.0231
 8120W        W28400   9.965   9.683  13.688  0.3160  0.2731  0.1246
 8121W        W28401  13.617   9.597  10.499 -0.1461 -0.0341  0.1443
 8122W        W28402   9.406   6.994  10.741  0.2843 -0.1455 -0.0332
 8123W        W28403   3.039   0.537  11.105  0.2465 -0.0540  0.0174
 8124W        W28404  10.350   4.750  13.104 -0.2566 -0.1539  0.0688
 8125W        W28405  16.892  14.799   3.271 -0.4328  0.1979  0.2788
 8126W        W28406   9.704   1.792  12.074  0.2137  0.0463 -0.2045
 8127W        W28407  19.566  19.626   0.854  0.0911 -0.0191 -0.3438
 8128W        W28408  16.112   5.136  10.722  0.1862  0.4768 -0.1888
 8129W        W28409  15.675   6.105   1.009  0.0545 -0.2561  0.0753
 8130W        W28410  15.278  17.072  10.076  0.1945  0.2353  0.1458
 8131W        W28411  15.799  11.015  11.181 -0.1027  0.0488 -0.0609
 8132W        W28412   7.180  11.695   3.560 -0.3048 -0.2179 -0.2566
 8133W        W28413  13.143  19.831  12.100  0.0177  0.2631  0.2385
 8134W        W28414   7.359   2.062   4.060  0.0620 -0.0473 -0.2974
 8135W        W28415   6.828   1.987  11.319 -0.0408  0.1529 -0.0380
 8136W        W28416  12.523   7.848  12.713 -0.1346 -0.1449 -0.0926
 8137W        W28417  15.692  13.488   0.045  0.1340 -0.0753 -0.2894
 8138W        W28418   1.117  17.508   0.929  0.0729 -0.1132  0.0826
 8139W        W28419   3.320   9.574   3.659  0.2977  0.1155 -0.0594
 8140W        W28420   0.682   8.104  12.173 -0.2583 -0.0356 -0.0366
 8141W        W28421   8.867  15.448   0.863  0.1950 -0.0029  0.0833
 8142W        W28422  12.605   8.974   0.365 -0.2064 -0.0150 -0.2467
 8143W        W28423   2.904  15.342  11.238 -0.1084  0.0900 -0.0532
 8144W        W28424  13.937  14.765  12.335  0.1354  0.0456 -0.4242
 8145W        W28425  19.320  11.001   1.488  0.2332  0.3902  0.3244
 8146W        W28426   4.537  17.529   9.901 -0.1837 -0.0164 -0.2182
 8147W        W28427  19.538   5.939  10.343 -0.0049 -0.2548 -0.0462
 8148W        W28428   7.753  11.036  13.110 -0.0507  0.1097  0.1307
 8149W        W28429  12.893   8.137  11.159 -0.2902 -0.2588 -0.0964
 8150W        W28430   5.320  17.588  12.107 -0.0793 -0.1499  0.1314
 8151W        W28431   2.109   6.326   2.582 -0.0594 -0.2333  0.1023
 8152W        W28432   5.575  10.148  11.279 -0.0402  0.2699  0.0639
 8153W        W28433  12.221   2.648   2.736 -0.2966  0.1964  0.1520
 8154W        W28434   3.043  17.370  11.501 -0.0124 -0.3011  0.4910
 8155W        W28435   0.671  12.804   2.592  0.1112  0.2957  0.3068
 8156W        W28436  14.221  11.544  13.258 -0.2949  0.1233  0.1007
 8157W        W28437  16.590  18.960   8.854 -0.1548  0.0847 -0.2045
 8158W        W28438  17.416  19.667   9.446 -0.0286  0.0610 -0.2654
 8159W        W28439  18.260  17.533   3.697 -0.3359  0.2469 -0.0393
 8160W        W28440  15.333  19.217   2.418 -0.3020 -0.0696 -0.0316
 8161W        W28441   8.804  15.141   2.936  0.1410 -0.2957  0.0309
 8162W        W28442   4.421  14.958  12.463  0.1767 -0.1459  0.2114
 8163W        W28443   5.911   7.578  12.695 -0.1034  0.0938  0.1709
 8164W        W28444  17.702   4.629  11.745  0.0329 -0.2275 -0.4508
 8165W        W28445   2.177  10.494   0.752 -0.2884 -0.0825  0.1577
 8166W        W28446   8.729   5.646  11.045 -0.3504  0.4414  0.0547
 8167W        W28447   5.095  14.697  11.817  0.1709  0.0971 -0.2392
 8168W        W28448  19.500  14.727  11.865  0.0329 -0.1225  0.3840
 8169W        W28449  16.666   0.477  12.032 -0.1056 -0.2054 -0.1761
 8170W        W28450  14.592  15.199  10.047 -0.1382  0.0122 -0.1237
 8171W        W28451   7.127  15.225  12.915  0.2108  0.0344 -0.0363
 8172W        W28452  13.123   6.201   2.258 -0.0200  0.0543 -0.1830
 8173W        W28453   7.194   6.895  11.618 -0.1211  0.0579 -0.0607
 8174W        W28454  15.145   5.061  11.353 -0.0068  0.0285 -0.0807
 8175W        W28455   2.007   9.569   2.942  0.0114 -0.1273 -0.0182
 8176W        W28456   3.001  10.637   1.731 -0.0594 -0.0124 -0.2739
 8177W        W28457   9.772   9.259   1.780  0.0702 -0.0205 -0.0798
 8178W        W28458   3.624  10.588   0.845 -0.3326 -0.2470 -0.2902
 8179W        W28459  16.561  13.719  10.221 -0.1131 -0.1352  0.0226
 8180W        W28460  13.277  11.081  13.308  0.2388 -0.3695  0.0806
 8181W        W28461   7.184   8.391  10.350  0.1414  0.1650 -0.2795
 8182W        W28462  19.820   2.049   9.617  0.0823  0.0160 -0.1457
 8183W        W28463  12.538  19.770  10.810 -0.1152 -0.3576 -0.0140
 8184W        W28464   8.080  10.442   2.226 -0.2027 -0.1394 -0.0779
 8185W        W28465   1.374   8.575  10.733 -0.1180  0.0368  0.1103
 8186W        W28466  14.434  11.673  13.723 -0.4070 -0.0693 -0.2453
 8187W        W28467  17.794  11.218   1.974 -0.2351  0.2126  0.2108
 8188W        W28468  14.832  15.794  13.047  0.1517 -0.3204  0.0142
 8189W        W28469   2.742  12.007  10.175  0.3355 -0.0239 -0.1740
 8190W        W28470  18.146   0.703  11.288  0.1387 -0.0093 -0.1083
 8191W        W28471  14.196   0.981   3.924 -0.3969  0.0520 -0.4484
 8192W        W28472  16.784  17.511   2.484 -0.0000 -0.0037 -0.0500
 8193W        W28473  10.042  17.203   4.274 -0.2136 -0.5774  0.0339
 8194W        W28474   7.914  19.700  10.170  0.2038 -0.0693 -0.0432
 8195W        W28475   4.435  12.653   1.234  0.1152 -0.1598  0.1775
 8196W        W28476  12.758  16.541  12.237  0.3090  0.0899 -0.1457
 8197W        W28477   2.600   5.422  13.190  0.2407 -0.2148 -0.1910
 8198W        W28478  10.317  13.115   1.627 -0.2694 -0.1178  0.4845
 8199W        W28479  16.835  16.900  12.334 -0.0559  0.2196  0.1268
 8200W        W28480   9.150   3.940  13.799 -0.2354 -0.1430 -0.4200
 8201W        W28481  17.957  13.278   0.042  0.2868 -0.3059  0.2358
 8202W        W28482   8.871   9.861   0.478 -0.1652 -0.1024 -0.1704
 8203W        W28483   8.908  10.266   1.781  0.0724  0.0196  0.0423
 8204W        W28484   5.946  17.576  13.449 -0.0198  0.0394  0.2109
 8205W        W28485   6.664   6.390  13.514 -0.1728  0.3877 -0.0937
 8206W        W28486  19.180  17.530   0.421 -0.0776  0.1315 -0.0141
 8207W        W28487  11.600  14.316  13.618  0.3156 -0.1168  0.0638
 8208W        W28488  16.794   6.931  11.443  0.0850  0.0096  0.3364
 8209W        W28489   9.216   9.758  13.142  0.2556  0.2482 -0.0656
 8210W        W28490   5.842   1.827  11.285  0.0485  0.0674 -0.1302
 8211W        W28491  17.021  17.982   0.829 -0.0722 -0.0422 -0.0334
 8212W        W28492  17.897   5.440   2.926 -0.0943 -0.1045 -0.0564
 8213W        W28493   4.898   2.732   2.547 -0.1595  0.0349  0.2220
 8214W        W28494   3.304   9.650   0.546 -0.2607 -0.3184  0.1149
 8215W        W28495  15.411  18.023  10.451  0.2493  0.1371  0.1991
 8216W        W28496  19.190   0.196   2.895 -0.2603  0.1233 -0.0889
 8217W        W28497   2.052   4.097  10.007 -0.1321  0.1920  0.1922
 8218W        W28498   7.525   6.417   0.687 -0.0911 -0.2337 -0.1154
 8219W        W28499   1.349  17.561   2.939 -0.1189  0.0005 -0.2325
 8220W        W28500   7.498  15.393  11.910 -0.0451 -0.0687 -0.2410
 8221W        W28501  17.188   6.905   1.637  0.1488 -0.1028  0.1500
 8222W        W28502   7.228  18.333  10.533 -0.4003 -0.2310 -0.1234
 8223W        W28503  13.391  17.211  13.762 -0.1129 -0.0573  0.3729
 8224W        W28504  16.984  12.334  12.311 -0.0873  0.0154 -0.1519
 8225W        W28505  15.995   6.360   1.712  0.2124 -0.0605  0.0561
 8226W        W28506  12.353  18.746   2.212  0.1570  0.0072  0.0304
 8227W        W28507  19.796   8.929   2.593  0.0105 -0.0969  0.0960
 8228W        W28508  14.784   5.052   1.934 -0.0419  0.0840 -0.0499
 8229W        W28509  18.789  19.864   2.551 -0.0766 -0.1948  0.1832
 8230W        W28510   3.150  11.280  10.635  0.0796 -0.2433  0.0026
 8231W        W28511   6.862   2.539  11.215  0.2547  0.1672 -0.1761
 8232W        W28512   1.934   4.650  12.987  0.2206 -0.3464 -0.1165
 8233W        W28513  19.163   6.546   3.938  0.2933  0.0432 -0.2171
 8234W        W28514  10.195  11.359   9.118 -0.0237  0.0987 -0.2044
 8235W        W28515  12.673  18.302  12.102  0.0161 -0.1031  0.0736
 8236W        W28516   7.658   5.132   0.286  0.1828 -0.0199  0.1244
 8237W        W28517  19.189  15.697   3.790  0.0998  0.2151 -0.1014
 8238W        W28518  13.237  17.355  11.551  0.1839 -0.3097  0.2891
 8239W        W28519  11.899  10.620  10.156  0.2651  0.1621  0.1671
 8240W        W28520   5.743  18.060   4.260  0.0897 -0.0483  0.2384
 8241W        W28521  11.946  12.839  10.779  0.3515 -0.0101 -0.0546
 8242W        W28522  19.489  19.131  12.384  0.2822  0.0789  0.0171
 8243W        W28523   4.726  18.289   0.440  0.0511 -0.1251 -0.3967
 8244W        W28524  16.100  15.912  11.985 -0.2067 -0.0676 -0.0230
 8245W        W28525  11.014   1.627  10.792  0.1347 -0.0404 -0.0644
 8246W        W28526   6.891  18.884   1.085  0.0907 -0.1312  0.0286
 8247W        W28527  19.581   3.365  10.240  0.1393  0.0752  0.1344
 8248W        W28528  12.634   8.965  12.562 -0.0588 -0.1516  0.3014
 8249W        W28529   2.142   5.945   0.452 -0.1366 -0.1752 -0.0082
 8250W        W28530  12.401  18.057   3.032 -0.1061 -0.0015 -0.1637
 8251W        W28531   3.166   8.095  11.501  0.2018  0.0306 -0.1212
 8252W        W28532   5.428   5.603  11.007  0.1660 -0.0478 -0.2469
 8253W        W28533  14.880   9.527   2.989 -0.0862  0.0338 -0.0413
 8254W        W28534  10.490  19.793  12.915  0.2868  0.0784 -0.2184
 8255W        W28535  17.110  16.520  10.163 -0.0036  0.1152 -0.2217
 8256W        W28536   1.455   5.558  12.659  0.0240  0.1253 -0.2353
 8257W        W28537  19.131  12.963   8.530 -0.1451  0.3514 -0.0531
 8258W        W28538   7.090   0.796  10.556 -0.2816 -0.1789  0.0488
 8259W        W28539  14.389   6.368   3.973  0.1376 -0.0885 -0.0582
 8260W        W28540   4.887  15.094   2.321 -0.0278 -0.0837  0.0049
 8261W        W28541   1.758   9.025  12.274  0.0097  0.2673  0.1457
 8262W        W28542  19.318  14.761  12.328  0.3230 -0.2148 -0.1769
 8263W        W28543  15.618  13.974  13.215 -0.1648 -0.3181  0.1707
 8264W        W28544   7.403   5.352  10.861 -0.1933  0.2729  0.0435
 8265W        W28545   4.697   5.602  12.481 -0.1164 -0.1068  0.2352
 8266W        W28546  12.818  17.591  13.026  0.0438  0.0542  0.1801
 8267W        W28547  17.444   5.333   9.935  0.1164  0.2238 -0.1931
 8268W        W28548   4.452  11.226  13.662 -0.1140 -0.1265 -0.1799
 8269W        W28549  12.041   9.680  10.622 -0.2387  0.0225 -0.1782
 8270W        W28550  14.482   3.932   0.015 -0.1516  0.1336  0.1511
 8271W        W28551   7.711   5.759  10.791 -0.0948 -0.1149 -0.0922
 8272W        W28552  14.252   3.660   8.777 -0.0022 -0.2433 -0.0598
 8273W        W28553  13.129  11.073   3.178 -0.2097  0.0078 -0.3246
 8274W        W28554  18.857   8.906  10.335  0.1147  0.3755  0.4351
 8275W        W28555  12.129  10.140  12.107  0.4017 -0.0652  0.1992
 8276W        W28556   0.777  12.737  13.776  0.1087  0.1650 -0.0893
 8277W        W28557   6.559   8.316  12.338 -0.1428  0.2564  0.2303
 8278W        W28558  14.503  19.247  11.794 -0.0780 -0.1393 -0.2058
 8279W        W28559  17.423  10.110   9.180 -0.0877 -0.2110 -0.0663
 8280W        W28560   2.091  11.046  11.954  0.1327  0.1230 -0.1582
 8281W        W28561   3.852  17.302  12.338  0.1799  0.0219 -0.3142
 8282W        W28562  18.107  15.839  11.309 -0.0691  0.1221  0.5336
 8283W        W28563   7.949   1.207   1.970  0.4915 -0.0464  0.3538
 8284W        W28564  18.396  18.065   2.077  0.0403  0.2357 -0.1334
 8285W        W28565  18.274   2.245  13.457 -0.0131 -0.0287  0.2653
 8286W        W28566  13.492  16.478   0.567 -0.0050  0.0416 -0.0245
 8287W        W28567  19.401   9.697  12.810 -0.0774  0.0719 -0.2669
 8288W        W28568  13.878   4.032   1.545  0.2424  0.3137 -0.1193
 8289W        W28569   7.168  13.135  11.749  0.0318 -0.0445 -0.2228
 8290W        W28570  17.799   0.446   2.646  0.2397 -0.0642 -0.0259
 8291W        W28571   3.085   7.715   2.727 -0.0544  0.0583  0.3297
 8292W        W28572  11.076  14.734  11.056  0.1281  0.2522  0.0934
 8293W        W28573   1.579  13.049  11.608 -0.2025 -0.0721 -0.1094
 8294W        W28574   6.067  14.170   3.550 -0.2912 -0.3381  0.1158
 8295W        W28575  16.653   5.177  13.708  0.2076  0.1766  0.1273
 8296W        W28576   8.601  14.500  12.653  0.2452 -0.2171  0.0574
 8297W        W28577   7.197   8.379  10.912  0.1810 -0.1303  0.2112
 8298W        W28578   1.728   0.242  12.337 -0.0055 -0.1504  0.0785
 8299W        W28579   2.972  13.483   2.356  0.3008  0.0488  0.2815
 8300W        W28580  15.728  11.175   9.070  0.0600  0.0620  0.0402
 8301W        W28581  19.420   9.839   2.554 -0.0899  0.3360  0.2024
 8302W        W28582   6.865  18.899   0.499 -0.1614  0.0200 -0.0931
 8303W        W28583   0.734  14.994   1.328 -0.1555  0.4139 -0.0249
 8304W        W28584  12.311  16.240   0.006  0.0822 -0.2157 -0.2571
 8305W        W28585  10.028  17.038  13.268 -0.3862  0.2110  0.0859
 8306W        W28586  16.213   0.531   1.165  0.1841 -0.1616 -0.2557
 8307W        W28587   6.407  11.355   3.810  0.1626 -0.1015  0.1054
 8308W        W28588   7.168   8.939  12.639 -0.1424 -0.0194  0.2085
 8309W        W28589   4.685  15.290   3.232  0.0568 -0.0017  0.2608
 8310W        W28590   3.828   4.014   1.957  0.0358  0.3527 -0.2324
 8311W        W28591   8.442   3.035   4.089 -0.0217 -0.1144 -0.6058
 8312W        W28592   3.987   4.193   3.364 -0.3310 -0.0893 -0.3295
 8313W        W28593   7.114  11.123  10.699 -0.1516  0.1110  0.0836
 8314W        W28594   2.809   6.691   1.926  0.2167  0.0813 -0.2909
 8315W        W28595  17.409  19.848  11.241  0.0674 -0.2169 -0.2374
 8316W        W28596  11.753   2.796   1.003 -0.1724 -0.0381 -0.0665
 8317W        W28597   1.379  10.337  11.869  0.0627 -0.1325 -0.0456
 8318W        W28598   7.113  14.510  11.186  0.0235 -0.0698  0.3134
 8319W        W28599  15.822   4.710   2.654 -0.0678 -0.0319 -0.1906
 8320W        W28600  10.920  15.619  11.688  0.0859  0.1323  0.2079
 8321W        W28601   4.758   2.488   1.735  0.2188 -0.1730 -0.0228
 8322W        W28602   9.324  16.258   2.435 -0.2502  0.1740 -0.4260
 8323W        W28603  19.541   3.170  12.156 -0.2032  0.1154 -0.2126
 8324W        W28604  14.412  15.636  10.312  0.1461  0.0156  0.1911
 8325W        W28605   5.186   9.009   2.469  0.1133  0.1516 -0.1687
 8326W        W28606  10.531  17.541   0.940 -0.4130  0.0416  0.0416
 8327W        W28607   3.277   6.449   1.921 -0.2137 -0.4751  0.2218
 8328W        W28608  19.900  14.383   2.050 -0.1771 -0.0466 -0.1894
 8329W        W28609   2.153   2.271   1.046  0.0321  0.4145 -0.1097
 8330W        W28610   0.508  19.014  11.337  0.4823 -0.1592 -0.2763
 8331W        W28611  18.452  16.910   2.194  0.0206  0.2620 -0.0779
 8332W        W28612  19.832   2.460   2.465 -0.1407  0.0526  0.1453
 8333W        W28613  17.647   5.445   8.905 -0.1103 -0.1786  0.2725
 8334W        W28614  14.002   9.960  10.530 -0.2244 -0.3680 -0.1450
 8335W        W28615  15.015  11.242  10.603  0.0493 -0.2745  0.3099
 8336W        W28616   3.317  11.833   1.980 -0.2142 -0.0036 -0.0998
 8337W        W28617   5.016   1.148  10.626  0.2852 -0.0779  0.2348
 8338W        W28618  15.819   1.827   9.593  0.1230 -0.0606  0.0980
 8339W        W28619  10.114  15.655   3.745 -0.2098 -0.2058  0.3547
 8340W        W28620  19.633  11.203  12.916 -0.0983 -0.0631 -0.0146
 8341W        W28621  12.890  16.154  11.413  0.1770  0.3969  0.0811
 8342W        W28622   5.856  16.778   2.386 -0.3029  0.0390  0.0175
 8343W        W28623  11.705  14.979   1.311  0.1442  0.0932  0.0119
 8344W        W28624   9.429   9.224  13.799 -0.1076  0.1799  0.0378
 8345W        W28625  18.645  17.582  11.828  0.0503  0.1491  0.1679
 8346W        W28626   9.452  18.739   0.401  0.1839 -0.2328  0.1158
 8347W        W28627   1.742   1.365   0.064  0.1849  0.1095  0.2260
 8348W        W28628  16.949   4.940  12.393  0.0821  0.2378  0.0491
 8349W        W28629   1.561   5.613   2.496  0.0761 -0.0188  0.4367
 8350W        W28630   3.978  14.148   1.959 -0.1035  0.2945  0.0739
 8351W        W28631  15.195  13.479  11.821 -0.0971  0.1241  0.2119
 8352W        W28632  18.361  17.562   4.212  0.3096 -0.0586  0.0244
 8353W        W28633   9.260  14.262   3.507 -0.4590  0.1317  0.1601
 8354W        W28634   8.594  17.282   1.734  0.0010 -0.1152 -0.0153
 8355W        W28635  12.109  19.442  12.783 -0.0866  0.1533 -0.1356
 8356W        W28636  10.065  17.603   3.387  0.4298 -0.0344  0.0603
 8357W        W28637  15.492  17.986  12.760  0.2458  0.0005 -0.1302
 8358W        W28638  11.353   5.225   2.444 -0.1383  0.1458 -0.0608
 8359W        W28639   3.507   7.379  12.067  0.0019  0.3168  0.2522
 8360W        W28640  10.908  18.025  10.693  0.0372  0.2764 -0.2622
 8361W        W28641  14.540  13.041  13.177  0.2580  0.1351 -0.1363
 8362W        W28642  11.232  12.667   2.850 -0.3227  0.0863  0.1895
 8363W        W28643  12.195   1.573  11.592 -0.2029 -0.3459 -0.3481
 8364W        W28644  16.607  18.962   1.331 -0.1092  0.1784 -0.0284
 8365W        W28645   6.694   1.965   9.459 -0.4136 -0.0125  0.2280
 8366W        W28646  15.771   2.385   9.611  0.0754  0.0478  0.0870
 8367W        W28647  10.173   3.606   2.054 -0.1397  0.1707 -0.1710
 8368W        W28648   0.652   0.774   1.662 -0.1131  0.3398 -0.1561
 8369W        W28649   7.253   9.068   9.701  0.0024  0.0332 -0.2896
 8370W        W28650   2.158   3.477   0.900 -0.1803  0.1930  0.3335
 8371W        W28651  14.414  15.518   0.985  0.1332 -0.1210  0.0374
 8372W        W28652  19.604  16.176   1.579  0.0966 -0.0400  0.1152
 8373W        W28653   2.024   7.544  13.686 -0.3472 -0.1703 -0.1931
 8374W        W28654   7.125  12.334   1.268  0.2659 -0.1655 -0.1348
 8375W        W28655  10.183  16.650   1.510  0.0021 -0.3265  0.0838
 8376W        W28656   6.457  19.878   0.970  0.2535 -0.0656  0.1449
 8377W        W28657  13.659   2.499  10.048 -0.3932 -0.3921 -0.1942
 8378W        W28658  10.329  11.767  12.736 -0.0389  0.1803  0.2138
 8379W        W28659  19.192  19.172  12.845  0.0322  0.0380 -0.1651
 8380W        W28660  15.557   5.320   0.166  0.1904  0.1214  0.0329
 8381W        W28661  11.595  19.956  12.244  0.1181  0.0722 -0.1902
 8382W        W28662   5.046   3.041  11.516 -0.1266 -0.3443  0.0241
 8383W        W28663   4.797  10.954   2.069 -0.2119  0.1868  0.0908
 8384W        W28664  15.972  15.755   1.003  0.2312  0.0742  0.0733
 8385W        W28665  17.340  11.981  13.066 -0.0465  0.1349  0.0764
 8386W        W28666   1.466   3.188   0.150 -0.0170 -0.1441 -0.0688
 8387W        W28667   8.699  15.892   5.120  0.0419  0.2129 -0.1278
 8388W        W28668   6.768  13.433   3.371 -0.2948  0.0009 -0.2981
 8389W        W28669   3.222  15.560  12.992  0.1569  0.0121 -0.1036
 8390W        W28670  19.881   6.933  10.063 -0.1617  0.0589  0.3017
 8391W        W28671   0.596  12.391  12.887 -0.1189  0.0850 -0.1171
 8392W        W28672  18.594   3.461  11.214 -0.0436  0.2728  0.1252
 8393W        W28673  17.315  18.992  10.529  0.0370  0.0347 -0.1219
 8394W        W28674  18.989   9.268  13.778 -0.1414 -0.4509 -0.0435
 8395W        W28675  18.973   7.321   2.784 -0.3758  0.1377  0.0832
 8396W        W28676  13.830   1.924  11.275  0.0188  0.0820 -0.1815
 8397W        W28677  17.787  17.180   2.355 -0.0275 -0.3732  0.1944
 8398W        W28678   6.586   8.131  13.300 -0.2183  0.1234 -0.0062
 8399W        W28679   5.665   0.581   2.897 -0.1241 -0.0329  0.1309
 8400W        W28680  19.219  14.998  10.882  0.0664  0.0280 -0.2424
 8401W        W28681   7.463  11.493   0.304 -0.2291 -0.0991 -0.1501
 8402W        W28682   3.637   2.029   3.070  0.2996 -0.0407 -0.1017
 8403W        W28683   1.978  18.106  12.644 -0.0112  0.1242 -0.0479
 8404W        W28684  13.916  18.570   8.889 -0.3699 -0.5424 -0.0970
 8405W        W28685  14.334  16.403  11.540  0.2320 -0.0904 -0.0347
 8406W        W28686  10.408  17.666  12.034  0.1246  0.3961  0.0611
 8407W        W28687  19.430  12.531  13.389 -0.2487 -0.0284  0.1612
 8408W        W28688  16.831   3.812  12.188  0.0061 -0.0631  0.0751
 8409W        W28689  11.475   9.950   4.539  0.4827 -0.1691 -0.2241
 8410W        W28690   3.231  15.790   3.233  0.1990  0.1062 -0.0063
 8411W        W28691   1.170   0.577   2.986 -0.2260  0.1622 -0.1150
 8412W        W28692  16.455  12.395  12.233 -0.0203  0.0046  0.0503
 8413W        W28693   9.725   8.629   4.032  0.0825 -0.0277  0.1389
 8414W        W28694   9.986  18.967  12.129 -0.3568  0.2244 -0.0885
 8415W        W28695  11.956  14.943   2.053 -0.0598 -0.0748 -0.0331
 8416W        W28696  18.300  19.840   3.194 -0.1629 -0.0897 -0.0871
 8417W        W28697  12.238  19.043  10.812  0.1248 -0.1919  0.0795
 8418W        W28698  11.092  16.372   0.980  0.0058  0.1035 -0.1226
 8419W        W28699   1.742  18.666  11.973  0.2165 -0.2494 -0.3531
 8420W        W28700  18.296  13.754   2.280 -0.0922 -0.4376  0.0041
 8421W        W28701   1.026   2.966   1.453 -0.0130  0.0671  0.1120
 8422W        W28702  17.513   1.421   2.056 -0.2258  0.0375  0.0023
 8423W        W28703   1.226   4.999   3.187  0.3613  0.0333 -0.1558
 8424W        W28704  13.784   2.327   1.508 -0.1177  0.0016 -0.4792
 8425W        W28705   5.965  19.844  12.596  0.0247 -0.1075 -0.0554
 8426W        W28706   2.098  18.267   0.763 -0.2327  0.0151 -0.2045
 8427W        W28707   1.269  11.379  11.683  0.0492 -0.0481  0.2039
 8428W        W28708   0.523   0.217  12.808  0.1107 -0.0123  0.3481
 8429W        W28709  10.354   1.663   3.643 -0.0100 -0.0078  0.1991
 8430W        W28710  16.391  17.972  12.074  0.0840  0.0766  0.0127
 8431W        W28711   9.864  15.710   9.389 -0.1580  0.0369 -0.1934
 8432W        W28712   5.345  15.971   2.307 -0.5107  0.1420  0.2218
 8433W        W28713   0.033  16.296   2.817 -0.2526  0.0542  0.0148
 8434W        W28714   6.646   9.918  10.982  0.0533 -0.2810  0.0397
 8435W        W28715  17.274   5.166   3.747  0.1009 -0.2263 -0.2157
 8436W        W28716   2.202   2.158  10.474 -0.1701  0.0625  0.0720
 8437W        W28717   1.177   3.476   3.332  0.0240 -0.0718  0.0854
 8438W        W28718  12.441   6.771  12.279  0.3189  0.2067  0.1634
 8439W        W28719  14.192  18.135   9.278 -0.1426 -0.0905  0.2972
 8440W        W28720   5.017   5.636   1.777  0.0898  0.3603  0.0754
 8441W        W28721   8.835   3.673  12.787  0.0822 -0.1537  0.1117
 8442W        W28722   9.194   6.383  10.818 -0.0586  0.1197  0.2319
 8443W        W28723   0.628  11.681   9.073  0.1421  0.1570 -0.0763
 8444W        W28724   3.545   8.818   0.976  0.2073 -0.3673  0.1172
 8445W        W28725  12.604   8.674  10.836 -0.0771  0.1641 -0.0383
 8446W        W28726  19.195  15.950   1.957  0.3670 -0.4099 -0.1759
 8447W        W28727  19.632  12.543   1.254 -0.5218  0.0145 -0.0461
 8448W        W28728   3.634  14.579  12.811 -0.0337  0.1481  0.0435
 8449W        W28729   5.971   3.410  11.513 -0.0931  0.2801 -0.0431
 8450W        W28730  17.949  12.445   0.835  0.2293  0.1067  0.1662
 8451W        W28731   6.542   5.520   2.943  0.2512 -0.0713  0.1548
 8452W        W28732   2.860  16.579  12.133 -0.0122 -0.2294 -0.1961
 8453W        W28733  14.099   1.377  12.210  0.0137 -0.0724 -0.0107
 8454W        W28734   0.930   0.324   1.079 -0.0579 -0.0452 -0.2779
 8455W        W28735  16.848   5.965   1.817 -0.2629 -0.0481 -0.1991
 8456W        W28736   8.724  11.095   0.182  0.0809  0.0101  0.0597
 8457W        W28737  12.275   0.206  13.446 -0.3263  0.0824 -0.1237
 8458W        W28738  11.539   4.722   0.437 -0.0523  0.1312  0.1151
 8459W        W28739  19.302  17.231  11.944  0.5033  0.0508  0.3054
 8460W        W28740   0.922   2.282   9.463  0.4620 -0.3807  0.0073
 8461W        W28741   3.118  13.059  12.289  0.1384  0.0391  0.2613
 8462W        W28742   7.993   3.321   4.179  0.1445  0.1694 -0.0277
 8463W        W28743   1.764  12.624   3.196  0.1146  0.1358 -0.0194
 8464W        W28744   2.536   6.049   2.581  0.0579 -0.1385  0.1093
 8465W        W28745   6.397  10.400  11.675 -0.0852  0.1654 -0.2399
 8466W        W28746   2.597   8.786   1.371  0.0460  0.1494 -0.2241
 8467W        W28747  14.902   0.588   1.595  0.1598 -0.3612  0.1564
 8468W        W28748   3.285   9.742   2.443 -0.1337  0.0857 -0.0280
 8469W        W28749   3.283   9.370   0.037 -0.1193 -0.3104  0.1141
 8470W        W28750   5.655   6.139  11.118  0.2590 -0.0329 -0.1757
 8471W        W28751   9.330   9.233  11.579  0.0780  0.2770 -0.0285
 8472W        W28752  11.091  16.152   3.874 -0.0992 -0.0928 -0.1126
 8473W        W28753   9.540  10.454  10.597 -0.0443 -0.3986  0.0997
 8474W        W28754  14.333  16.459  12.613  0.2711 -0.1423 -0.0736
 8475W        W28755  16.598   4.615   1.057  0.2279  0.1357  0.0084
 8476W        W28756  18.104   5.384  12.319  0.1601 -0.0478 -0.0414
 8477W        W28757   8.624   9.117  12.626 -0.1272  0.0319 -0.1144
 8478W        W28758  19.842   8.320  13.782 -0.0829  0.5264  0.2922
 8479W        W28759  12.135  14.429  10.204  0.1168  0.1548 -0.0196
 8480W        W28760   4.381  13.857   1.782  0.2442  0.2393 -0.2501
 8481W        W28761   9.398  16.356  13.036 -0.0408 -0.0120  0.0219
 8482W        W28762   8.419  19.905   2.589 -0.3734 -0.0475  0.2423
 8483W        W28763  16.800  18.647   3.627 -0.5059 -0.1128 -0.0166
 8484W        W28764  11.146  10.974   2.536  0.1796 -0.2573  0.1726
 8485W        W28765  19.133   5.321  10.821  0.1841 -0.0168  0.0174
 8486W        W28766   1.998   0.497   0.117 -0.0154  0.1353 -0.0170
 8487W        W28767  11.751  18.660  11.249  0.0763 -0.4092 -0.0715
 8488W        W28768  14.067  10.220  12.218 -0.0437 -0.1400  0.2888
 8489W        W28769   9.381  16.690   0.956  0.0142  0.1038 -0.0066
 8490W        W28770   9.116   5.185   2.483 -0.0861 -0.1114  0.2248
 8491W        W28771  17.057  17.632  10.980 -0.2285 -0.3006 -0.2206
 8492W        W28772  11.136   3.075   3.248 -0.2959  0.2858  0.1991
 8493W        W28773   3.953   1.445  10.987 -0.5586 -0.2832  0.0506
 8494W        W28774  14.655   6.568  12.357 -0.2858 -0.1444  0.0743
 8495W        W28775   5.368   0.750  13.558  0.3474 -0.1714  0.0255
 8496W        W28776  14.614  17.701  13.185 -0.2181 -0.3528 -0.0523
 8497W        W28777   7.056   9.176  10.820  0.1350  0.2194 -0.1241
 8498W        W28778  14.166  19.111   2.795 -0.0248  0.2699  0.3305
 8499W        W28779  16.085  13.448  12.720  0.0023 -0.1503 -0.3115
 8500W        W28780   4.734   0.285   0.550  0.1326  0.0689 -0.2267
 8501W        W28781  12.525   4.142   4.963 -0.1390 -0.1138 -0.2815
 8502W        W28782  11.646  13.235   3.625  0.2263  0.2010  0.1311
 8503W        W28783  17.335   9.434  13.540  0.1015 -0.1065  0.0712
 8504W        W28784   6.221  10.860  11.633  0.1862  0.2163 -0.2006
 8505W        W28785   3.151  14.604  13.098 -0.0760 -0.1113 -0.0841
 8506W        W28786   3.823   8.681  11.259 -0.0819 -0.2680 -0.0290
 8507W        W28787   3.089   8.205  13.592 -0.0443  0.0688 -0.0735
 8508W        W28788   4.655   2.989  11.070 -0.0559  0.2714 -0.0023
 8509W        W28789   3.959  15.684  12.203  0.1721 -0.1533  0.1869
 8510W        W28790   8.480  19.320   4.572 -0.1452 -0.1177 -0.1491
 8511W        W28791   7.159   9.634  13.839 -0.0425 -0.0616 -0.1095
 8512W        W28792  14.878   5.368  11.842 -0.4460  0.1116 -0.1350
 8513W        W28793   3.641  17.044  12.774 -0.3584 -0.0054  0.1454
 8514W        W28794  11.987   6.250  11.080  0.1579 -0.0803 -0.0923
 8515W        W28795  12.969   5.369  10.014 -0.2945  0.1268  0.0064
 8516W        W28796   0.550  17.769   4.179 -0.3131 -0.1338 -0.0295
 8517W        W28797  17.068  19.185   4.747 -0.1448 -0.0578  0.2282
 8518W        W28798  10.568  13.761  11.419  0.1282  0.1029  0.2330
 8519W        W28799   7.779   5.599   0.008 -0.1815 -0.1820 -0.1539
 8520W        W28800  15.664   2.935  10.580  0.0165 -0.4600  0.1481
 8521W        W28801   2.924   7.448  10.385 -0.0613 -0.0996 -0.1706
 8522W        W28802   9.932   0.595   2.258  0.0784  0.0692 -0.1289
 8523W        W28803   2.027   7.719  13.197  0.1523 -0.2109 -0.0676
 8524W        W28804  13.694  12.842   2.291  0.3128 -0.0677  0.0012
 8525W        W28805  13.548   2.764   1.491 -0.1482  0.1816  0.0145
 8526W        W28806   6.847  11.894  13.391 -0.0817 -0.2777 -0.0456
 8527W        W28807   4.492  15.787   0.909 -0.5307 -0.1799  0.1722
 8528W        W28808   5.565   2.270   3.589  0.0952  0.2223  0.2057
 8529W        W28809  14.329   8.340   2.808  0.0758  0.1708  0.0064
 8530W        W28810  12.915   4.566   9.277  0.0424 -0.2235  0.0064
 8531W        W28811   8.803  11.513   2.350 -0.0231  0.0817  0.4398
 8532W        W28812  18.535   3.676  10.485  0.2889 -0.1581  0.2788
 8533W        W28813   7.139   0.156  12.140 -0.3365 -0.2352  0.0429
 8534W        W28814   1.947  13.522  10.694  0.4637  0.1223 -0.0551
 8535W        W28815   8.011   5.528   0.581  0.0652 -0.4886 -0.1809
 8536W        W28816  10.470   1.695  10.699  0.3575  0.0502 -0.4513
 8537W        W28817   8.278   9.069  10.532 -0.1620 -0.1630  0.2645
 8538W        W28818   9.727  19.144   9.335 -0.2348  0.0777  0.0211
 8539W        W28819  19.802  14.051  13.321  0.1775 -0.1548 -0.1168
 8540W        W28820   4.783   3.739   5.140  0.1196  0.1329 -0.1485
 8541W        W28821   6.044   4.705   0.577  0.1028 -0.1709  0.0300
 8542W        W28822  11.299  13.822  10.271  0.0491  0.1377  0.0263
 8543W        W28823   0.089  19.130  11.113 -0.0835 -0.0403  0.3257
 8544W        W28824   4.280  18.753   1.517  0.1824 -0.1968  0.2250
 8545W        W28825   9.148   5.669  10.237 -0.1899  0.2093 -0.2604
 8546W        W28826   3.023  14.400   4.049 -0.0050  0.0941  0.2705
 8547W        W28827   5.918   7.649  12.192 -0.3565  0.1474  0.0589
 8548W        W28828  14.572  13.760   2.737 -0.1690 -0.1037 -0.0085
 8549W        W28829  12.711  17.462   1.445  0.2360  0.1759  0.0028
 8550W        W28830   8.556   1.260   2.305  0.1285  0.0385 -0.0846
 8551W        W28831  12.678  11.094  12.106  0.2518  0.1234 -0.0274
 8552W        W28832  19.324  17.826  11.467 -0.0899  0.0530 -0.0452
 8553W        W28833  15.375   5.668  12.859  0.1416 -0.2755  0.0068
 8554W        W28834  14.684  11.925  13.249 -0.2645 -0.0260 -0.1652
 8555W        W28835   9.384  19.039   0.939  0.0532  0.0682  0.3760
 8556W        W28836   0.210  18.504  13.642  0.0133 -0.1937  0.3681
 8557W        W28837   1.433   4.410   0.811  0.0758 -0.1932  0.2046
 8558W        W28838  10.046   1.426   2.099 -0.0624  0.1869 -0.1020
 8559W        W28839   9.870   2.895  12.047 -0.2378 -0.1251 -0.0429
 8560W        W28840  18.265   8.776  13.848  0.1309 -0.1929  0.1756
 8561W        W28841   7.706   0.635   0.859  0.1061 -0.1537 -0.0004
 8562W        W28842  11.495   4.218   2.585  0.0748 -0.1087 -0.4030
 8563W        W28843  19.198  19.589  12.079 -0.0820 -0.0834  0.3299
 8564W        W28844   9.709  15.933   4.302  0.0409  0.2679  0.0728
 8565W        W28845   8.486   9.861  10.429  0.1048 -0.0025  0.1281
 8566W        W28846   9.209  17.911  11.636 -0.1139 -0.3364 -0.1722
 8567W        W28847   6.515   2.586   0.065  0.3083 -0.0041 -0.0174
 8568W        W28848   0.484   7.263   0.722 -0.3687  0.1172 -0.0722
 8569W        W28849  19.109  17.884   1.205  0.2101  0.1701  0.1165
 8570W        W28850   2.036  18.525  11.085  0.2458  0.2005 -0.0691
 8571W        W28851  17.896  19.285   0.483  0.4477 -0.0292 -0.1562
 8572W        W28852   0.515   1.733   1.673 -0.0532  0.3690 -0.1076
 8573W        W28853   5.565   0.272   1.822  0.0294 -0.1287  0.1639
 8574W        W28854   0.958   6.196   9.859 -0.0864 -0.0281 -0.0810
 8575W        W28855   4.406   9.281  12.865 -0.1031  0.1666  0.0095
 8576W        W28856   7.423   2.763   1.834 -0.0491 -0.0888  0.0069
 8577W        W28857  19.560   4.919   2.320 -0.0014  0.1581  0.1804
 8578W        W28858  15.295  17.171   3.206  0.0797 -0.0926 -0.1609
 8579W        W28859   4.775   3.439  12.733 -0.1367 -0.2380 -0.2413
 8580W        W28860   5.465   4.763   1.584 -0.1096 -0.1467 -0.0603
 8581W        W28861   9.357   0.786   0.155  0.1562  0.0336  0.2422
 8582W        W28862  15.390   3.077   0.789 -0.0294  0.0192 -0.1727
 8583W        W28863  11.746   4.771   3.228 -0.1898 -0.0792  0.1592
 8584W        W28864   9.745   2.181  10.179  0.1229 -0.1438 -0.0043
 8585W        W28865   2.848   2.795   0.450 -0.3571 -0.3517  0.3575
 8586W        W28866   1.575   5.654   1.243 -0.1872 -0.1569 -0.0189
 8587W        W28867   6.216   9.555   1.445 -0.3169  0.0933  0.1925
 8588W        W28868  18.598  18.353   4.045  0.1145 -0.2728 -0.2893
 8589W        W28869   6.453   1.007  13.324  0.1421  0.1388 -0.0258
 8590W        W28870   1.587   0.868   0.674  0.3934  0.1131  0.0914
 8591W        W28871   0.530  14.520   2.994  0.2662  0.0405 -0.0716
 8592W        W28872  12.576  14.522   1.957 -0.0310 -0.1788  0.0092
 8593W        W28873   9.535  10.270  12.598 -0.0316 -0.0413  0.1682
 8594W        W28874  18.046  11.281  13.320 -0.2020  0.4285  0.2964
 8595W        W28875   7.131   9.025   2.975  0.1019 -0.2565 -0.1670
 8596W        W28876  12.447   3.422   1.277  0.0311  0.3844 -0.4008
 8597W        W28877  11.015   0.377   2.377 -0.2867 -0.0073  0.1689
 8598W        W28878   3.886   0.842  11.473 -0.0264  0.1713  0.0313
 8599W        W28879   9.918   0.239   3.157  0.0189  0.0454 -0.1856
 8600W        W28880  11.532  12.787   2.501 -0.5089 -0.0560 -0.1063
 8601W        W28881   3.622   0.434   3.557  0.1293 -0.1384 -0.2436
 8602W        W28882   8.602  14.205  13.500  0.0204  0.0512  0.1202
 8603W        W28883   3.487   9.340   5.076  0.1882  0.0429 -0.1453
 8604W        W28884  14.921  19.517   9.747 -0.1438  0.2123 -0.1427
 8605W        W28885  13.594  11.158  10.548 -0.0076 -0.3965  0.0550
 8606W        W28886   3.165   5.304   3.508  0.2155 -0.3167 -0.1372
 8607W        W28887  19.138  15.147   8.407 -0.1243  0.0814  0.1060
 8608W        W28888  10.690  13.185  12.016 -0.2345 -0.0120 -0.0072
 8609W        W28889   0.510   8.634   0.584  0.0714 -0.0275  0.0247
 8610W        W28890  10.681  14.541   2.598 -0.1084  0.2311  0.3616
 8611W        W28891   5.342   0.619  12.411  0.1692 -0.1241 -0.2879
 8612W        W28892   3.920  14.289  10.499 -0.2264  0.0176 -0.0353
 8613W        W28893   5.520   0.803   1.084 -0.2694  0.3849  0.0005
 8614W        W28894  15.139   0.256  10.101  0.0949 -0.2467 -0.0861
 8615W        W28895  13.895  11.205   0.235 -0.0187 -0.2925  0.2343
 8616W        W28896   3.016   4.133   9.506 -0.0955 -0.1554  0.3584
 8617W        W28897   8.242  19.228  13.824  0.0351  0.3687 -0.0362
 8618W        W28898  14.450  12.825  13.650  0.1731  0.0181 -0.3231
 8619W        W28899  11.517   1.109   3.544 -0.0193 -0.2259 -0.1765
 8620W        W28900  15.340  11.109  12.894  0.0105  0.0821  0.2111
 8621W        W28901  12.082  18.216  11.445 -0.0257 -0.3065  0.1688
 8622W        W28902   3.446  16.829   3.466 -0.0115 -0.1394  0.1659
 8623W        W28903  14.488   4.689   0.132 -0.1914  0.2678  0.0330
 8624W        W28904  16.836   6.879   3.908  0.3280  0.0321  0.0775
 8625W        W28905   7.222   4.698  12.800 -0.0807 -0.0064  0.2700
 8626W        W28906   7.900   5.037  11.142 -0.0637  0.1278  0.1585
 8627W        W28907  12.324  11.552   0.241 -0.2074 -0.1757  0.4745
 8628W        W28908  19.915   8.317  10.608  0.0306  0.0134 -0.1977
 8629W        W28909   0.222  16.070  13.071 -0.0932  0.2418 -0.0471
 8630W        W28910  13.778  15.161   2.693 -0.0047 -0.1125 -0.0442
 8631W        W28911  11.051   3.588   3.169 -0.1080  0.1496 -0.3400
 8632W        W28912  15.992   8.370  13.180  0.5299  0.3082  0.1179
 8633W        W28913  12.279  17.336  10.745  0.0269  0.1360 -0.2710
 8634W        W28914  19.280  17.326   1.210 -0.4122  0.2171 -0.1096
 8635W        W28915   9.405  14.560   1.754  0.1278 -0.2997 -0.0005
 8636W        W28916  17.395   1.433  11.831 -0.0101 -0.0061  0.4156
 8637W        W28917   5.013   2.040   0.926 -0.0682  0.3590 -0.1862
 8638W        W28918  14.568  12.679   1.945 -0.0559  0.1085  0.1918
 8639W        W28919   0.795   6.808  13.280  0.4658 -0.0072 -0.0512
 8640W        W28920   1.077  11.076  10.796  0.1176  0.2514  0.3269
 8641W        W28921  10.360   6.497   3.269 -0.2347  0.3668  0.1607
 8642W        W28922   2.596  12.079   0.514 -0.1485  0.0820  0.0069
 8643W        W28923  11.220  15.261   3.340 -0.0829  0.0477 -0.1230
 8644W        W28924  10.263   1.300  11.041 -0.0366  0.3512 -0.2754
 8645W        W28925   3.956   5.649   3.175 -0.1137  0.3697 -0.0652
 8646W        W28926   2.301  13.644  13.693  0.0256  0.2192 -0.0619
 8647W        W28927   4.784  19.229   0.564 -0.0726  0.0460 -0.0457
 8648W        W28928  15.868   6.555   0.878  0.1634  0.1978 -0.2522
 8649W        W28929  18.789   0.643   2.869  0.0605 -0.1065 -0.3050
 8650W        W28930   0.257   8.968  11.405 -0.0294 -0.0458  0.1546
 8651W        W28931   2.923  18.882   0.354 -0.0766  0.2511 -0.1063
 8652W        W28932  15.293  17.386  13.565  0.4093  0.1362 -0.0039
 8653W        W28933  17.717   3.755  13.822  0.0865 -0.2805 -0.1437
 8654W        W28934   7.698  18.503   9.544  0.0995 -0.1896 -0.0249
 8655W        W28935   6.770  19.502  10.999 -0.2633 -0.0747 -0.0639
 8656W        W28936   2.112   0.874   4.416  0.1256 -0.4361  0.1107
 8657W        W28937  15.945   3.208  12.869 -0.1683 -0.1309 -0.1523
 8658W        W28938  14.581  15.384   1.492 -0.0931 -0.0098 -0.0550
 8659W        W28939  17.771   0.723  12.934 -0.1319  0.1604 -0.0927
 8660W        W28940  12.328   3.311  13.621  0.0819 -0.0675  0.1695
 8661W        W28941   5.926  12.294   2.101  0.1132 -0.0538  0.0101
 8662W        W28942   3.063  13.970  11.024  0.0853 -0.3600 -0.0160
 8663W        W28943  13.549  17.428   4.196 -0.1688 -0.2037 -0.3212
 8664W        W28944   5.542  11.500  12.482 -0.1731  0.3670 -0.3646
 8665W        W28945  16.486  10.832  10.420 -0.2502  0.1032 -0.1256
 8666W        W28946  16.233  15.897  11.150 -0.1427 -0.1281 -0.1598
 8667W        W28947  16.372   7.552   2.730  0.0500 -0.0026  0.4436
 8668W        W28948   1.968   2.050   3.724 -0.1522  0.4238  0.2419
 8669W        W28949  13.729  13.144   3.301  0.0508 -0.3128  0.1242
 8670W        W28950  18.243  12.291   1.874  0.2339  0.1513 -0.0777
 8671W        W28951   0.197   5.922  13.195 -0.4395  0.0098  0.1410
 8672W        W28952  12.346   3.563  10.734 -0.1316 -0.0618 -0.0772
 8673W        W28953  13.956  15.437   0.829  0.1118  0.0293 -0.2758
 8674W        W28954  10.521  16.065  11.505  0.3482  0.3488  0.0677
 8675W        W28955   3.280   3.917  13.215  0.0206 -0.1402  0.1893
 8676W        W28956  14.188   6.983  13.072  0.2655 -0.1922  0.0587
 8677W        W28957   4.373  15.823  11.326  0.4466  0.1953  0.3974
 8678W        W28958  14.870   0.682  12.211 -0.0572 -0.0271 -0.0426
 8679W        W28959   5.389   4.112  12.153 -0.0034 -0.0366 -0.0180
 8680W        W28960  16.081   2.760  11.392  0.2214 -0.0724  0.1373
 8681W        W28961  13.097  17.854   2.144 -0.1353 -0.0920  0.1640
 8682W        W28962  14.697   3.954   4.448  0.0184  0.1601 -0.0077
 8683W        W28963   3.451   0.610   1.324  0.0119  0.3978  0.0225
 8684W        W28964  14.561   3.321  10.609 -0.0011  0.3366  0.1536
 8685W        W28965   3.014  14.230   2.184  0.0913  0.1539  0.1927
 8686W        W28966   9.007   0.458  11.956  0.0456  0.0473  0.3104
 8687W        W28967  10.454   0.016   2.379  0.1070  0.1830  0.0048
 8688W        W28968   6.492   8.024   2.800  0.0161 -0.1675  0.2773
 8689W        W28969   8.748   4.253  12.938 -0.1432 -0.0948  0.0318
 8690W        W28970   5.835  16.261   1.694 -0.2156  0.0074 -0.1500
 8691W        W28971  18.338  17.214   0.169  0.0228 -0.2070 -0.2068
 8692W        W28972  14.916   4.179   2.430 -0.0326  0.0258  0.2565
 8693W        W28973   1.938  15.146  11.554 -0.1106  0.0506 -0.0542
 8694W        W28974   2.542  16.874  12.798  0.2386  0.2096 -0.0338
 8695W        W28975   9.031   6.434  13.216  0.0115  0.1023 -0.0590
 8696W        W28976   2.824   1.008  12.072 -0.2216 -0.0823  0.0893
 8697W        W28977   8.840   3.184  12.496  0.2184 -0.1606  0.1178
 8698W        W28978   0.241  10.118   2.043 -0.1730 -0.0246 -0.0522
 8699W        W28979  16.694   1.153   3.310 -0.2420  0.4812 -0.1922
 8700W        W28980  12.368  19.224  10.201 -0.2475 -0.2311  0.0120
 8701W        W28981  15.483   8.554   2.385  0.2122  0.2501 -0.1890
 8702W        W28982   9.222  18.556   0.802 -0.5451  0.0010 -0.1630
 8703W        W28983   9.067  18.922  13.560  0.1308  0.0797  0.0344
 8704W        W28984   7.074   8.104  12.389 -0.0496  0.0128 -0.0000
 8705W        W28985  18.818  10.789  12.814 -0.0627 -0.3118  0.1821
 8706W        W28986   6.894   3.820  10.152 -0.0216  0.1896 -0.2717
 8707W        W28987  17.234   3.303   2.715 -0.1161  0.1329 -0.1757
 8708W        W28988   2.537  12.851  13.073  0.0875  0.1838 -0.1269
 8709W        W28989   6.911  15.293   2.468  0.0535  0.2120  0.1347
 8710W        W28990   3.942   2.545   0.305 -0.0287  0.1142  0.1034
 8711W        W28991  14.261   9.801   1.178  0.4870  0.1730 -0.2509
 8712W        W28992   6.921   2.495   4.821 -0.1901 -0.0128 -0.1839
 8713W        W28993   0.170   4.836  12.562  0.0504 -0.1455  0.1565
 8714W        W28994   8.821  18.636  13.248  0.1294 -0.0492  0.1883
 8715W        W28995   2.791  19.919   3.126  0.0905  0.5119 -0.1176
 8716W        W28996  14.110   8.132   0.857  0.0900 -0.1271 -0.0250
 8717W        W28997   9.267  19.595   2.934  0.2337  0.0280 -0.1212
 8718W        W28998   5.769   8.976  13.505  0.0051 -0.2365  0.0663
 8719W        W28999  11.749   5.414  13.244 -0.0547 -0.1826 -0.0990
 8720W        W29000  12.509   7.444   3.041 -0.1414 -0.0271 -0.0209
 8721W        W29001   3.358  12.496   3.443 -0.1472  0.0240  0.2422
 8722W        W29002  16.588  18.701  10.065 -0.1357 -0.1268 -0.0368
 8723W        W29003  13.388   8.190   4.618 -0.0293 -0.0576 -0.0350
 8724W        W29004  12.515   8.521  11.351 -0.0984  0.0295  0.0427
 8725W        W29005   6.780  17.973  11.859  0.1854 -0.1802  0.1599
 8726W        W29006  12.327  13.440   0.217 -0.0161 -0.2292  0.0534
 8727W        W29007   2.222  18.428  13.026  0.1564  0.2194  0.1956
 8728W        W29008  17.730   3.589  11.292 -0.1687 -0.1527  0.0307
 8729W        W29009  15.501   1.819  13.393 -0.0755 -0.1435  0.2424
 8730W        W29010   7.938  18.043  11.047  0.0268 -0.2056 -0.1448
 8731W        W29011   6.297  16.484   9.816  0.1581  0.0964 -0.0647
 8732W        W29012  11.374   5.322  13.569  0.1929  0.0177  0.1380
 8733W        W29013  16.626   7.375  13.177 -0.1378  0.2845 -0.0117
 8734W        W29014  19.784   1.553   2.895 -0.1142  0.0881  0.0596
 8735W        W29015  12.876   2.735  13.557  0.3996 -0.2495 -0.0442
 8736W        W29016   4.242  18.937  10.001  0.0391  0.0600 -0.0036
 8737W        W29017   2.659   7.673  11.547  0.0453  0.0101 -0.1696
 8738W        W29018   7.106  16.613  12.177 -0.0314  0.4845 -0.0607
 8739W        W29019   3.344   8.952  10.485  0.0478 -0.1633  0.3261
 8740W        W29020   8.816   7.562   0.371  0.0253 -0.3374 -0.0078
 8741W        W29021   2.872   9.258   2.442 -0.2381  0.3083 -0.0764
 8742W        W29022  13.213   7.916   3.402 -0.0614 -0.1865 -0.1550
 8743W        W29023  17.199  14.056   2.504  0.0108 -0.0592 -0.1878
 8744W        W29024   2.380   5.469  12.770  0.0654 -0.3309  0.1345
 8745W        W29025   7.255  16.226  11.560  0.1734 -0.1837 -0.0825
 8746W        W29026   7.821   6.116   2.720  0.1954  0.1452  0.0416
 8747W        W29027  10.142  12.707   4.045 -0.4274  0.0372 -0.2520
 8748W        W29028  19.483  13.050   4.193  0.1090 -0.0876  0.0204
 8749W        W29029   0.146  18.011   3.718 -0.1672  0.2805 -0.0664
 8750W        W29030  14.825  10.865  10.915 -0.3340 -0.2512  0.1812
 8751W        W29031  11.236   1.493  11.192  0.1581 -0.1546 -0.0629
 8752W        W29032  18.418   9.279   2.823  0.1907  0.1857 -0.0583
 8753W        W29033   9.271   8.915  10.540 -0.2558  0.2119  0.2104
 8754W        W29034  13.999  16.599   1.136 -0.2656  0.0946 -0.0164
 8755W        W29035  14.768  12.030   9.968 -0.2121 -0.4098  0.1994
 8756W        W29036   9.669   4.725   0.389 -0.1271 -0.2050 -0.1934
 8757W        W29037  14.759  11.436   2.283 -0.1853 -0.1000  0.1626
 8758W        W29038   7.064  13.778   2.547 -0.0037  0.0550  0.1036
 8759W        W29039  13.953  12.545  12.552  0.0052  0.0370  0.0143
 8760W        W29040   2.413  17.071   3.205  0.1322  0.1653  0.0033
 8761W        W29041  17.816   0.696  13.407 -0.1263 -0.0964  0.2455
 8762W        W29042   5.836   5.648  11.791 -0.0533  0.0504  0.2223
 8763W        W29043   7.626   9.817  10.194 -0.0155 -0.3081  0.0173
 8764W        W29044  13.184   7.707  11.411 -0.2404 -0.3103 -0.0668
 8765W        W29045   4.415   8.140  11.138  0.1209 -0.0101  0.0094
 8766W        W29046   5.640   5.953  10.676  0.3013 -0.0694  0.0585
 8767W        W29047  15.904  19.257  12.066  0.0375  0.0726 -0.0001
 8768W        W29048   6.230  16.629  10.780 -0.0675  0.0904  0.1365
 8769W        W29049  11.354   0.609  11.681  0.0773  0.0138 -0.0792
 8770W        W29050   5.344   6.034   1.029  0.2130 -0.1819  0.1893
 8771W        W29051   3.775  18.967  13.038  0.2117 -0.0085  0.1247
 8772W        W29052   7.113   2.028   1.119 -0.2023 -0.1674  0.0249
 8773W        W29053  16.058   8.411  10.373 -0.1480  0.2033  0.3878
 8774W        W29054   4.456  10.014  11.789  0.2285  0.2899 -0.1432
 8775W        W29055   2.898   9.685  11.297 -0.0072 -0.4383 -0.0634
 8776W        W29056   1.921   1.797  13.711 -0.2897  0.3233 -0.1363
 8777W        W29057   4.724  15.810  13.842 -0.1683 -0.1191  0.2251
 8778W        W29058   2.154  12.871   0.375  0.2841  0.1441  0.1001
 8779W        W29059  15.136  15.935  11.014 -0.0253 -0.2079  0.1727
 8780W        W29060  14.932  16.675   1.540 -0.2735 -0.1082  0.1479
 8781W        W29061   9.843   8.020  11.871  0.1045 -0.0379  0.0666
 8782W        W29062   8.914  16.590   3.329  0.0738 -0.3630  0.3940
 8783W        W29063   5.946  14.789   0.793  0.0283 -0.1105 -0.1138
 8784W        W29064  19.129  19.177  10.173 -0.1446  0.0698 -0.1623
 8785W        W29065  16.166   0.794  12.795  0.1285 -0.0850  0.2836
 8786W        W29066   8.138  11.245  13.304 -0.0390  0.2109  0.1440
 8787W        W29067  13.262   7.290  13.070  0.2067 -0.0808 -0.0388
 8788W        W29068  18.500  14.917  11.646 -0.3945 -0.2175 -0.0935
 8789W        W29069  13.061   9.829   0.673  0.3334  0.0460  0.0432
 8790W        W29070   4.101  19.494   2.890  0.0784  0.0058 -0.0403
 8791W        W29071   0.051   0.530  10.178 -0.0715  0.2034 -0.0826
 8792W        W29072   0.893   7.571  13.810 -0.2472  0.1543  0.0124
 8793W        W29073   2.256  10.051  12.050 -0.2222 -0.1168  0.2213
 8794W        W29074  13.464   1.407  13.412  0.2119 -0.0335  0.0378
 8795W        W29075  18.067   7.402   9.979 -0.0407  0.0390 -0.2852
 8796W        W29076   6.267   6.721  13.269 -0.0673 -0.1566  0.0048
 8797W        W29077  16.113  14.267  10.671  0.0921 -0.1904  0.0782
 8798W        W29078  19.176  10.374   1.884  0.0551  0.3258  0.0649
 8799W        W29079   1.835  11.908  10.639  0.0428  0.2373 -0.1145
 8800W        W29080  16.761  15.236  13.359 -0.3797  0.0814 -0.3898
 8801W        W29081  11.559  16.279   3.752  0.0313  0.0334 -0.0272
 8802W        W29082   4.664   8.424  12.878  0.0373  0.0926  0.2396
 8803W        W29083   1.904   1.334  12.995  0.1716  0.3763  0.1479
 8804W        W29084  18.428   5.323  11.963  0.2278 -0.3229  0.3666
 8805W        W29085  12.419  14.271  13.225  0.1173  0.2080 -0.0516
 8806W        W29086   0.789  11.448  11.811  0.2587 -0.6175  0.0543
 8807W        W29087  18.965   0.643  11.545  0.2492  0.1679  0.0499
 8808W        W29088  19.447   3.215   1.896  0.2068 -0.2299 -0.0116
 8809W        W29089  19.343  11.659  12.119  0.0507 -0.3260 -0.0296
 8810W        W29090  16.097   4.569   3.595 -0.0720  0.0085 -0.4365
 8811W        W29091   8.414   8.319   1.325  0.0821  0.0482 -0.0497
 8812W        W29092  15.326  15.497  11.789  0.0098 -0.4004 -0.5168
 8813W        W29093   1.874  11.514  11.957  0.0071 -0.1301  0.2204
 8814W        W29094  13.383   7.825  10.538  0.0750  0.3742  0.1148
 8815W        W29095  17.058   9.345   2.702  0.2504 -0.0869  0.1255
 8816W        W29096   0.327  15.801  10.152 -0.4203  0.1336 -0.1640
 8817W        W29097  11.119  13.705   0.444  0.0222 -0.1892  0.0970
 8818W        W29098  18.569   0.587   0.120  0.1245  0.0656 -0.1542
 8819W        W29099  13.577  14.033  13.838  0.2335  0.1522  0.2889
 8820W        W29100  19.785   3.362   9.814 -0.0725  0.0986  0.3367
 8821W        W29101   5.662   7.008   0.714 -0.6697 -0.0310 -0.3127
 8822W        W29102   4.522   5.470  11.525  0.0259  0.4349 -0.0448
 8823W        W29103   1.941   1.260   4.712 -0.0520  0.0497 -0.0644
 8824W        W29104  18.331   3.573   9.314 -0.3896 -0.0275 -0.0249
 8825W        W29105   0.521  12.405   1.315  0.0071  0.1488  0.3068
 8826W        W29106   6.238   4.587   3.196 -0.0550  0.0134 -0.0076
 8827W        W29107   5.012   1.673   1.724  0.2299  0.1454 -0.0905
 8828W        W29108   4.232   0.307   4.089 -0.2183  0.0400  0.1608
 8829W        W29109  18.637  10.064  11.642  0.1501  0.2085  0.0282
 8830W        W29110   4.791  17.515   1.196 -0.1412 -0.0115  0.0879
 8831W        W29111  10.272  12.199  13.504  0.0451 -0.1570  0.2367
 8832W        W29112   9.009   7.288   2.790  0.1327  0.1402 -0.1120
 8833W        W29113   2.448   0.165  12.691  0.0730  0.0544  0.1253
 8834W        W29114   5.444   0.805   1.553 -0.4297  0.3529  0.0151
 8835W        W29115  16.735   1.588   9.937 -0.2456 -0.1917 -0.0599
 8836W        W29116   7.748   0.117  10.878  0.1686  0.1737 -0.0302
 8837W        W29117  12.929   1.153  13.747  0.2116 -0.0275 -0.1902
 8838W        W29118   6.850  19.931  10.692 -0.1980  0.1031 -0.2236
 8839W        W29119  17.842   4.102   1.086  0.1485 -0.1614  0.2846
 8840W        W29120  16.056   7.976   1.840  0.3523 -0.1159 -0.0502
 8841W        W29121   6.150  13.427   0.025 -0.3478  0.1708 -0.3268
 8842W        W29122   4.012   2.818  11.959 -0.1505  0.0181  0.1922
 8843W        W29123  10.253   3.596   1.607  0.1871 -0.0444  0.2893
 8844W        W29124  14.727  19.245   2.934 -0.3361 -0.2064 -0.2775
 8845W        W29125   9.298  11.390  12.039 -0.1460  0.0094  0.1211
 8846W        W29126   7.085  18.616  13.556  0.0671  0.4316  0.1443
 8847W        W29127   9.697  17.277  10.769  0.2473  0.1000  0.1333
 8848W        W29128  14.132   5.541   3.517  0.0961  0.0550  0.0647
 8849W        W29129   3.375  15.740   1.093  0.1983 -0.1270  0.1950
 8850W        W29130   2.352   9.616   0.182  0.0746  0.1016  0.2975
 8851W        W29131   8.905   3.212  13.034 -0.2347  0.0615  0.4127
 8852W        W29132   6.893  12.314  12.192 -0.1358  0.0600 -0.1988
 8853W        W29133   0.898   9.532   2.182  0.0350  0.1245  0.0743
 8854W        W29134  11.870  12.094   0.418 -0.1247  0.0802 -0.0962
 8855W        W29135   1.660   8.584  13.223  0.1605  0.0807 -0.0162
 8856W        W29136  16.328  12.472   1.719  0.1013 -0.1880  0.0779
 8857W        W29137   0.268  11.118   9.869 -0.0649 -0.2028  0.1992
 8858W        W29138  11.027  19.321   1.584 -0.0683 -0.6161  0.2104
 8859W        W29139  19.650   6.725  12.390  0.0022  0.2077  0.1625
 8860W        W29140   5.354  17.059   0.312 -0.2327  0.4087  0.0884
 8861W        W29141  13.415   0.305   1.068 -0.2668 -0.0851  0.0102
 8862W        W29142  17.418   5.183   2.037 -0.0683  0.1416  0.0190
 8863W        W29143  15.493  10.158   9.908 -0.2792 -0.1405  0.0172
 8864W        W29144   4.720  16.960   0.782  0.3490  0.0888  0.1414
 8865W        W29145   7.739  16.830   3.862  0.0399 -0.2051  0.5108
 8866W        W29146  13.547   3.324   3.504 -0.0453  0.2858 -0.0299
 8867W        W29147  16.344   3.932  10.073 -0.3214 -0.1029 -0.0766
 8868W        W29148   3.166   8.374  12.298  0.1097  0.1749  0.0525
 8869W        W29149   1.931   6.783   2.830 -0.1750  0.0944  0.1672
 8870W        W29150   0.411  19.586   1.087 -0.0554  0.0537  0.1329
 8871W        W29151   5.800  17.226  11.792 -0.2403  0.3123  0.1388
 8872W        W29152   1.633  18.922   1.569  0.5008  0.1339  0.0780
 8873W        W29153  17.854   5.902   0.384  0.2294 -0.2354  0.1037
 8874W        W29154  11.631   8.013   0.442  0.0671 -0.0351  0.2456
 8875W        W29155   9.740   0.007   1.190  0.0826  0.2627 -0.0384
 8876W        W29156   8.290   1.799  12.336 -0.0332 -0.1980 -0.2667
 8877W        W29157   1.183   6.292  11.287 -0.0149 -0.0256  0.1879
 8878W        W29158  14.587  10.134   3.570  0.4782 -0.0040  0.0941
 8879W        W29159  19.161   4.845   1.633 -0.4030 -0.5417  0.2499
 8880W        W29160   0.834   8.235  10.876 -0.1841 -0.0529 -0.0820
 8881W        W29161   2.131   0.134  11.111 -0.1613 -0.1755  0.0587
 8882W        W29162  11.873  18.059  13.356 -0.1070 -0.0811  0.0931
 8883W        W29163   3.465  17.749   3.062  0.0036  0.1209  0.0389
 8884W        W29164   9.633   5.930   1.554 -0.0593  0.1226 -0.0196
 8885W        W29165  17.994  11.171  11.962 -0.3164 -0.4085 -0.2179
 8886W        W29166   4.992  11.906   0.921  0.1911  0.2247  0.0416
 8887W        W29167   4.892  13.893   3.110  0.0465 -0.1720 -0.0105
 8888W        W29168  19.302   8.251   0.697  0.0092  0.1141  0.0144
 8889W        W29169   8.361   9.945   0.541  0.1003 -0.1294 -0.3735
 8890W        W29170   9.799  18.446   0.136  0.2856  0.0310  0.0303
 8891W        W29171   9.159  11.451  11.146 -0.0548  0.0714  0.0910
 8892W        W29172  17.390  12.710   1.141  0.3072 -0.1513 -0.0141
 8893W        W29173   0.113  16.810   1.564  0.1393  0.2766 -0.3628
 8894W        W29174  18.318   2.695  13.844 -0.1028 -0.1188 -0.0372
 8895W        W29175  16.586  15.738   0.852  0.3427  0.1013 -0.0435
 8896W        W29176   1.826   7.372   0.678  0.2833 -0.0518 -0.1026
 8897W        W29177  14.940  14.036   2.984  0.2301  0.2713 -0.0988
 8898W        W29178   1.493  16.279   3.915  0.3572  0.0612 -0.0581
 8899W        W29179   4.137   0.371   3.471 -0.0366  0.3311  0.3442
 8900W        W29180  17.530  17.347  13.030  0.0882 -0.1832  0.2536
 8901W        W29181   4.495   6.325   1.574 -0.1113  0.0519 -0.0191
 8902W        W29182   1.453   7.548  13.268  0.1099 -0.0876 -0.1515
 8903W        W29183  19.327   4.578   0.530 -0.2234 -0.2444  0.0261
 8904W        W29184   7.733  18.408   1.206 -0.0796  0.0624  0.0029
 8905W        W29185  19.943   1.332   0.256 -0.2458  0.1266  0.0876
 8906W        W29186  16.294  13.516   0.349 -0.2225 -0.3291 -0.0430
 8907W        W29187  17.049   7.262  13.635  0.2118  0.1123  0.1804
 8908W        W29188   8.484   0.950   2.907 -0.0890 -0.0292 -0.1308
 8909W        W29189  18.791   5.212  10.522  0.2053  0.0310  0.0497
 8910W        W29190   3.073  19.777   0.810 -0.1313 -0.0078 -0.2075
 8911W        W29191   3.515   8.697  12.568 -0.0627 -0.0855  0.3476
 8912W        W29192   3.672  19.247  12.513  0.0051  0.2537  0.0118
 8913W        W29193  19.701   3.723  11.496 -0.0223  0.0149  0.0196
 8914W        W29194  15.550  18.525   1.768 -0.3561  0.2149  0.0282
 8915W        W29195  10.014  11.812  11.077 -0.0645  0.3884 -0.1881
 8916W        W29196  18.790   2.442   4.320  0.2339 -0.0628  0.0137
 8917W        W29197  17.823   9.740   0.169 -0.2626 -0.0100  0.2934
 8918W        W29198   1.126  17.778   1.921 -0.0338  0.1750 -0.3010
 8919W        W29199  12.180   2.095  12.893  0.1481  0.1649 -0.1414
 8920W        W29200   5.031   3.198  13.140 -0.0111  0.0175 -0.0028
 8921W        W29201  18.277  14.996  12.959 -0.1558 -0.2781 -0.0525
 8922W        W29202   0.780   3.536   3.770  0.0063  0.2697 -0.3049
 8923W        W29203  18.637   9.960   0.962 -0.0686  0.4163  0.1367
 8924W        W29204   2.326   1.282   0.860  0.0108 -0.1405  0.1259
 8925W        W29205  14.133  11.836   3.686  0.2033 -0.0178  0.0186
 8926W        W29206   0.914   1.473  11.844  0.1562  0.0431 -0.3872
 8927W        W29207   6.861   5.568  12.438 -0.0017  0.2018  0.3221
 8928W        W29208   5.718   7.108  11.568  0.1945 -0.2962 -0.0276
 8929W        W29209   1.968   9.080   2.798  0.2562 -0.0737 -0.1818
 8930W        W29210  12.486  16.144  12.974 -0.1430  0.0182  0.1258
 8931W        W29211  17.435  11.280   1.324 -0.2194 -0.0100 -0.1849
 8932W        W29212  18.946  10.904  10.163  0.1178  0.1474  0.0812
 8933W        W29213   4.807   8.629   1.238 -0.1159  0.1112  0.0404
 8934W        W29214   5.845   0.594  13.770 -0.3807  0.2189 -0.0784
 8935W        W29215   8.893  12.587   0.055  0.0423 -0.2215 -0.3838
 8936W        W29216   2.211  10.617   2.992 -0.3891 -0.2819 -0.0952
 8937W        W29217   6.857  18.344  12.728 -0.1426 -0.0608 -0.0279
 8938W        W29218  12.437   2.466   3.401  0.3332  0.0450  0.0953
 8939W        W29219  16.053  18.805  13.165 -0.0286 -0.1161 -0.1092
 8940W        W29220   8.759   0.531   9.538 -0.5053 -0.0805  0.2566
 8941W        W29221   6.241   6.969   0.790 -0.2125 -0.0294 -0.0857
 8942W        W29222   9.870   3.012   2.892 -0.2053 -0.1847 -0.2633
 8943W        W29223   4.279   7.000   2.592 -0.0781  0.0225 -0.1524
 8944W        W29224  13.740   2.348   0.004  0.0714  0.0213  0.3187
 8945W        W29225   0.141  11.675  12.206  0.0764 -0.1175  0.0670
 8946W        W29226  17.071  18.847  12.184  0.1921  0.2411 -0.0102
 8947W        W29227   1.331   0.346   2.529  0.3867  0.0427  0.0723
 8948W        W29228   2.885   1.687   0.668  0.0807  0.1789  0.2662
 8949W        W29229  12.918  15.619   9.267  0.0533 -0.0352  0.5018
 8950W        W29230   4.340  16.872   2.439  0.0405 -0.1846  0.1734
 8951W        W29231   1.842   8.011   3.654 -0.0547  0.2412  0.0645
 8952W        W29232  15.621   0.842  13.324  0.1770  0.2716  0.2144
 8953W        W29233   4.839  16.097   1.809 -0.1955  0.1088 -0.0328
 8954W        W29234  13.341  12.617  13.022 -0.1339  0.4775 -0.3205
 8955W        W29235   1.510  19.049  11.841 -0.2378 -0.2627 -0.4110
 8956W        W29236   3.335   1.620  11.918  0.2399  0.2213  0.0530
 8957W        W29237  18.892  16.304  10.316  0.1432  0.1967 -0.0867
 8958W        W29238   2.799  11.693   1.341 -0.2120 -0.0914 -0.1294
 8959W        W29239   0.991  15.211  12.031 -0.0843  0.0587  0.0902
 8960W        W29240   0.239   9.939  11.282  0.2148  0.3912 -0.0478
 8961W        W29241  17.534  13.959  10.481 -0.0838 -0.3271 -0.1796
 8962W        W29242   7.242  15.671  12.225  0.0909 -0.1780  0.0280
 8963W        W29243  11.512  18.653  11.695 -0.0455 -0.1178 -0.0697
 8964W        W29244   5.616  13.871  13.703  0.2626 -0.0119 -0.1476
 8965W        W29245  17.941  14.644  11.858 -0.0344 -0.0249 -0.1406
 8966W        W29246   6.492   5.417  13.516 -0.1961  0.0602 -0.0995
 8967W        W29247   8.188   9.842  13.600 -0.0530 -0.0314 -0.0920
 8968W        W29248  19.640  16.017  13.073  0.0406  0.0941  0.1117
 8969W        W29249   2.448   3.728  13.383 -0.0588  0.1216  0.1258
 8970W        W29250  17.442   3.535   9.372  0.0129 -0.1536 -0.0122
 8971W        W29251  14.057   2.780   1.465 -0.0083  0.0883  0.2998
 8972W        W29252  16.186   3.997  13.750 -0.2091 -0.2269 -0.3225
 8973W        W29253  15.954  16.145  11.536  0.0338 -0.4128 -0.0060
 8974W        W29254   8.566  12.853   0.645  0.0020  0.2496  0.2378
 8975W        W29255   1.689   4.128   0.022  0.1568  0.0479  0.0613
 8976W        W29256   6.970  17.582  12.127 -0.3091  0.1337  0.0702
 8977W        W29257   8.261   3.406   9.927  0.0930  0.0369 -0.0083
 8978W        W29258  18.458  13.953  10.707  0.3122 -0.1770 -0.1744
 8979W        W29259   9.528  14.408  12.215  0.0546  0.0301 -0.1784
 8980W        W29260  10.120  12.361   9.981 -0.0371 -0.1733 -0.0169
 8981W        W29261   8.464   8.536  12.286  0.2217  0.0125  0.2068
 8982W        W29262  18.001   6.538  10.991  0.1364  0.2112  0.2487
 8983W        W29263   8.719   6.140  12.715 -0.2106  0.2226  0.3342
 8984W        W29264   1.211  19.493   2.475 -0.1843  0.1003  0.1136
 8985W        W29265   9.395  16.118  11.790  0.0957  0.3435 -0.1235
 8986W        W29266  18.613   3.304  12.198  0.1011 -0.1106 -0.1548
 8987W        W29267   9.688   8.119   9.291 -0.0696 -0.1910 -0.2705
 8988W        W29268  17.226  17.882  13.544  0.2284 -0.0282  0.1019
 8989W        W29269   4.651   2.254  12.567 -0.1948  0.1345  0.1343
 8990W        W29270   4.124   0.968  11.036 -0.1002 -0.3499 -0.1047
 8991W        W29271  10.866   3.127   2.387  0.1285 -0.0749  0.0826
 8992W        W29272   6.499  11.702   4.230 -0.2400 -0.1801 -0.0046
 8993W        W29273  15.993  17.647   3.086  0.3014 -0.1684 -0.2200
 8994W        W29274  18.911   1.741   2.300 -0.1797 -0.1054  0.1972
 8995W        W29275   5.920   7.405   0.567  0.1261 -0.5105 -0.0732
 8996W        W29276   8.665   4.394  13.792 -0.0948 -0.2219  0.2794
 8997W        W29277  16.303   5.350   2.214 -0.0336  0.1542  0.1484
 8998W        W29278  10.074  11.259   0.415  0.0351  0.2372 -0.1127
 8999W        W29279   1.646  15.360   1.020  0.0034 -0.0315 -0.0763
 9000W        W29280  15.882  12.223   0.694  0.0009  0.1181  0.0211
 9001W        W29281  11.617   2.451  10.933 -0.1774 -0.1479 -0.0890
 9002W        W29282  15.539  15.458   1.056  0.0084  0.0667 -0.2312
 9003W        W29283  11.442   4.410   9.317 -0.0051  0.0512 -0.4791
 9004W        W29284   1.775   2.193   0.662 -0.0199 -0.0781 -0.0593
 9005W        W29285   8.826   5.832  13.131 -0.0369 -0.1138  0.1525
 9006W        W29286  19.226   9.337   9.950  0.0391 -0.1607 -0.1701
 9007W        W29287  18.636   9.947  10.006  0.1154 -0.0240 -0.0795
 9008W        W29288   6.002  19.525  13.565 -0.0200  0.0616  0.0471
 9009W        W29289   7.880   0.957  11.938  0.2944 -0.0195 -0.1044
 9010W        W29290  14.521  18.565   4.961  0.1244 -0.2471 -0.2814
 9011W        W29291  19.541   5.421  10.619  0.3648 -0.1554  0.2122
 9012W        W29292  10.040  19.385  11.410  0.0657 -0.0073  0.0410
 9013W        W29293   5.615  16.701   1.773 -0.1785 -0.1937 -0.2704
 9014W        W29294  12.047  11.320  10.752 -0.2972 -0.0836  0.0670
 9015W        W29295  19.436   8.916  10.259  0.0163  0.3282 -0.2905
 9016W        W29296  11.310   3.353   0.382  0.3402  0.0676 -0.2224
 9017W        W29297   3.531  17.853   1.064  0.3695 -0.1442 -0.0625
 9018W        W29298   0.573   2.297  11.305 -0.1456  0.0262 -0.1389
 9019W        W29299  19.438  15.320   9.884  0.0847 -0.1366  0.1485
 9020W        W29300  11.140   8.269  11.151 -0.5553 -0.1251 -0.1086
 9021W        W29301   0.173  11.170   1.489  0.0107 -0.1298  0.2867
 9022W        W29302  17.194  15.067   1.419  0.1166 -0.0588 -0.3244
 9023W        W29303   9.122  13.073   2.272 -0.2284  0.2347 -0.2168
 9024W        W29304  16.994   4.965  13.104 -0.0622 -0.2224 -0.1205
 9025W        W29305  16.151  15.251   2.409 -0.0099 -0.0045 -0.0546
 9026W        W29306  16.017   4.632  10.062  0.1062 -0.2421  0.0475
 9027W        W29307  13.845   3.306  11.270  0.0874  0.0715  0.0977
 9028W        W29308   0.654   6.220  11.497  0.2381  0.2590 -0.2403
 9029W        W29309   2.293  13.173  13.861 -0.0883  0.0382  0.0905
 9030W        W29310   2.135  12.924  11.152 -0.0326  0.2626 -0.0523
 9031W        W29311  17.515  12.150  10.788  0.4125  0.0298 -0.1017
 9032W        W29312   4.318  11.094   0.569 -0.1487  0.2033  0.4467
 9033W        W29313  18.798   8.367   0.839  0.1625 -0.0476 -0.0319
 9034W        W29314  13.348   8.008  11.009 -0.0882 -0.0239  0.2046
 9035W        W29315   8.666  15.583   0.316 -0.3225 -0.1847  0.2173
 9036W        W29316   5.339  14.238   2.727  0.1000  0.1486  0.0194
 9037W        W29317  16.596   9.878   1.212 -0.0435 -0.1096 -0.1301
 9038W        W29318  16.797  15.374   3.173 -0.1520 -0.0465 -0.0638
 9039W        W29319   9.838  12.084  13.711  0.3333 -0.0261  0.4131
 9040W        W29320  13.853  14.942   0.549 -0.2456  0.2349 -0.0284
 9041W        W29321   0.791  16.396  10.906  0.3052 -0.0872  0.0783
 9042W        W29322   5.559  14.538   1.955  0.0164 -0.0083 -0.0044
 9043W        W29323  10.430   9.464   2.271 -0.0157 -0.0980 -0.2723
 9044W        W29324   6.729  12.728  13.279 -0.1804 -0.1403 -0.1393
 9045W        W29325  18.436  15.047   9.595  0.2481 -0.1681 -0.0241
 9046W        W29326  14.988   6.473  12.681 -0.0378  0.0306  0.1265
 9047W        W29327  18.851   6.724  12.026 -0.0378  0.1333  0.3537
 9048W        W29328   2.165   3.322   0.097 -0.1200  0.0804 -0.1267
 9049W        W29329   8.878  10.528   1.247  0.2695 -0.3019 -0.1917
 9050W        W29330  18.632   3.280   0.030 -0.0688 -0.0330 -0.0587
 9051W        W29331  13.023   2.140   3.486  0.0671  0.0149 -0.1865
 9052W        W29332   9.580   5.254  12.039  0.1190  0.2009 -0.2764
 9053W        W29333   3.239  11.828  10.414  0.3426 -0.0335  0.0926
 9054W        W29334  13.094  14.909   0.593 -0.0988  0.1992  0.2931
 9055W        W29335   9.708   3.753   2.052 -0.3073  0.1573 -0.3286
 9056W        W29336   6.390   7.278  11.145 -0.3581 -0.1348 -0.2596
 9057W        W29337  12.485  19.956   2.857 -0.1409  0.0695 -0.1539
 9058W        W29338  18.239  12.417  11.677  0.2866 -0.2655 -0.1403
 9059W        W29339   7.107   6.147  13.543  0.0928  0.1721  0.0395
 9060W        W29340   9.456   4.224   1.240 -0.0516 -0.2200 -0.2078
 9061W        W29341   8.383   9.355  13.501  0.2292 -0.1949 -0.1636
 9062W        W29342  10.169  13.220   3.696 -0.1187  0.1017 -0.1721
 9063W        W29343   6.654   3.720  10.645  0.0065 -0.0648  0.0892
 9064W        W29344  11.926   9.347  11.012  0.1902  0.1458 -0.1391
 9065W        W29345   4.106   2.709  13.771 -0.4213 -0.0568 -0.1061
 9066W        W29346  14.532   5.053  11.943  0.3365  0.0031 -0.1237
 9067W        W29347   2.394   2.097   0.570 -0.1418 -0.3623  0.0898
 9068W        W29348   9.258   9.526   3.972  0.0281  0.0330 -0.3742
 9069W        W29349  19.276  14.881   3.385  0.0844 -0.2983 -0.2022
 9070W        W29350  16.353  13.077  11.303 -0.0833  0.1260  0.1301
 9071W        W29351   8.315   7.869   0.627 -0.0054  0.0662 -0.1541
 9072W        W29352  15.893   5.597   2.448  0.1460 -0.0649  0.3288
 9073W        W29353  12.149  14.850   0.876 -0.1117 -0.2521 -0.0453
 9074W        W29354   9.851  16.545  11.688  0.0702 -0.0605 -0.1365
 9075W        W29355  13.601   8.020   1.184 -0.3716 -0.2251  0.1699
 9076W        W29356   0.801  15.169   0.732  0.0670  0.1496 -0.1310
 9077W        W29357   9.474  17.662  12.211 -0.0486 -0.0140 -0.0544
 9078W        W29358   7.055  16.874   0.367 -0.1661  0.0457  0.0022
 9079W        W29359   2.388   6.182   4.128  0.0226  0.0755  0.2196
 9080W        W29360  19.664  10.226   3.355  0.1751 -0.5252  0.2395
 9081W        W29361   9.182  13.759  11.546  0.0628  0.4687  0.1279
 9082W        W29362   0.882  19.321   3.693 -0.1717  0.0508 -0.1410
 9083W        W29363  12.189  10.927  13.202 -0.1424  0.1025 -0.2345
 9084W        W29364  10.646  11.991  13.192  0.2436  0.0340 -0.1179
 9085W        W29365  13.804   7.602   1.569  0.0742  0.1846 -0.2432
 9086W        W29366   5.243   0.749  10.855 -0.0237  0.2612 -0.0135
 9087W        W29367  17.888  17.454  11.396  0.0493 -0.0919 -0.2244
 9088W        W29368   0.785  19.849  12.179 -0.0758  0.2454  0.1601
 9089W        W29369  17.261  17.446   2.266  0.1459  0.1871 -0.2029
 9090W        W29370   0.686   2.768  11.027  0.1434  0.1383  0.1028
 9091W        W29371   9.583   6.228  11.115  0.3818  0.2010  0.1778
 9092W        W29372   7.717  12.548  12.043 -0.3108 -0.1466  0.0561
 9093W        W29373   2.375   0.697   3.509  0.0196  0.1926 -0.2548
 9094W        W29374   1.272   2.786   2.750  0.0368  0.0713 -0.3300
 9095W        W29375  16.023   7.647   0.206  0.2197  0.0755  0.0324
 9096W        W29376   6.296   2.229  12.669 -0.0494 -0.2832  0.5722
 9097W        W29377  18.079   6.121   2.094 -0.0966 -0.0688 -0.0336
 9098W        W29378   7.835  11.861   3.005  0.2869  0.2174  0.2029
 9099W        W29379  18.309  14.264   3.062 -0.0867  0.0816  0.0223
 9100W        W29380  11.705   7.161   9.217 -0.1997 -0.1374  0.2423
 9101W        W29381   1.787  17.453  11.267  0.0915  0.3038 -0.3263
 9102W        W29382  18.379   4.828   0.479  0.0338 -0.0405  0.0430
 9103W        W29383   2.162  12.990   0.982 -0.1460 -0.1557  0.0908
 9104W        W29384   3.719   1.790  11.615  0.2110 -0.2546 -0.0232
 9105W        W29385  10.532  10.061   0.961 -0.0770 -0.1244  0.2305
 9106W        W29386  14.318  13.994  13.097  0.2027 -0.2222  0.2607
 9107W        W29387   8.305  17.851  13.698  0.0343  0.1387 -0.0109
 9108W        W29388  19.754  13.813  10.808 -0.0437  0.0105  0.1879
 9109W        W29389  11.969  13.605   3.629 -0.0291  0.2551  0.3019
 9110W        W29390   4.146   9.567  13.470  0.1493 -0.0950  0.0225
 9111W        W29391   8.166   1.461  12.005  0.0120  0.2610 -0.1932
 9112W        W29392  16.138  15.229   0.288 -0.1466 -0.5014  0.0343
 9113W        W29393  19.377   1.142  11.822  0.2476 -0.1413  0.4093
 9114W        W29394  14.181   1.029  11.478  0.1417 -0.2860  0.1576
 9115W        W29395  18.996  19.893   3.348  0.1381  0.2653  0.1864
 9116W        W29396   9.331  15.783   1.117 -0.0067  0.0600 -0.2388
 9117W        W29397   7.231   6.193   1.843  0.2086 -0.1064  0.2464
 9118W        W29398   6.185   0.422  11.005  0.1182 -0.0776  0.5086
 9119W        W29399  12.103  10.248   2.839 -0.1119  0.0549  0.2593
 9120W        W29400   2.279   2.019  11.011  0.0364 -0.0595  0.1236
 9121W        W29401   1.144  12.901   2.479 -0.3953  0.2318  0.0634
 9122W        W29402   1.199   6.116   2.701 -0.1470  0.3039  0.4592
 9123W        W29403  17.969  13.194  12.268  0.0334 -0.1911  0.0342
 9124W        W29404   4.573  14.234   3.877 -0.0221  0.2584  0.0957
 9125W        W29405   4.732   2.444   0.802  0.0035  0.0296 -0.0946
 9126W        W29406  11.296  16.163   4.844 -0.1369 -0.1592  0.0414
 9127W        W29407  10.356  16.224  13.107  0.2970 -0.1586  0.2070
 9128W        W29408  12.956  14.168   1.201  0.3590  0.0716  0.1494
 9129W        W29409   1.852   7.137   3.195 -0.0977 -0.1760  0.0017
 9130W        W29410  18.371   0.572   1.517  0.0963  0.0364  0.2169
 9131W        W29411  16.862  14.686  10.960  0.0838  0.0543 -0.0505
 9132W        W29412   4.500  14.239  11.032 -0.0478  0.1838  0.0760
 9133W        W29413  13.740   7.895   3.215 -0.0561 -0.2702  0.4011
 9134W        W29414  12.772  16.111   3.016 -0.1789  0.1314 -0.4279
 9135W        W29415  18.118   5.176   3.397  0.1012 -0.1990  0.3197
 9136W        W29416   8.416  14.394  11.404 -0.3728  0.4249 -0.3190
 9137W        W29417  19.099  12.399   1.645 -0.2275  0.0925 -0.1178
 9138W        W29418  11.588   5.552   3.078 -0.0278  0.1035 -0.1359
 9139W        W29419  13.804  19.932   1.915 -0.3591  0.0125  0.0373
 9140W        W29420   3.274   0.534  13.125  0.1892 -0.1424 -0.1389
 9141W        W29421  14.220  14.470  13.343 -0.3199  0.0360 -0.0117
 9142W        W29422  17.540  13.205  11.540 -0.0293 -0.1961  0.1517
 9143W        W29423  12.590  15.830   2.661  0.0992  0.2387  0.1018
 9144W        W29424   4.928  18.716   1.888 -0.0661 -0.4103 -0.0100
 9145W        W29425  16.763  19.712  10.649  0.0075 -0.1524  0.1237
 9146W        W29426   5.178   1.358  11.035 -0.1216 -0.1122  0.1048
 9147W        W29427  18.892  17.712  12.354 -0.1990 -0.3247  0.1030
 9148W        W29428  17.724   5.077   1.624  0.3532 -0.1526  0.1241
 9149W        W29429  19.308  16.033  11.242  0.1682 -0.0037  0.0759
 9150W        W29430  18.056  10.728   8.597  0.2505 -0.0263 -0.0055
 9151W        W29431  17.081  14.172  10.881 -0.1905  0.3442  0.0442
 9152W        W29432  16.074   4.694   9.528  0.2644 -0.2290 -0.1330
 9153W        W29433   6.849   8.608   5.074 -0.0607 -0.0504  0.1542
 9154W        W29434   6.116   4.516  11.100  0.0086  0.0990  0.1335
 9155W        W29435   2.412  19.169   5.082  0.0574  0.0493 -0.1681
 9156W        W29436   0.764  12.261  13.787 -0.2043  0.0776 -0.3504
 9157W        W29437   4.538  13.254   2.780  0.5344  0.1761  0.3392
 9158W        W29438  15.188  17.709   0.656 -0.1405 -0.3415  0.0126
 9159W        W29439   3.899  13.226   2.430 -0.2489  0.0978  0.0512
 9160W        W29440   5.316   5.907   5.315  0.0358  0.2740  0.4724
 9161W        W29441  16.403  11.760  10.360  0.1743  0.3443 -0.1897
 9162W        W29442  13.636  12.765  11.229  0.0075  0.0128 -0.3292
 9163W        W29443  12.073  19.276   2.807 -0.1122  0.1234  0.1219
 9164W        W29444  14.947   3.985  12.567 -0.0275 -0.0280  0.0999
 9165W        W29445  19.641  18.238   3.427 -0.0611  0.0762 -0.2188
 9166W        W29446   8.544   9.785   4.255 -0.0983 -0.1666 -0.2086
 9167W        W29447   0.116   6.916   9.589 -0.0833  0.1023 -0.0822
 9168W        W29448   6.645   5.041   2.811  0.0833 -0.0424 -0.1178
 9169W        W29449  16.231  14.495   1.192 -0.2206 -0.0650 -0.2452
 9170W        W29450  14.969  15.123   3.029 -0.2199  0.0253  0.1177
 9171W        W29451   6.299   2.908   1.640  0.0548 -0.1866 -0.0084
 9172W        W29452   6.437   8.222   4.180 -0.3828  0.0535 -0.0774
 9173W        W29453  14.980   3.717   1.263  0.1706  0.4124  0.2243
 9174W        W29454  17.704   1.138  11.035  0.2103  0.1284  0.2130
 9175W        W29455  14.423  18.850  13.245  0.2917 -0.0717  0.3738
 9176W        W29456  14.997  13.378   3.169  0.0149  0.0674  0.0501
 9177W        W29457  19.141   9.979  13.349 -0.0430  0.3325 -0.1984
 9178W        W29458   0.375  13.912  13.605  0.3511  0.0142  0.1916
 9179W        W29459   7.686   3.253   2.776  0.1016 -0.0015  0.1209
 9180W        W29460  14.956  15.812  12.514  0.2447 -0.1430  0.3488
 9181W        W29461   4.503   2.617  10.789  0.0952  0.0210  0.0632
 9182W        W29462   2.710  17.956   1.185 -0.1986 -0.1138 -0.0231
 9183W        W29463   5.592   7.760   0.296  0.0786  0.0791  0.2143
 9184W        W29464   7.434   6.660   1.451 -0.0150 -0.0678 -0.0205
 9185W        W29465  18.153  17.975   0.825  0.2224 -0.3738 -0.2380
 9186W        W29466  11.275  13.604  12.004 -0.1147 -0.0642  0.3017
 9187W        W29467  16.952   4.243   9.499  0.0602  0.0168 -0.2043
 9188W        W29468   2.676  15.286   2.382 -0.0834  0.1090  0.2122
 9189W        W29469  10.516   6.461  11.435  0.0513  0.1463 -0.2112
 9190W        W29470   5.966  13.951   0.299 -0.2204  0.2467  0.0011
 9191W        W29471   1.124   5.795   1.335 -0.0934 -0.0579 -0.1048
 9192W        W29472  14.552  13.118  10.519  0.2330 -0.1766  0.1606
 9193W        W29473   8.859   6.485   1.306  0.2105  0.0052  0.0966
 9194W        W29474  14.814  14.989  13.218  0.2455  0.2506 -0.0800
 9195W        W29475  15.723  11.579   1.459 -0.1974  0.1807 -0.3276
 9196W        W29476  10.597  16.181   2.315 -0.1325 -0.2203  0.0928
 9197W        W29477   6.803   6.830   0.791 -0.0007 -0.0318  0.1386
 9198W        W29478   2.024   0.112  12.912 -0.1485 -0.0119 -0.2858
 9199W        W29479   8.834  11.572  12.024  0.0415 -0.0155  0.0688
 9200W        W29480   2.613   0.814  12.959  0.0269 -0.1786 -0.3126
 9201W        W29481   8.826   2.542  11.341 -0.1684 -0.0346  0.1664
 9202W        W29482   5.723   1.549  13.391  0.1330  0.0807 -0.3565
 9203W        W29483  10.578   9.421  12.442 -0.4799 -0.1552  0.2887
 9204W        W29484  18.609  18.350  13.071  0.1640  0.0103 -0.1699
 9205W        W29485   2.031  17.138   2.217  0.1585 -0.0070 -0.2868
 9206W        W29486  10.578  15.170   3.977  0.5663  0.1196  0.1714
 9207W        W29487  15.279  16.734   0.345 -0.0272  0.1800 -0.0065
 9208W        W29488  13.538   0.711   8.833 -0.1900 -0.0069  0.1532
 9209W        W29489   3.691  17.574  12.823 -0.3090  0.2386 -0.1932
 9210W        W29490   0.884   7.539  12.234  0.2891 -0.2251 -0.3272
 9211W        W29491   8.371   8.355   3.816  0.0353 -0.1481  0.0458
 9212W        W29492   8.738  14.414   2.175  0.1948  0.4065  0.2852
 9213W        W29493  12.140  19.901  13.072 -0.1488 -0.0429 -0.1411
 9214W        W29494  11.891  17.889  10.337 -0.0953 -0.3494 -0.2434
 9215W        W29495  12.340  12.727   0.825  0.2387 -0.2898  0.0775
 9216W        W29496   0.630   3.208   2.567 -0.0101  0.0577  0.1224
 9217W        W29497  12.275  15.565   3.755 -0.1310 -0.0256 -0.0350
 9218W        W29498  17.453   0.556   0.384 -0.2255  0.1171  0.2042
 9219W        W29499  10.731  10.742   9.770  0.0292  0.3687 -0.0203
 9220W        W29500  19.006  16.300   2.276  0.0565 -0.2494 -0.1952
 9221W        W29501  16.246   9.704   2.034  0.1423  0.1894 -0.3157
 9222W        W29502  16.614   6.874   1.274 -0.0363  0.0471 -0.1422
 9223W        W29503  14.386  14.302   2.722 -0.1354  0.0356 -0.3380
 9224W        W29504   7.235  10.478  11.433 -0.0730  0.5420 -0.0142
 9225W        W29505  11.647   6.300   0.578  0.3235  0.1528 -0.0075
 9226W        W29506   2.225  15.483   1.879 -0.0058  0.0672  0.0278
 9227W        W29507  11.556   0.218   1.714 -0.1426  0.0653  0.0233
 9228W        W29508   3.991  13.871   2.549  0.0960 -0.1579 -0.0163
 9229W        W29509  16.964   2.501  12.766 -0.2936  0.0683 -0.0492
 9230W        W29510  13.730   1.412   1.935  0.0453 -0.0351 -0.2515
 9231W        W29511  17.634  13.248   0.425  0.2533 -0.2042 -0.0693
 9232W        W29512   6.436  17.862  13.595 -0.0224 -0.0022 -0.0903
 9233W        W29513   3.597   8.765  10.826 -0.0577  0.1017 -0.0067
 9234W        W29514  12.859   8.805   0.008 -0.2665  0.4249  0.2366
 9235W        W29515   5.379   3.426   1.841 -0.1991 -0.0734 -0.2346
 9236W        W29516   4.599  16.332  12.311 -0.1448 -0.3565  0.3027
 9237W        W29517  16.176  10.261  13.203 -0.1546 -0.0933 -0.2184
 9238W        W29518  10.994  12.543   3.903  0.3319  0.1406  0.1175
 9239W        W29519   6.855  13.242  13.467  0.1394 -0.1909  0.1599
 9240W        W29520  19.223  12.942  12.563 -0.3822 -0.0164  0.1189
 9241W        W29521   8.562   3.973   1.284 -0.2353  0.0661  0.1276
 9242W        W29522   1.544  10.600   0.137 -0.1344 -0.2531  0.1399
 9243W        W29523  19.598   5.442  12.011  0.0105  0.3879  0.0316
 9244W        W29524   4.501   6.611   0.101  0.1542  0.0315 -0.2556
 9245W        W29525  19.767   0.546   0.061 -0.0864 -0.3624 -0.2256
 9246W        W29526   2.902   7.288   9.853  0.3400 -0.2492 -0.5327
 9247W        W29527  17.458   1.326  12.638 -0.1588 -0.3273 -0.3251
 9248W        W29528  14.478   9.322   9.900  0.0412  0.1071  0.1652
 9249W        W29529  19.283   3.121  10.675 -0.0158  0.2404 -0.0850
 9250W        W29530  16.249   9.915  11.825 -0.0278 -0.0688  0.1028
 9251W        W29531  12.715  19.337   0.973 -0.1080 -0.1034 -0.1853
 9252W        W29532   7.225   1.435  11.121  0.0497 -0.3574 -0.0473
 9253W        W29533  12.845  16.906   3.601  0.0654 -0.2264  0.0121
 9254W        W29534  10.929  15.610   9.939 -0.2472  0.1491 -0.1113
 9255W        W29535  15.797  19.713   0.338 -0.1050  0.1847  0.0582
 9256W        W29536   7.420  13.265   9.595 -0.0638  0.0384 -0.2527
 9257W        W29537   0.228  13.122   1.522  0.2176  0.0194  0.1866
 9258W        W29538   4.391   2.019  13.477  0.0384 -0.0102  0.2844
 9259W        W29539  13.962  12.555   2.667  0.3617 -0.0086 -0.0841
 9260W        W29540   2.951  15.015  10.056  0.1454 -0.1045 -0.0390
 9261W        W29541  12.856  16.901  13.027 -0.0145  0.2463  0.0028
 9262W        W29542   7.942   1.205  10.461  0.0553 -0.1380  0.0411
 9263W        W29543   5.380  19.550  11.842  0.1323 -0.1793  0.1229
 9264W        W29544   6.583  18.675  12.441 -0.1037  0.2188  0.1185
 9265W        W29545  15.687  13.779   0.936  0.1855  0.3300 -0.1174
 9266W        W29546   6.784  12.079  10.130  0.0983  0.0500  0.0043
 9267W        W29547   1.144  15.141   1.069 -0.0079  0.1161 -0.1674
 9268W        W29548  18.234   6.983  10.873 -0.4622  0.2972 -0.1610
 9269W        W29549  14.872  19.857  10.919  0.0023  0.4040 -0.2565
 9270W        W29550  19.533  16.419   3.217 -0.1399 -0.0306  0.1587
 9271W        W29551   7.112   4.872   3.637  0.2318  0.1709  0.0918
 9272W        W29552  13.775  13.126  11.970 -0.1950 -0.3405 -0.0358
 9273W        W29553  13.692   8.877  10.924  0.0042  0.2918  0.1478
 9274W        W29554   5.471   2.102  11.542 -0.1108 -0.1873  0.1387
 9275W        W29555   5.614  19.813   0.582 -0.1351 -0.2114 -0.0319
 9276W        W29556   4.613   4.662  11.076 -0.0987  0.3840  0.2433
 9277W        W29557   9.829   0.014  13.846  0.2041  0.1020  0.0866
 9278W        W29558  13.064  15.613   4.217  0.0110  0.1214  0.1300
 9279W        W29559   6.051   0.299   2.992  0.1030 -0.0364  0.0211
 9280W        W29560   8.442  16.484   3.510  0.1436  0.1209  0.0906
 9281W        W29561   0.030   0.385   1.691 -0.2905  0.1548 -0.1361
 9282W        W29562   1.582   0.105   0.805  0.0242 -0.2602  0.1631
 9283W        W29563   7.074   3.706   3.992 -0.2028  0.0327  0.1391
 9284W        W29564  11.530  17.650  13.380  0.0116  0.0124  0.1235
 9285W        W29565   0.853  17.414  12.355  0.0152 -0.3724  0.0607
 9286W        W29566   1.876  14.590  12.845  0.2779 -0.1712  0.0700
 9287W        W29567   0.244  16.805   2.675  0.0717 -0.0325 -0.2257
 9288W        W29568   9.108   9.314  12.449  0.3415 -0.1367 -0.0398
 9289W        W29569   2.994   1.947  11.607  0.0453 -0.1039 -0.4282
 9290W        W29570  14.450  11.058   0.275 -0.1503  0.0691  0.0781
 9291W        W29571   8.161  15.852  11.377 -0.0728  0.0516 -0.0996
 9292W        W29572   1.418   3.152  10.508 -0.2568 -0.4036 -0.0541
 9293W        W29573  17.939  10.707  12.707 -0.1639  0.3160  0.3316
 9294W        W29574  13.495   8.540   2.768  0.2772 -0.0256  0.0208
 9295W        W29575   1.161  11.595  10.752  0.2702  0.2561 -0.0445
 9296W        W29576  18.522   4.263  13.621 -0.2276  0.0163  0.2024
 9297W        W29577   1.521   3.222  11.451  0.1886  0.2890  0.2823
 9298W        W29578   6.170   3.845  11.921 -0.0260 -0.0502 -0.3862
 9299W        W29579  18.847  15.627   2.140  0.0164 -0.0067 -0.1575
 9300W        W29580   5.428  18.826   3.747  0.0796 -0.1809 -0.0039
 9301W        W29581   9.855  17.332   4.830  0.0745  0.0086 -0.2330
 9302W        W29582  19.664  10.437   0.710 -0.0838 -0.2230 -0.1332
 9303W        W29583  13.312  10.131   1.939  0.1139 -0.4021  0.0040
 9304W        W29584  10.095   1.393  11.901  0.1450  0.0365 -0.1877
 9305W        W29585   5.900   2.898   2.525  0.0257 -0.0586  0.0233
 9306W        W29586   5.136  15.063  13.084  0.1599 -0.5208 -0.2558
 9307W        W29587   1.675   0.296   1.240 -0.1342  0.1015  0.2952
 9308W        W29588  16.786  14.929  10.488  0.2669 -0.1035 -0.0756
 9309W        W29589  15.908   9.437  13.549  0.0620 -0.0099  0.0818
 9310W        W29590  14.327  12.892   9.606 -0.0577  0.0092 -0.0777
 9311W        W29591  11.707  14.487   3.534 -0.2159 -0.3229  0.0878
 9312W        W29592   6.068  10.472  13.746 -0.0685  0.0077 -0.0498
 9313W        W29593   6.545   0.765  11.186 -0.0886  0.0392  0.0822
 9314W        W29594  19.042   7.152  11.867  0.2608  0.2474 -0.0002
 9315W        W29595   9.260   5.274  12.859 -0.1557 -0.1248 -0.0660
 9316W        W29596  19.125  15.345   2.521  0.2841 -0.1775 -0.0532
 9317W        W29597  14.621  19.638   1.887  0.3045 -0.0382 -0.2452
 9318W        W29598  12.223   1.225  11.907 -0.0200  0.0157 -0.3214
 9319W        W29599   1.299   7.277  12.340 -0.3229  0.2369  0.1526
 9320W        W29600   8.063   2.825   2.611 -0.2765 -0.4765  0.0736
 9321W        W29601   5.596   6.376   9.814 -0.1543 -0.1975  0.3610
 9322W        W29602   4.882   2.698  12.869  0.0078 -0.0032 -0.2056
 9323W        W29603   2.769   8.672   0.493 -0.0984  0.1593 -0.2528
 9324W        W29604  15.208  16.176  13.565  0.4113 -0.2878  0.0972
 9325W        W29605   4.147  12.867   0.673 -0.2959  0.0770 -0.0275
 9326W        W29606  16.943  14.493  10.427 -0.0760 -0.1869 -0.0834
 9327W        W29607   9.992  16.557  13.018  0.0188 -0.1973  0.0369
 9328W        W29608   4.863   7.960   3.407 -0.1162 -0.3239 -0.0258
 9329W        W29609   1.526   1.810   2.830 -0.0397 -0.0088 -0.0340
 9330W        W29610   9.546   9.147   0.492 -0.2510 -0.0824 -0.2011
 9331W        W29611  15.699   6.574   9.350  0.2285  0.4079 -0.4435
 9332W        W29612  12.558   3.685  13.299 -0.0095  0.1714 -0.2229
 9333W        W29613  11.918  10.572   3.680  0.0277 -0.0630 -0.2182
 9334W        W29614   3.438   6.894   1.065 -0.3008  0.0306 -0.0683
 9335W        W29615  14.066  12.659   2.035  0.2296 -0.1778 -0.0115
 9336W        W29616   2.723  18.559  13.114  0.2555 -0.0868  0.0349
 9337W        W29617  14.454   8.142   1.498 -0.1287  0.0526 -0.4549
 9338W        W29618  13.538  13.069   4.561  0.0699 -0.0408  0.1356
 9339W        W29619   8.660   0.308   3.082 -0.0415  0.0108  0.0355
 9340W        W29620   4.826  14.201   1.755  0.3050 -0.1682 -0.3837
 9341W        W29621  14.078   6.255  11.207 -0.0137  0.0104  0.0301
 9342W        W29622  18.654  16.022   1.249  0.1009  0.0045 -0.2455
 9343W        W29623   0.990  11.331   3.376  0.2406  0.4240 -0.0614
 9344W        W29624  15.377   9.426   0.513  0.2995  0.2027  0.0718
 9345W        W29625  13.001   2.247  13.579 -0.4858 -0.1444 -0.0934
 9346W        W29626   3.941   5.353  13.274 -0.1323 -0.1337  0.3498
 9347W        W29627   8.500   4.286  10.416 -0.0128  0.1577 -0.1398
 9348W        W29628   1.909   9.782   0.179  0.0642 -0.0746  0.0759
 9349W        W29629  11.564  15.173   2.302 -0.3133  0.3330  0.1115
 9350W        W29630  19.097   4.331   1.808  0.0799 -0.4555  0.0784
 9351W        W29631   7.949   2.214  12.062 -0.3323 -0.2642  0.0675
 9352W        W29632  15.917   1.234  13.018  0.1849  0.1432  0.0312
 9353W        W29633   6.378  14.520   1.347 -0.2635 -0.0169  0.3375
 9354W        W29634   7.319  19.014  13.743 -0.1080 -0.3464  0.0486
 9355W        W29635   2.832  11.043  10.088  0.2805 -0.1272  0.2401
 9356W        W29636  15.683  14.678   3.198  0.1598  0.0453 -0.3424
 9357W        W29637  17.691   2.091  10.649 -0.0437  0.0795  0.0224
 9358W        W29638   9.293  19.837  10.282 -0.0990 -0.0615 -0.0721
 9359W        W29639   4.406  13.383   0.724  0.0679 -0.1335 -0.3180
 9360W        W29640   1.396   0.987  11.850  0.0043  0.0159 -0.1292
 9361W        W29641   0.420  19.839   4.211 -0.1601 -0.0014 -0.0200
 9362W        W29642   7.459   1.975   2.502  0.1956 -0.5640  0.1392
 9363W        W29643   8.108  10.310  12.546 -0.3185  0.1119 -0.0918
 9364W        W29644   9.206  11.767  11.713 -0.2102 -0.0950 -0.2224
 9365W        W29645   2.187   6.632  12.269 -0.0166 -0.0885 -0.3019
 9366W        W29646   7.728  15.914   1.648  0.0234 -0.0893 -0.2191
 9367W        W29647  18.818   2.684   1.838 -0.1475 -0.0052  0.1029
 9368W        W29648  15.007   9.358   9.810  0.0311 -0.0650 -0.0525
 9369W        W29649   0.393   6.741  12.868  0.1588  0.3418 -0.0302
 9370W        W29650   8.714   0.272  11.134 -0.3764  0.2123 -0.1618
 9371W        W29651   0.896  14.984  10.725 -0.5487 -0.0082 -0.2069
 9372W        W29652   2.039   9.910  12.483  0.2762  0.0935  0.3411
 9373W        W29653   1.165  16.384   2.409 -0.0673  0.2549 -0.1748
 9374W        W29654   0.914   5.880  11.205  0.1297 -0.2151  0.2572
 9375W        W29655  16.944  12.749  12.021  0.1280  0.0715  0.0388
 9376W        W29656  13.748   3.985   0.004 -0.0961  0.0561  0.0035
 9377W        W29657  13.266  17.376   1.933 -0.3481 -0.3574 -0.0116
 9378W        W29658  12.482   2.023   1.093 -0.0206  0.3774 -0.0372
 9379W        W29659  14.332  15.190   2.333 -0.0686  0.2496  0.1091
 9380W        W29660   8.317  12.438   3.244 -0.0479  0.0970  0.0877
 9381W        W29661   5.405   9.988   0.807  0.1821 -0.1981  0.2111
 9382W        W29662  10.021  17.523   9.188  0.1391  0.2087  0.0448
 9383W        W29663   4.714   4.300   0.193 -0.4879 -0.1406 -0.3172
 9384W        W29664   0.481  14.164  11.028  0.1372 -0.5443 -0.1303
 9385W        W29665  13.080  15.629   0.469  0.0974 -0.1131  0.0688
 9386W        W29666  15.646  12.708  11.838  0.0062  0.2170  0.0304
 9387W        W29667   0.285  16.821   2.104 -0.3072 -0.4668 -0.0650
 9388W        W29668   9.759   6.910  10.253  0.0881 -0.0892  0.0546
 9389W        W29669  12.210   4.886   3.395 -0.3922  0.0124  0.0905
 9390W        W29670  18.607   3.121  11.665  0.3494  0.2922  0.0426
 9391W        W29671  13.474   5.434   0.533  0.0734 -0.0887  0.1376
 9392W        W29672  13.049  12.588   1.349  0.1004 -0.2443 -0.0498
 9393W        W29673   1.447   0.020   1.657 -0.2914 -0.4045 -0.0617
 9394W        W29674  10.971   4.386   0.455  0.0294 -0.1759  0.0421
 9395W        W29675   6.971   8.174  11.851 -0.1807  0.0442  0.0681
 9396W        W29676   2.434   3.789   3.676 -0.1628  0.0050  0.0939
 9397W        W29677  19.233  11.765   2.500 -0.0779 -0.0139 -0.3075
 9398W        W29678  14.181   6.392   1.961  0.4664  0.0888  0.0344
 9399W        W29679  15.167  10.012   0.454 -0.0040 -0.2723 -0.0685
 9400W        W29680  15.554   2.120   9.934  0.4186 -0.0004 -0.1234
 9401W        W29681   4.341   7.621  10.999 -0.0341  0.1531 -0.0405
 9402W        W29682   2.159   9.191   0.578  0.2264  0.0319  0.0200
 9403W        W29683  18.356  14.123  12.886 -0.0124  0.1886 -0.4275
 9404W        W29684   5.808  13.379  13.556  0.1686 -0.3827  0.1554
 9405W        W29685  12.250   9.580   1.372 -0.0072 -0.3386  0.0024
 9406W        W29686   8.608   5.696  13.636 -0.0048  0.2392 -0.1628
 9407W        W29687  12.792   9.144  13.471  0.3627  0.0263  0.2762
 9408W        W29688   4.599   5.344   3.615  0.1055  0.2546  0.0862
 9409W        W29689   9.086  19.927   3.337 -0.1525 -0.0944  0.0512
 9410W        W29690   4.463   5.081  11.827 -0.3204  0.0000  0.0347
 9411W        W29691  15.472  13.218   3.198  0.1168 -0.0389 -0.1316
 9412W        W29692  19.748   4.567  10.238 -0.2032  0.0549  0.1254
 9413W        W29693  19.224  18.571  10.317  0.1838  0.0920 -0.3869
 9414W        W29694  10.238   8.417   1.854 -0.2753  0.0702  0.0960
 9415W        W29695  13.392   3.216   8.848 -0.1612 -0.1083 -0.0802
 9416W        W29696  14.246  13.095   1.869  0.1561 -0.2104 -0.2443
 9417W        W29697  13.010   0.892  13.165  0.0750 -0.0025 -0.3942
 9418W        W29698  12.558  13.547   2.154 -0.0130  0.0514 -0.1744
 9419W        W29699  18.684   8.907   0.750 -0.4148 -0.0192 -0.1916
 9420W        W29700  10.312   0.767  13.436 -0.0184 -0.0251  0.2175
 9421W        W29701  11.349   1.731   1.979  0.1185  0.3083 -0.1124
 9422W        W29702   4.173  14.451   1.192  0.0226  0.2663 -0.2882
 9423W        W29703  11.458   2.077  11.438  0.0393  0.0731 -0.1813
 9424W        W29704   9.668  13.010  12.177  0.1423  0.0714  0.2202
 9425W        W29705   4.515  15.145   1.365 -0.4143 -0.0118 -0.1301
 9426W        W29706   6.187   9.985  10.741  0.0837  0.0708  0.1598
 9427W        W29707  18.172   4.499  12.983  0.1520 -0.0059 -0.0341
 9428W        W29708   3.218  10.189  12.007  0.0407  0.0254  0.1620
 9429W        W29709   6.956   1.135   1.362  0.0415  0.2126 -0.3129
 9430W        W29710  15.986  12.277   2.137  0.0578 -0.0651 -0.1951
 9431W        W29711   8.697  19.618  11.788  0.0240  0.1592 -0.0516
 9432W        W29712  14.168  14.783   2.591  0.3859  0.3834  0.4171
 9433W        W29713   9.858  10.653   1.794  0.1461 -0.1186  0.2075
 9434W        W29714   6.182  13.657  11.739  0.1793 -0.2300 -0.1093
 9435W        W29715  14.054  13.682   1.120 -0.0735 -0.1449  0.2943
 9436W        W29716   3.040  19.449   3.870 -0.3178  0.0811  0.2905
 9437W        W29717   1.557   8.734   3.050  0.1443  0.1073 -0.1524
 9438W        W29718   4.813  16.424   0.690 -0.2659 -0.3644 -0.0943
 9439W        W29719  10.153  19.570   1.587  0.0061  0.2407  0.3428
 9440W        W29720   1.944   4.574  10.810  0.2949  0.0534  0.1446
 9441W        W29721  17.147  19.605  13.387  0.0094  0.2731 -0.2659
 9442W        W29722  17.763  16.440   1.764 -0.0244 -0.1516  0.1900
 9443W        W29723   2.926  17.170  12.526 -0.0607 -0.0728 -0.0370
 9444W        W29724   8.958   6.344   2.388  0.2723  0.2017 -0.1019
 9445W        W29725   9.481  17.883   2.219 -0.1171  0.1002 -0.0857
 9446W        W29726   2.019  11.218  13.451 -0.0991 -0.4804  0.0903
 9447W        W29727  10.221  17.777  12.480  0.0904 -0.1288 -0.1996
 9448W        W29728   5.148  15.273  10.952 -0.1019  0.1068  0.0551
 9449W        W29729  11.901  15.251   0.153 -0.0230  0.2931  0.0427
 9450W        W29730  15.753   1.273  11.348  0.0757 -0.2112  0.0106
 9451W        W29731   3.850  13.275   3.550  0.3520  0.3073 -0.0080
 9452W        W29732  17.469  13.881  11.005 -0.2991  0.0372  0.2675
 9453W        W29733   9.861   3.796   3.346 -0.5266  0.2428 -0.0500
 9454W        W29734  16.288  16.472  13.763  0.2697 -0.0968  0.1583
 9455W        W29735  13.349   2.011  13.858 -0.0166  0.2815  0.2658
 9456W        W29736   2.289  19.308   3.445  0.0895 -0.0544 -0.1507
 9457W        W29737  13.279   9.736   2.892  0.1267 -0.1130 -0.3251
 9458W        W29738   4.202   5.530   2.667 -0.3498  0.0353 -0.0683
 9459W        W29739   7.050   7.611  13.420 -0.2311  0.0701  0.1990
 9460W        W29740  18.645  17.256  10.627 -0.0564 -0.0465 -0.0259
 9461W        W29741   5.339  16.359   4.543 -0.1149  0.0227 -0.3471
 9462W        W29742   8.663  16.675   9.815  0.3525  0.0504  0.0722
 9463W        W29743  15.796  15.126  10.449  0.4237  0.1051 -0.0414
 9464W        W29744   9.133  13.628   0.293 -0.1735  0.1070 -0.3097
 9465W        W29745   2.587  15.872   2.730 -0.5070 -0.1692 -0.2310
 9466W        W29746  18.551   2.449  10.921  0.0546 -0.0145 -0.2581
 9467W        W29747  15.703  14.978   2.266  0.2504  0.4352  0.1016
 9468W        W29748  10.197   5.636  11.025 -0.0309  0.0164 -0.3881
 9469W        W29749   8.412   4.139  13.346 -0.2960  0.1710 -0.0544
 9470W        W29750   4.829  19.710   9.755  0.0329  0.2700  0.1669
 9471W        W29751  17.357   8.025  10.603 -0.2756 -0.1172  0.0792
 9472W        W29752  10.591  12.946   3.694 -0.0586  0.1968 -0.1469
 9473W        W29753  10.947   5.563   2.452 -0.0114  0.0686  0.1552
 9474W        W29754  10.923  10.393  12.092  0.1864  0.0232 -0.0401
 9475W        W29755  13.399   3.802  10.045  0.0741  0.1779 -0.0606
 9476W        W29756   4.484   5.174  12.419 -0.0078  0.0251 -0.0001
 9477W        W29757  12.226  11.966  13.530 -0.2634 -0.0051 -0.3036
 9478W        W29758   9.051  14.969   1.645  0.1482  0.2425  0.2729
 9479W        W29759   1.228  19.583   3.390 -0.4265 -0.0854 -0.2228
 9480W        W29760   7.774   7.445   1.460  0.0743 -0.1560  0.0746
 9481W        W29761  13.261  18.759   2.185 -0.0898  0.0485 -0.2699
 9482W        W29762  11.859   6.346   1.490  0.0981 -0.2093 -0.1799
 9483W        W29763  17.653  13.542  11.930 -0.1017  0.1736  0.2475
 9484W        W29764  18.320   0.668   0.607  0.2425 -0.1259 -0.0458
 9485W        W29765  18.176  19.923  13.147 -0.1502  0.0896  0.0452
 9486W        W29766  12.702   3.458  12.799  0.1225  0.1890 -0.3627
 9487W        W29767   1.969  17.508   0.693 -0.2626  0.1261  0.3171
 9488W        W29768   9.083  10.511   3.145  0.1539 -0.0448 -0.0996
 9489W        W29769  14.218  12.096   0.112  0.1750 -0.0320 -0.2724
 9490W        W29770  11.509   5.035   2.874 -0.0036  0.0677  0.0852
 9491W        W29771   7.490   8.246   2.858  0.0819  0.2854  0.0532
 9492W        W29772  11.539  16.281  13.136  0.3613  0.4499  0.0209
 9493W        W29773  17.651  18.381   1.517  0.1049  0.2490 -0.0640
 9494W        W29774   2.296   2.549  10.761  0.0883 -0.2749 -0.3217
 9495W        W29775   4.239   1.639   0.836  0.3993  0.2353  0.0389
 9496W        W29776  13.536  13.848  11.216  0.1530 -0.1245  0.0857
 9497W        W29777   9.587   2.567   1.621 -0.0741 -0.3899  0.0912
 9498W        W29778   2.366  17.543  11.956 -0.1742  0.2919 -0.0010
 9499W        W29779  11.568  13.621   1.521  0.2931 -0.0467  0.2804
 9500W        W29780  11.995  15.960  10.775  0.4505 -0.2525  0.2292
 9501W        W29781   4.728   0.633   2.347 -0.1524 -0.1628 -0.3206
 9502W        W29782   0.350   6.780  13.619 -0.1183  0.1214  0.1983
 9503W        W29783   1.201  18.603  13.663 -0.1782 -0.0295  0.1287
 9504W        W29784   1.135   6.395   2.224  0.2384 -0.1565  0.3008
 9505W        W29785   0.318   0.799  11.525  0.0074 -0.0050 -0.2701
 9506W        W29786  18.062  10.108  11.227 -0.2024 -0.3008  0.2125
 9507W        W29787  17.275  10.814   3.315 -0.2453 -0.3301 -0.0422
 9508W        W29788   4.502  13.878   9.478  0.1165  0.0981 -0.0345
 9509W        W29789   6.249   7.011   2.953  0.1976 -0.1791  0.1742
 9510W        W29790  16.567  10.750  11.695  0.3173  0.1267  0.1817
 9511W        W29791  16.108   7.320  12.331  0.0745 -0.1149 -0.1608
 9512W        W29792  15.377  10.949   1.967 -0.1112  0.0394  0.0989
 9513W        W29793   1.384  10.702  10.929  0.0580  0.2090 -0.0364
 9514W        W29794   3.745   7.031  13.613 -0.0179 -0.0878  0.1400
 9515W        W29795   5.886   6.201   2.657  0.1427  0.0873  0.0816
 9516W        W29796   2.412   7.125   9.816  0.1733 -0.1290  0.3008
 9517W        W29797   7.215   2.162  13.402 -0.1930  0.2147 -0.0580
 9518W        W29798   3.037  19.854   1.315  0.0801  0.3474 -0.2891
 9519W        W29799   2.685  17.431   3.629  0.1610  0.1610  0.0423
 9520W        W29800   0.416   9.566   4.837 -0.1788 -0.0692 -0.2627
 9521W        W29801   9.681  17.439  13.127  0.5269 -0.1057 -0.2017
 9522W        W29802  11.965  13.414  12.588 -0.0752  0.1465 -0.3596
 9523W        W29803   9.103  16.122  10.897 -0.0028 -0.0620 -0.1988
 9524W        W29804   2.484   7.863  13.619 -0.0676 -0.2393  0.1152
 9525W        W29805   2.451   9.854  13.333 -0.0916 -0.1239 -0.1639
 9526W        W29806  16.417   2.919   9.171  0.3683 -0.1678 -0.0077
 9527W        W29807  12.907   7.822   2.954  0.2786  0.0095  0.0010
 9528W        W29808   9.162  11.351   3.342  0.0345  0.0938  0.0556
 9529W        W29809  19.470  12.707   4.600 -0.0282 -0.0417  0.1967
 9530W        W29810   6.921  13.529  10.398  0.0016  0.1728  0.0804
 9531W        W29811  19.061   2.592  13.521 -0.1684 -0.1129  0.2432
 9532W        W29812   4.239  18.699  11.330 -0.1662  0.0023 -0.3848
 9533W        W29813   5.957   6.171   5.226 -0.1217 -0.3285  0.2203
 9534W        W29814   1.002   0.875   2.288  0.4162 -0.0728 -0.0450
 9535W        W29815   6.942  17.714   3.635  0.0362 -0.1786 -0.0526
 9536W        W29816   8.540   6.298  11.898 -0.0333 -0.3359  0.1363
 9537W        W29817  15.463   2.970   1.311 -0.0608 -0.0492 -0.1447
 9538W        W29818   4.666   1.349  11.501 -0.0976 -0.1316  0.0918
 9539W        W29819  19.263   5.881   3.182 -0.2068 -0.0983  0.0172
 9540W        W29820   4.342   3.105  13.525  0.0741  0.1603  0.2714
 9541W        W29821  14.206   3.154  12.782  0.2345 -0.2180 -0.2240
 9542W        W29822   5.670  19.788   2.620  0.0427  0.0387 -0.0782
 9543W        W29823   2.665  10.662   2.206  0.1564  0.0488  0.0193
 9544W        W29824  16.045  13.016  10.304  0.0178  0.3739  0.0706
 9545W        W29825   4.386   2.148   3.572  0.1593 -0.4019  0.2520
 9546W        W29826   2.721  17.171   1.125 -0.0823  0.2598 -0.0370
 9547W        W29827   4.496  18.382  12.091 -0.2188  0.2027 -0.1825
 9548W        W29828  17.032   8.736  12.301  0.0729 -0.2228 -0.1421
 9549W        W29829   0.959  14.173   3.252  0.3497 -0.1315 -0.3743
 9550W        W29830  13.072   7.541   0.157  0.1264  0.1451  0.0428
 9551W        W29831   0.765  14.828   2.522 -0.3266  0.2006  0.0307
 9552W        W29832   3.007  18.985   4.003 -0.2464  0.3526 -0.1087
 9553W        W29833   0.166   4.567   2.237 -0.3669  0.3653  0.1209
 9554W        W29834  19.138   3.626  13.622 -0.1375  0.0985  0.2359
 9555W        W29835   8.070  16.493   3.830  0.1392 -0.0716 -0.1654
 9556W        W29836  18.644   2.604  13.166 -0.0667  0.4248  0.0153
 9557W        W29837  11.193   0.741  12.726  0.2325  0.0897 -0.2227
 9558W        W29838  17.853  17.424   0.399  0.2226  0.1588 -0.0739
 9559W        W29839  12.583   7.344  12.860 -0.2103  0.4195 -0.0063
 9560W        W29840   5.545  13.244   1.607  0.4962  0.3016 -0.2002
 9561W        W29841   2.914   1.310   1.491  0.2262  0.1634  0.1544
 9562W        W29842   5.887  12.057   3.082 -0.0413 -0.2029 -0.1852
 9563W        W29843  16.883   3.987  10.213  0.0113 -0.4999 -0.0228
 9564W        W29844   8.886  11.800   0.738  0.3178 -0.0070 -0.0542
 9565W        W29845   7.943  14.629   1.565 -0.0770  0.2244  0.1248
 9566W        W29846   8.821  12.230   2.030  0.1054 -0.2784 -0.2550
 9567W        W29847   6.050  13.404   3.222 -0.2273 -0.0771  0.1107
 9568W        W29848  10.866  10.763  12.536 -0.3159  0.1399  0.2153
 9569W        W29849  18.316  17.244   1.603 -0.0029 -0.1115 -0.1529
 9570W        W29850  12.938  14.556   0.931  0.1602  0.0581  0.0816
 9571W        W29851   9.011   8.141   1.641  0.0270  0.1726 -0.0004
 9572W        W29852   1.108   9.923  13.726  0.3375 -0.2570  0.1871
 9573W        W29853   1.650  11.705   3.708  0.1647  0.0065  0.3918
 9574W        W29854   1.745  14.949  13.280 -0.2482  0.0050  0.0671
 9575W        W29855  10.416   8.701   3.587 -0.0282 -0.2368 -0.0358
 9576W        W29856   9.692  11.846  12.978 -0.0460 -0.0570 -0.1765
 9577W        W29857   5.119   1.112   1.172 -0.0309 -0.0925  0.0808
 9578W        W29858   6.546  14.047  12.605  0.2302  0.2055 -0.4715
 9579W        W29859   2.117  17.147  10.718  0.1066  0.0173  0.0061
 9580W        W29860   5.015  13.235   3.777 -0.0005  0.2489 -0.0397
 9581W        W29861   2.825  13.118  11.877 -0.1872  0.1130  0.0767
 9582W        W29862   8.802  17.946  13.537 -0.0214 -0.0314 -0.1611
 9583W        W29863   6.822  16.041   3.782 -0.0974 -0.2100 -0.2207
 9584W        W29864  13.471   1.553  12.569 -0.1896 -0.0776 -0.0349
 9585W        W29865  14.457   0.977  10.973  0.1685  0.2868 -0.0068
 9586W        W29866   4.639  10.702  13.673  0.0839  0.4065 -0.0951
 9587W        W29867  17.736   5.693  11.258 -0.3036  0.1686 -0.1183
 9588W        W29868  13.543  17.697  11.822  0.2373 -0.0449  0.4057
 9589W        W29869  18.953  10.235   0.073 -0.2021 -0.0233  0.2672
 9590W        W29870  17.339   1.297   9.173 -0.2358  0.0567 -0.0406
 9591W        W29871  10.787   2.083   0.268  0.1389 -0.3558 -0.1717
 9592W        W29872   7.907  19.168   3.283  0.0988  0.1824  0.0783
 9593W        W29873   1.983  11.328   0.350 -0.2307 -0.4775 -0.1348
 9594W        W29874  19.248  10.121   0.507  0.1252 -0.0663  0.1513
 9595W        W29875  16.246   5.591  12.188  0.1223 -0.1077 -0.2350
 9596W        W29876   8.179  18.192  10.171  0.1515 -0.1927  0.1834
 9597W        W29877  15.429   3.915  11.822  0.3695 -0.0283 -0.1498
 9598W        W29878  13.455  19.889   2.395 -0.1844 -0.1647  0.1484
 9599W        W29879   5.424   1.509   3.728 -0.0792 -0.0056 -0.1762
 9600W        W29880  16.910   0.184  10.336  0.2106  0.1995  0.1037
 9601W        W29881   6.623   4.908   1.655  0.1502  0.0784 -0.0931
 9602W        W29882  19.084  13.586  11.460  0.1244  0.1553 -0.0101
 9603W        W29883  19.319   3.520   9.774  0.1015 -0.0262 -0.3650
 9604W        W29884  13.688   4.928   1.875  0.1033  0.1411  0.2825
 9605W        W29885  14.650   4.094  11.244 -0.1677  0.1334  0.0703
 9606W        W29886  16.701   2.404   2.022  0.0796 -0.1067 -0.0738
 9607W        W29887   6.060  16.474  10.319  0.0960 -0.1985  0.0821
 9608W        W29888   1.469   9.316   3.766  0.0910 -0.1079  0.2664
 9609W        W29889   9.927  14.069  13.105 -0.0733  0.3348  0.0329
 9610W        W29890   3.620  12.234   3.113  0.0105 -0.0208 -0.1050
 9611W        W29891   9.885  13.814   2.233 -0.1747  0.1810  0.0891
 9612W        W29892  10.837  12.397   0.795  0.0140  0.0936  0.1251
 9613W        W29893   3.600  12.721   3.945 -0.0661  0.1757  0.0230
 9614W        W29894  18.099   5.101  13.638  0.0326 -0.1187 -0.0742
 9615W        W29895   2.008   3.262   1.525 -0.3785 -0.0886  0.0395
 9616W        W29896   7.447  16.477  10.228 -0.2297 -0.4495  0.1484
 9617W        W29897   4.233   8.672  13.694 -0.5894 -0.0177  0.1080
 9618W        W29898   2.884  15.187   0.556  0.0031  0.1419  0.0580
 9619W        W29899   6.945  19.780   3.580  0.1642 -0.0064 -0.2659
 9620W        W29900  17.742  14.115   2.429 -0.2447  0.0952 -0.1213
 9621W        W29901  18.141   1.267  11.247  0.2844  0.0104  0.0434
 9622W        W29902  16.090   2.169   2.820 -0.2099 -0.0119  0.3413
 9623W        W29903   6.516  15.202  11.424 -0.0527 -0.2651  0.2516
 9624W        W29904   8.114   5.996  11.096  0.1153  0.0818  0.0823
 9625W        W29905  17.824  16.173   0.729 -0.0543 -0.2821  0.1971
 9626W        W29906   4.593  13.764   0.470  0.3268 -0.0692  0.2344
 9627W        W29907   8.153  16.427  11.156 -0.1217 -0.0619  0.2198
 9628W        W29908   1.735   9.044   0.747 -0.0207  0.1127 -0.1403
 9629W        W29909  11.932  14.627   1.624 -0.3150 -0.1765 -0.0019
 9630W        W29910  12.704  12.555  11.560  0.1067 -0.1300  0.0044
 9631W        W29911  16.896  18.108  11.008  0.3503  0.2871 -0.0041
 9632W        W29912   5.985  13.519   1.547 -0.1204  0.0759  0.1880
 9633W        W29913  19.521   9.787   0.870 -0.0152  0.3664 -0.0319
 9634W        W29914  13.324   2.904   1.896  0.2047  0.0214 -0.0071
 9635W        W29915   7.913   1.170   0.353 -0.3735  0.1783 -0.2095
 9636W        W29916   1.288  17.604   9.670  0.1331 -0.3594  0.2214
 9637W        W29917   6.592  13.646   2.437  0.1329 -0.0447  0.0313
 9638W        W29918  15.765   1.829   0.754 -0.0356  0.1297  0.1642
 9639W        W29919   4.508  12.898  10.740  0.3052 -0.0039  0.2031
 9640W        W29920   5.217   3.163  13.628  0.1169 -0.2263  0.0004
 9641W        W29921  19.751  16.655   2.433  0.1301  0.2072 -0.1707
 9642W        W29922  12.213   0.132   1.922  0.1902 -0.0532 -0.1744
 9643W        W29923   1.446  10.671  13.272 -0.3497  0.2288 -0.1351
 9644W        W29924  14.100   0.149   4.400 -0.3078  0.0722  0.0969
 9645W        W29925   6.708  19.127  12.421  0.1786 -0.1796  0.1682
 9646W        W29926  16.065   2.384   0.161 -0.0127 -0.2984  0.1398
 9647W        W29927  11.633  12.228  13.121  0.1485 -0.0094 -0.1936
 9648W        W29928   2.302   7.476   2.361 -0.1400 -0.0067 -0.2585
 9649W        W29929  18.689   5.861  12.022  0.1920 -0.2257 -0.0369
 9650W        W29930   2.804  14.931   3.390  0.0248  0.0799 -0.1050
 9651W        W29931   5.618  18.902  12.549  0.2653 -0.0255 -0.0999
 9652W        W29932   7.266   0.325  10.973 -0.1242  0.0141  0.0147
 9653W        W29933   7.650  14.905  12.845 -0.1069  0.1756  0.2514
 9654W        W29934   4.083  14.445  12.591  0.0574  0.0172 -0.0147
 9655W        W29935  14.430  18.063   0.939 -0.1286 -0.0782 -0.3074
 9656W        W29936  15.942  16.318  10.048  0.1943 -0.1608  0.1492
 9657W        W29937   3.710   6.036   2.017 -0.4471  0.1023  0.0958
 9658W        W29938  15.221  15.324  13.041 -0.1134  0.1208 -0.0036
 9659W        W29939   9.143   3.581  10.517  0.1924 -0.1458  0.1072
 9660W        W29940   3.007   9.899   3.338 -0.0671  0.1366  0.0125
 9661W        W29941  11.160  13.933  12.370  0.2433 -0.1997  0.0882
 9662W        W29942   5.284   2.469   2.785  0.5355 -0.0274 -0.3217
 9663W        W29943   1.748   8.501   2.123 -0.2787  0.1644  0.0934
 9664W        W29944   0.334  13.693  11.029 -0.2244  0.0747  0.2386
 9665W        W29945   3.431  17.509   4.169  0.1341 -0.3049  0.1348
 9666W        W29946   3.640  16.064  12.283 -0.3818 -0.0358 -0.2478
 9667W        W29947   6.429   6.192  11.012 -0.0178  0.1340  0.1482
 9668W        W29948  10.666  19.181   1.191 -0.0181 -0.2098  0.2246
 9669W        W29949  12.216   2.440   1.227  0.2070 -0.2171 -0.0472
 9670W        W29950  19.645  16.893   0.798  0.2350  0.0922  0.1777
 9671W        W29951  13.928   5.068   4.413 -0.0941 -0.0853  0.0022
 9672W        W29952   1.838  15.286  11.023 -0.0482 -0.2390 -0.5223
 9673W        W29953   7.607  17.324   4.638 -0.2580 -0.2977 -0.0676
 9674W        W29954   8.673  13.345   2.351 -0.0021 -0.0958  0.0201
 9675W        W29955   7.737   5.601   1.291  0.3716  0.0721  0.0580
 9676W        W29956   3.052  19.181  10.684 -0.2813  0.1396  0.0860
 9677W        W29957   2.632   0.795   2.262  0.1250  0.0441 -0.2924
 9678W        W29958   1.171  12.077  13.179  0.0386 -0.1065 -0.3014
 9679W        W29959  19.450   9.266  10.867 -0.1820 -0.2550 -0.0633
 9680W        W29960   5.828   5.962   1.038 -0.2663 -0.0694 -0.0039
 9681W        W29961   7.918  12.233   4.118 -0.0753 -0.0190  0.1735
 9682W        W29962  15.879  15.724   9.797  0.2053 -0.1088  0.2726
 9683W        W29963  16.429  16.282  11.737  0.0679 -0.0773 -0.3524
 9684W        W29964   8.199  13.622  11.773  0.0353 -0.0816  0.0295
 9685W        W29965   7.340  19.113  11.654 -0.1442  0.0599 -0.1120
 9686W        W29966  17.919  12.693   3.654 -0.0199  0.2004  0.1108
 9687W        W29967   1.900  13.386   0.202 -0.2195 -0.3010  0.1589
 9688W        W29968  10.553  17.130  11.945  0.0533 -0.1927 -0.0496
 9689W        W29969  19.501  19.566   0.370 -0.0080  0.1011  0.4212
 9690W        W29970   4.393  10.174   4.105  0.5653  0.0202  0.1229
 9691W        W29971  19.227   5.346  13.689  0.1416 -0.1783  0.2255
 9692W        W29972  13.087   2.387   1.456  0.0395 -0.1658  0.0199
 9693W        W29973   1.016  10.666  10.505 -0.1394  0.0173 -0.2316
 9694W        W29974   9.353   9.148   2.553 -0.1175  0.3139 -0.1866
 9695W        W29975  10.624   5.026  11.094  0.2374 -0.1563  0.2306
 9696W        W29976   1.442   4.951   9.980  0.2415 -0.2240 -0.0887
 9697W        W29977  12.744   1.092  12.822  0.0845 -0.1091  0.0821
 9698W        W29978   0.997   3.077  10.784  0.0128  0.1459 -0.0345
 9699W        W29979  19.653  19.615  12.243  0.2937 -0.2730 -0.2694
 9700W        W29980   2.625  13.996  11.978  0.0590  0.2049  0.1121
 9701W        W29981  12.150   3.184  10.906  0.3204  0.2251 -0.2089
 9702W        W29982  18.059  14.496  13.172 -0.1587  0.0111 -0.1091
 9703W        W29983  17.514   3.162   9.063 -0.1211  0.1625  0.2585
 9704W        W29984   6.013   1.819  13.060  0.1320  0.1007  0.1134
 9705W        W29985  14.945  13.868  12.075 -0.0351 -0.3637  0.0897
 9706W        W29986  14.377   4.812   0.613  0.0187  0.1262  0.2149
 9707W        W29987   9.411  14.080   1.264  0.1328  0.0442 -0.0054
 9708W        W29988  17.018   8.029   2.288 -0.1058  0.1428  0.0754
 9709W        W29989   0.389   6.325   3.125  0.0687  0.0176  0.1802
 9710W        W29990  13.274   8.454   1.870  0.1604 -0.1123 -0.1279
 9711W        W29991   4.884  11.499   2.791  0.1440  0.0205 -0.1134
 9712W        W29992  19.407   9.005   9.438 -0.1300  0.2303 -0.2063
 9713W        W29993  16.990   2.864   0.303  0.0454 -0.0137  0.1242
 9714W        W29994   1.158   1.294   0.873 -0.0049 -0.0095 -0.1777
 9715W        W29995  17.999  12.902   0.667 -0.4583 -0.0862 -0.1925
 9716W        W29996  17.261   4.776  12.706  0.1997  0.4770  0.0387
 9717W        W29997   7.108   1.650   3.951 -0.0396 -0.0351  0.1042
 9718W        W29998  18.987  15.964  10.786  0.1310 -0.1424 -0.0411
 9719W        W29999  15.309   5.676  11.553  0.4085 -0.1088 -0.0854
 9720W        W30000   4.264   4.576   2.958 -0.2257  0.0187  0.3614
 9721W        W30001  18.199   5.804  12.049 -0.0162 -0.0160 -0.0488
 9722W        W30002   9.694  17.072  13.616  0.1496  0.0213  0.3687
 9723W        W30003   9.526  11.339  12.860 -0.1219  0.1549 -0.1154
 9724W        W30004   2.596   9.262  12.700  0.0922  0.0424  0.0605
 9725W        W30005   0.601  17.514   1.091  0.4269 -0.1513  0.0851
 9726W        W30006   2.715  18.626   3.820  0.1304  0.1024  0.0827
 9727W        W30007   0.926  12.015  10.417 -0.0367 -0.0093  0.1464
 9728W        W30008  17.082   5.546   2.937 -0.0949 -0.0792  0.0943
 9729W        W30009  18.645  15.557   3.115 -0.0201  0.4532  0.1249
 9730W        W30010  19.487   7.224  10.846 -0.2423 -0.3908 -0.2512
 9731W        W30011   9.076   0.322  12.545 -0.0959  0.0837 -0.0732
 9732W        W30012  15.563   0.533  13.744 -0.0081 -0.0711 -0.3133
 9733W        W30013  18.911  14.632   1.079 -0.1554  0.2448 -0.3630
 9734W        W30014   9.070   1.300  12.744  0.1201  0.1076  0.1042
 9735W        W30015  11.221  16.380   3.401  0.2033 -0.0476 -0.0280
 9736W        W30016  15.356  17.676   2.582 -0.0708 -0.0662 -0.0857
 9737W        W30017  13.144   8.362  12.132  0.1007 -0.0726  0.1518
 9738W        W30018  11.678  17.638  11.642 -0.0742  0.1272  0.2266
 9739W        W30019   7.253  18.544   2.022 -0.2438  0.1337 -0.0310
 9740W        W30020   6.110  12.296   3.938  0.0289 -0.1561 -0.0988
 9741W        W30021  16.801  14.133   2.207  0.3296 -0.2667  0.3357
 9742W        W30022   1.200  10.842  10.063  0.1468  0.0754  0.1659
 9743W        W30023   9.309   1.125  11.610 -0.1614 -0.1565 -0.0766
 9744W        W30024  16.218   7.122   1.415 -0.0466  0.3820  0.1228
 9745W        W30025  18.125  11.959   1.062 -0.0247  0.0912 -0.1596
 9746W        W30026  10.231  14.009  11.874  0.0257  0.0712  0.1616
 9747W        W30027   4.220  12.720  12.353  0.0710 -0.1864  0.0769
 9748W        W30028   7.276   5.992   0.709 -0.0746  0.0757  0.0430
 9749W        W30029   0.420  17.611  12.531  0.1318 -0.0090  0.0664
 9750W        W30030  12.209  10.298   1.799 -0.0755 -0.1209 -0.1180
 9751W        W30031   9.856  16.864   3.923 -0.1859 -0.0036 -0.2355
 9752W        W30032   9.017  10.643   4.546  0.1056  0.2926 -0.0625
 9753W        W30033   3.720  10.804   0.399 -0.1013 -0.0521  0.1006
 9754W        W30034  11.279   5.807  13.628  0.0285  0.3896  0.1500
 9755W        W30035  19.365  16.232   1.100 -0.2472 -0.1009  0.3484
 9756W        W30036  16.136  11.068   0.282 -0.1799  0.0482  0.2257
 9757W        W30037  18.312  16.209   4.281 -0.2780  0.3145 -0.1896
 9758W        W30038   3.867  12.131  10.798 -0.1654 -0.0519  0.1094
 9759W        W30039   4.639  16.053   3.230  0.1019 -0.0115  0.3656
 9760W        W30040  13.702   5.557  10.749 -0.0420 -0.0763 -0.0816
 9761W        W30041  18.278   2.201   0.162 -0.4947  0.0814 -0.2524
 9762W        W30042   8.387   5.238   3.969  0.4196 -0.1770 -0.0070
 9763W        W30043   1.677   9.854   1.494 -0.2714  0.0279  0.1617
 9764W        W30044   9.728   6.338   1.804  0.1108  0.1597  0.1887
 9765W        W30045  16.517  14.032  12.584 -0.0347 -0.1440 -0.0371
 9766W        W30046  16.651   4.245  11.920  0.0322 -0.2547  0.3376
 9767W        W30047   0.006   5.199   3.187 -0.0560 -0.1324  0.0057
 9768W        W30048  18.379   7.841   1.713 -0.1415 -0.2139 -0.1839
 9769W        W30049  13.050   2.506   3.075 -0.3519 -0.1563  0.2476
 9770W        W30050   6.482  13.714   1.538  0.0837  0.2771 -0.4598
 9771W        W30051  17.926   4.042   3.974  0.1508  0.3793 -0.1911
 9772W        W30052   9.371  14.631  11.731 -0.2917  0.1153  0.1405
 9773W        W30053   2.063   7.203   4.296  0.2759  0.1791  0.1285
 9774W        W30054   1.438   3.835   3.000 -0.1031 -0.1613 -0.1458
 9775W        W30055   3.647  11.747  11.652  0.0465  0.0207 -0.1711
 9776W        W30056  10.785   7.863   3.787 -0.1413 -0.0381 -0.3144
 9777W        W30057  11.840   8.883   1.789 -0.0870 -0.1705  0.0496
 9778W        W30058  12.514   0.701  13.054 -0.2113 -0.2858  0.1219
 9779W        W30059  11.416   9.088  11.043 -0.0700 -0.0924 -0.2622
 9780W        W30060   2.117   4.952  11.187 -0.1921  0.0222 -0.0583
 9781W        W30061   9.347  19.385  12.631  0.0094 -0.0830 -0.0532
 9782W        W30062   9.841   1.442   0.720 -0.0691 -0.0442  0.0237
 9783W        W30063   9.362  13.778   3.401  0.4027 -0.1421 -0.0488
 9784W        W30064  12.538   0.751  13.538  0.3225 -0.0024 -0.1751
 9785W        W30065  11.631  17.879  12.858  0.0364 -0.0448  0.1857
 9786W        W30066  15.063  14.401   1.624 -0.0643  0.1172  0.3482
 9787W        W30067  18.758   1.848   9.703 -0.0116 -0.1285  0.0042
 9788W        W30068   4.919  13.939   0.204  0.1466 -0.0617 -0.1610
 9789W        W30069   4.949  18.580   5.180 -0.1406  0.0128  0.1178
 9790W        W30070   9.847  17.194  12.018  0.1833 -0.1669 -0.3538
 9791W        W30071   2.269  10.875   2.365  0.0407 -0.5330 -0.0377
 9792W        W30072  11.621   3.303  10.324  0.0150 -0.0007  0.0159
 9793W        W30073   2.680   7.650   0.245 -0.3144 -0.0173 -0.4042
 9794W        W30074   0.982   4.454  12.808  0.1069 -0.0624  0.3250
 9795W        W30075  14.363  17.390  12.395  0.0550 -0.0837  0.2720
 9796W        W30076   7.136   8.605   0.926 -0.0358  0.0743  0.1708
 9797W        W30077   1.603  19.876  12.690  0.0563  0.1063 -0.1307
 9798W        W30078  19.075  11.832   1.995  0.0975  0.2067 -0.1264
 9799W        W30079  10.892  12.260  12.014 -0.4251  0.0902  0.1793
 9800W        W30080   0.363  13.723   9.570 -0.1237  0.3508 -0.0056
 9801W        W30081  16.953   7.441   2.727  0.0541  0.2143  0.0951
 9802W        W30082  15.216   3.955   3.485 -0.0068  0.2291 -0.0372
 9803W        W30083   0.733  18.366  11.986  0.2711 -0.0080  0.3027
 9804W        W30084  12.247  11.887   0.615  0.3103  0.1372  0.1191
 9805W        W30085  11.028   5.891   0.260  0.0985  0.1327  0.0564
 9806W        W30086  12.285  13.669  11.519  0.0846 -0.0883  0.0087
 9807W        W30087  17.656   4.354  12.441  0.1508  0.3403  0.1067
 9808W        W30088   1.830  14.611   0.866  0.1611 -0.1464 -0.0084
 9809W        W30089  18.620   8.220   2.512 -0.3239 -0.0580 -0.2567
 9810W        W30090  19.806  10.747   9.967 -0.1018  0.0355  0.1576
 9811W        W30091  19.688  17.000   0.031  0.1122  0.2719 -0.0240
 9812W        W30092  10.465  10.491  12.376  0.0232 -0.1741  0.5609
 9813W        W30093  18.963  14.575  10.499 -0.0628 -0.1336  0.1776
 9814W        W30094  16.567   7.062  10.171 -0.1582  0.1521  0.1027
 9815W        W30095   7.263  19.790   3.964  0.0111  0.1450 -0.0295
 9816W        W30096  14.882   2.426   1.902  0.1979  0.0887  0.2067
 9817W        W30097   2.869   1.429   0.147 -0.0961  0.3039 -0.2237
 9818W        W30098   3.052   5.576  13.420  0.0601  0.1677  0.4701
 9819W        W30099  11.857  12.970  13.437 -0.1804  0.0319 -0.3408
 9820W        W30100  15.252  18.630   2.359 -0.0687 -0.3959  0.0309
 9821W        W30101  11.478  19.649   1.749 -0.0590 -0.1670  0.1109
 9822W        W30102   2.964  18.596   1.762 -0.1404  0.0861  0.0241
 9823W        W30103  18.579   6.090   2.250  0.1448 -0.3752 -0.2959
 9824W        W30104   0.435  13.947   2.279 -0.2327  0.2564 -0.3545
 9825W        W30105   4.891   6.700   1.562 -0.0338 -0.0278  0.0848
 9826W        W30106   6.772  10.121   1.013 -0.0768  0.4706  0.0038
 9827W        W30107   0.729  14.226   0.734  0.0364 -0.0081 -0.4106
 9828W        W30108   5.277  10.665  11.067 -0.2150  0.3319 -0.0851
 9829W        W30109   9.675  14.917   3.565  0.0502 -0.0616 -0.1622
 9830W        W30110   5.236  10.783  12.847 -0.2022 -0.0165 -0.0068
 9831W        W30111  14.747  14.230   0.830  0.1813  0.0055  0.1149
 9832W        W30112   6.966   5.768   2.002  0.3026  0.0002  0.1621
 9833W        W30113  17.778  17.345  11.919 -0.0349  0.1663 -0.2339
 9834W        W30114   4.803  13.693   1.580 -0.0633 -0.3244  0.0349
 9835W        W30115   9.258  16.730  12.674  0.3684  0.0856  0.1747
 9836W        W30116   0.336  18.011   9.919 -0.3191 -0.0034 -0.5149
 9837W        W30117  11.698  13.275  12.069  0.0443  0.0190 -0.0999
 9838W        W30118  12.586  15.349  11.265 -0.0409  0.1146 -0.1769
 9839W        W30119   1.890  13.276  11.881 -0.3554 -0.2778  0.0841
 9840W        W30120   2.333   4.626  12.097 -0.1471 -0.0405 -0.1051
 9841W        W30121  15.904   5.007   0.219  0.1509  0.2540  0.0018
 9842W        W30122   5.496  12.716  13.090 -0.2056  0.0842  0.0178
 9843W        W30123   2.846  16.541  13.193  0.0411 -0.2143 -0.4332
 9844W        W30124   9.852  16.273   2.173 -0.1551 -0.1699  0.1431
 9845W        W30125  14.271  15.352   4.011 -0.3258 -0.1454 -0.1048
 9846W        W30126  12.501  18.048  11.113  0.3282  0.0827 -0.0934
 9847W        W30127   0.817   0.431   3.529 -0.2653  0.1172 -0.0759
 9848W        W30128   5.453   3.648  13.619 -0.1307  0.0698  0.2391
 9849W        W30129   0.950   8.435  10.441 -0.2029 -0.1072  0.1150
 9850W        W30130  15.224  15.560  10.008 -0.1795 -0.0525  0.3319
 9851W        W30131   6.500   4.320   3.559 -0.2146 -0.0126 -0.0853
 9852W        W30132   9.766   4.528   1.549 -0.2416 -0.0566 -0.1478
 9853W        W30133  16.269   3.908  12.220  0.4574 -0.4037 -0.0900
 9854W        W30134  14.563   8.589  12.850  0.1014  0.2238 -0.4502
 9855W        W30135   2.887  19.377  13.025  0.0193 -0.3784 -0.0231
 9856W        W30136   8.095   0.891  11.484  0.2337 -0.1251 -0.1112
 9857W        W30137  11.541   1.687   1.183 -0.2902  0.1776  0.0613
 9858W        W30138   9.888  10.766  10.607 -0.3746  0.2473  0.0666
 9859W        W30139   3.980   1.952  11.093  0.0629  0.0625  0.0008
 9860W        W30140   4.850  19.626  10.774  0.0517 -0.0540  0.0386
 9861W        W30141   0.044   5.691  10.580  0.1476  0.0513 -0.1402
 9862W        W30142   9.670  11.899  10.552 -0.0860 -0.1909 -0.3255
 9863W        W30143   7.501   1.671  12.646 -0.1761  0.0515 -0.3315
 9864W        W30144  13.184  11.579   0.763  0.2951  0.2512  0.1701
 9865W        W30145   2.663  14.204  10.914  0.2860  0.1584 -0.1333
 9866W        W30146  15.196  17.672   2.095 -0.1008  0.1963  0.0788
 9867W        W30147  19.842   3.068  12.557 -0.0556 -0.2569 -0.6499
 9868W        W30148   3.309  10.978   4.084 -0.1861 -0.3464  0.4113
 9869W        W30149   9.369   3.290  10.920  0.1471 -0.2947  0.3232
 9870W        W30150  14.549  15.410  10.823 -0.0519 -0.2055  0.0526
 9871W        W30151  10.497   4.320   2.297  0.1640  0.0186  0.1031
 9872W        W30152   2.455  11.852   3.581  0.0542 -0.0300 -0.1063
 9873W        W30153  11.149   8.143  12.499 -0.1075 -0.3963  0.0215
 9874W        W30154  15.704   7.105  12.940 -0.1703 -0.3965  0.1472
 9875W        W30155   2.641   5.905  13.515 -0.0604  0.0736 -0.3810
 9876W        W30156   2.008   6.514  11.106 -0.2609 -0.1058 -0.0314
 9877W        W30157  12.536  11.985  12.982 -0.0213 -0.0883 -0.0370
 9878W        W30158   3.423  10.211  13.739 -0.3032  0.0086  0.0297
 9879W        W30159  17.112   0.020   0.971  0.2310  0.0913  0.0425
 9880W        W30160  12.825   0.695   0.696 -0.2542 -0.0090  0.1101
 9881W        W30161   4.021  15.873  11.727  0.3250  0.0340 -0.0871
 9882W        W30162  10.289  17.224   1.243  0.2583 -0.2542 -0.1315
 9883W        W30163   7.381   9.793   4.742  0.1650  0.1022  0.2787
 9884W        W30164   5.902  17.808  11.059  0.1021 -0.0805 -0.0478
 9885W        W30165   5.001  14.427   9.878 -0.0873 -0.2578  0.0280
 9886W        W30166  10.979  11.959  10.979  0.1058 -0.2402  0.0885
 9887W        W30167   7.046  15.418   0.305  0.0885  0.1477  0.2456
 9888W        W30168   1.427   5.837   0.241  0.1947  0.2250 -0.1391
 9889W        W30169  12.075  18.733  10.141  0.0398 -0.2605  0.0172
 9890W        W30170   8.002  16.735   3.390 -0.0528  0.2321  0.3717
 9891W        W30171  17.986  18.871   3.406  0.0784  0.1261 -0.0052
 9892W        W30172  19.667   0.922   0.404  0.1069  0.0391  0.1730
 9893W        W30173   4.537  11.771  12.560  0.0572  0.0420 -0.1312
 9894W        W30174   4.879   5.167   1.218  0.0267 -0.2257 -0.1806
 9895W        W30175  12.171  11.360   4.825 -0.3325 -0.0030 -0.1523
 9896W        W30176  11.485  15.880   1.596 -0.0851 -0.2911 -0.0510
 9897W        W30177  18.639   9.078  13.042 -0.1741 -0.1335  0.1931
 9898W        W30178   9.987   2.541  13.152 -0.0188 -0.1400  0.3394
 9899W        W30179  17.449   4.930  10.554  0.0778  0.1252  0.0804
 9900W        W30180   3.348  10.580   3.575  0.0109  0.1127  0.0574
 9901W        W30181   4.370  18.833  13.074  0.0563  0.0968 -0.0204
 9902W        W30182  17.843   4.589   0.198 -0.0787 -0.0509 -0.1979
 9903W        W30183   0.715   9.012  10.427 -0.1135  0.0735 -0.1709
 9904W        W30184  10.533  10.667   9.235  0.1905 -0.0911  0.0252
 9905W        W30185   1.212  17.313   0.371 -0.3675 -0.3705  0.0881
 9906W        W30186   6.781   7.639  12.348  0.1418 -0.0897  0.1043
 9907W        W30187  12.964  19.778  13.099 -0.0634  0.0977  0.0198
 9908W        W30188  10.109  10.638  12.042  0.0065 -0.0880 -0.0169
 9909W        W30189   9.712   1.790  12.607  0.1093 -0.3876 -0.2277
 9910W        W30190  18.387   0.954   1.938 -0.0317  0.1231 -0.2763
 9911W        W30191   2.174   8.047   3.123 -0.3921  0.2241 -0.0193
 9912W        W30192  14.953  17.675   0.071 -0.0183  0.2143 -0.0191
 9913W        W30193   1.400   2.763  13.786  0.0780 -0.1477 -0.2363
 9914W        W30194   2.098  18.592   9.763  0.1707  0.4482 -0.1358
 9915W        W30195   0.399   2.398   1.043  0.0507  0.0892  0.2672
 9916W        W30196  10.983  18.884   3.234 -0.2064 -0.0163 -0.0637
 9917W        W30197   3.546  14.390  10.977  0.4655  0.0735  0.1116
 9918W        W30198  10.552   1.687   1.556 -0.1955 -0.1652 -0.2762
 9919W        W30199   0.552  11.881  11.995  0.0809 -0.0445 -0.2740
 9920W        W30200  17.242  13.524  13.792  0.0928  0.2199 -0.2270
 9921W        W30201   7.720   9.810   1.169 -0.0964 -0.0284 -0.1070
 9922W        W30202   0.571   7.607   0.393 -0.1910 -0.2350 -0.0738
 9923W        W30203   6.025  17.083   0.139  0.1014 -0.0796 -0.2887
 9924W        W30204  12.962  10.752  12.893  0.0341 -0.0616  0.3289
 9925W        W30205   2.056   2.806  12.077 -0.3603 -0.2977 -0.3187
 9926W        W30206  16.746  17.039   9.147 -0.1739 -0.3679  0.2036
 9927W        W30207  14.422   7.726   3.924  0.4669 -0.0954  0.2258
 9928W        W30208  17.369   4.190   2.965 -0.2742  0.0132 -0.2240
 9929W        W30209   4.745   2.542   4.019 -0.1912 -0.2094  0.2494
 9930W        W30210   2.082   8.951   3.328  0.0754 -0.0523  0.0762
 9931W        W30211   1.361  13.188   3.382 -0.0252  0.3121 -0.3328
 9932W        W30212   9.179  13.730   1.454  0.0053  0.0961 -0.0670
 9933W        W30213  18.116   4.639   0.851 -0.4253 -0.0691  0.1143
 9934W        W30214  10.632   7.341  12.338  0.0607  0.0744  0.0916
 9935W        W30215   0.595   8.155   0.528  0.2878  0.1228 -0.2484
 9936W        W30216  15.949  17.520   0.143 -0.0136 -0.0253 -0.4148
 9937W        W30217  10.495   2.845   0.001 -0.0302  0.2397  0.1936
 9938W        W30218   8.430   2.233  10.962 -0.6504 -0.0325 -0.3625
 9939W        W30219   3.147   7.648  11.342 -0.0708  0.0141  0.2527
 9940W        W30220   5.842  10.299  10.905  0.0176  0.0468  0.0818
 9941W        W30221   7.252   4.340   1.942 -0.1790  0.1327  0.0943
 9942W        W30222  16.204   0.422   3.253 -0.1504 -0.1722  0.0769
 9943W        W30223  10.071  15.453   4.229 -0.0316 -0.1933  0.2548
 9944W        W30224   2.676  18.458  11.014 -0.0496  0.0623 -0.0902
 9945W        W30225   5.922  19.715   3.899 -0.2723 -0.2475  0.2724
 9946W        W30226  16.337  10.743  11.094 -0.0350  0.1371 -0.0580
 9947W        W30227  17.221   4.272  13.352 -0.1239  0.1286 -0.1000
 9948W        W30228   9.606   7.371  10.489 -0.0181 -0.0505 -0.1172
 9949W        W30229   1.684  15.617  11.325  0.1513  0.1145 -0.2677
 9950W        W30230  16.114  13.985   2.887  0.1509 -0.1291 -0.0816
 9951W        W30231   5.115  15.514   2.394  0.0100  0.2127 -0.1685
 9952W        W30232   5.794  10.536   2.972  0.0786  0.1009  0.3105
 9953W        W30233   2.487   1.227   1.936  0.0204  0.1121 -0.0378
 9954W        W30234   3.200   3.457  11.844 -0.0199 -0.2476 -0.0265
 9955W        W30235  14.794   8.577   3.543  0.1625 -0.0244 -0.0631
 9956W        W30236   3.340  12.591  12.411 -0.1584 -0.0443  0.0815
 9957W        W30237  12.542   3.670   2.692 -0.0031  0.0487 -0.3531
 9958W        W30238  17.086  10.929   2.805 -0.0037 -0.1589  0.0568
 9959W        W30239  16.162   7.801   3.127 -0.1508  0.2380  0.1224
 9960W        W30240  17.412  18.753  13.552 -0.0085 -0.3890 -0.0781
 9961W        W30241   5.561   2.039  12.152 -0.2772  0.1692 -0.2088
 9962W        W30242   4.247  15.367  12.673 -0.0492  0.0100 -0.1028
 9963W        W30243   4.680   1.462   4.012 -0.1048 -0.0836  0.0256
 9964W        W30244   4.394  10.086   1.140  0.0978 -0.0954 -0.1506
 9965W        W30245  12.481  17.410   2.481  0.0723 -0.0128  0.0044
 9966W        W30246   7.457  13.713  12.523  0.0654 -0.1767 -0.1817
 9967W        W30247   5.598  19.055  11.547  0.2292 -0.2099  0.0739
 9968W        W30248   9.315  16.769  13.835 -0.3292  0.1560  0.1638
 9969W        W30249   5.086   7.832   0.264 -0.1599  0.0091  0.1679
 9970W        W30250  16.704   7.684  12.804 -0.0307  0.3805 -0.2127
 9971W        W30251   3.882  14.530   3.197  0.0895  0.0333  0.0393
 9972W        W30252  13.551  18.797   3.571 -0.2343 -0.0821  0.0599
 9973W        W30253   6.589   9.428  10.676  0.2886  0.3313  0.0559
 9974W        W30254  16.599   4.092  11.431 -0.2165 -0.1158 -0.0564
 9975W        W30255  13.560  18.518   1.001 -0.0761  0.0383 -0.2700
 9976W        W30256   5.477   0.143  12.489 -0.0060 -0.0081 -0.2409
 9977W        W30257  11.339   0.387   3.148  0.3300  0.1637 -0.2009
 9978W        W30258  12.108  11.748   3.564  0.0265 -0.0703  0.1643
 9979W        W30259   7.498   7.063  12.072 -0.1894 -0.1481  0.0741
 9980W        W30260  10.984  15.622   0.581  0.0585  0.0558  0.0225
 9981W        W30261   6.855  17.523   2.384  0.0707  0.2616  0.2357
 9982W        W30262  13.703  19.932   8.295 -0.0355 -0.2604 -0.0203
 9983W        W30263  14.279   8.633  11.647 -0.2473 -0.2342  0.2572
 9984W        W30264  19.345  14.515   9.347 -0.1667 -0.0118 -0.0247
 9985W        W30265  17.364  13.302   2.060 -0.2584  0.1468  0.2446
 9986W        W30266   5.767  13.207   2.419 -0.2993 -0.2392  0.0885
 9987W        W30267   1.591  18.205   0.960 -0.0441 -0.0399 -0.0539
 9988W        W30268  16.110  16.257   1.673  0.2989 -0.0330  0.2656
 9989W        W30269   6.325   6.962  10.790 -0.0549 -0.2021  0.3603
 9990W        W30270  17.338   0.379  10.557 -0.0720  0.0219 -0.0761
 9991W        W30271   5.615   5.125  13.743  0.0518  0.1701  0.0016
 9992W        W30272  16.843   2.134  11.672  0.0852  0.2050  0.2284
 9993W        W30273   7.771   1.441   9.495  0.1286 -0.0091  0.0870
 9994W        W30274   8.576  19.034  11.534 -0.3038  0.0006  0.1784
 9995W        W30275   0.846   6.677   0.680 -0.1279 -0.1192 -0.0278
 9996W        W30276   8.174  13.624  10.135 -0.0191 -0.1862  0.2970
 9997W        W30277   2.556  19.183   0.224  0.1472  0.0968 -0.1836
 9998W        W30278  14.386   9.965  11.918  0.0173  0.1839 -0.0604
 9999W        W30279   6.487   2.057   0.002 -0.1911  0.0630 -0.2055
10000W        W30280  18.817  10.483   0.603 -0.0708 -0.0023 -0.0724
10001W        W30281  16.190  12.066  11.873  0.0273 -0.1022 -0.0198
10002W        W30282   1.403   8.479  10.261 -0.4333  0.2813 -0.1672
10003W        W30283   6.912  12.255  13.051 -0.1193  0.0681 -0.1592
10004W        W30284  18.312  17.475   2.108  0.1468  0.0719  0.2247
10005W        W30285   0.958  17.069   3.633  0.0603  0.2174 -0.0974
10006W        W30286  17.203  12.840  12.500 -0.1525 -0.0081  0.0773
10007W        W30287   9.442   3.332   2.737  0.2041 -0.0861 -0.1930
10008W        W30288   9.763  19.068   1.572 -0.0917  0.0141  0.3861
10009W        W30289  14.515   5.516   1.817  0.0730  0.0995 -0.1523
10010W        W30290  16.158   9.286  10.548  0.0359 -0.4737 -0.2152
10011W        W30291  19.499  18.216  11.806 -0.0327 -0.0580  0.3397
10012W        W30292  14.774   5.543   0.807  0.0885  0.0412  0.3096
10013W        W30293   7.783   3.709   2.213  0.0980  0.1684 -0.0335
10014W        W30294   3.781   4.384  12.105 -0.3476  0.2243 -0.0113
10015W        W30295  12.493  11.068   2.528  0.0060  0.1874  0.1679
10016W        W30296  13.983  19.546  11.143  0.1079  0.1779  0.2656
10017W        W30297  14.384   2.195   2.004 -0.0729  0.0619  0.0260
10018W        W30298  19.266  11.981   0.030 -0.2434 -0.0177  0.1706
10019W        W30299  12.000  12.077   2.847  0.1478 -0.0050 -0.4713
10020W        W30300  10.731   2.186   2.281 -0.3086 -0.2234  0.1554
10021W        W30301   9.626   1.715   3.917  0.0098  0.0104  0.0116
10022W        W30302   8.289   4.994  11.560  0.1333 -0.2786  0.0654
10023W        W30303   6.653   2.805  11.565  0.0656  0.0520 -0.1841
10024W        W30304   9.276  12.209   2.217 -0.0996  0.3370  0.0740
10025W        W30305   4.887   9.393  12.464  0.2100  0.2586 -0.1740
10026W        W30306   1.827   2.329  13.094  0.4482 -0.2156 -0.0362
10027W        W30307   7.811  19.162   1.472  0.0525 -0.3335  0.2221
10028W        W30308   6.977  18.536   3.289  0.2811  0.1428  0.3321
10029W        W30309   6.859  12.532   2.003  0.0903  0.2254  0.0928
10030W        W30310  13.336   7.583   3.044 -0.1003  0.0330 -0.0580
10031W        W30311   1.830   4.411   2.135 -0.1510  0.0307 -0.0094
10032W        W30312  10.592  16.846   1.267 -0.1026 -0.2318  0.2514
10033W        W30313  17.512   5.209  11.482  0.1753  0.1011  0.2131
10034W        W30314   3.329  16.159   4.841  0.1682  0.1407  0.0234
10035W        W30315   2.243   3.780  12.525  0.1791 -0.0896 -0.1000
10036W        W30316   3.370  13.275   0.331 -0.0284 -0.0926  0.2552
10037W        W30317  10.262  11.588   1.666 -0.2491 -0.0674  0.2135
10038W        W30318  13.357  17.852   3.928 -0.0084  0.2193  0.0102
10039W        W30319  13.970   8.476  10.671  0.1294 -0.2483  0.0284
10040W        W30320   0.849   6.082   1.818  0.0135 -0.1150  0.2760
10041W        W30321   1.171  17.006   1.686 -0.2168 -0.1217  0.2125
10042W        W30322  10.790   0.082  11.768  0.2295  0.0882  0.0003
10043W        W30323   1.773  15.999  10.581 -0.1421  0.2055  0.0289
10044W        W30324  12.248   9.556  12.178 -0.0138 -0.0784  0.0573
10045W        W30325  18.535   7.111  12.892 -0.1845 -0.0665 -0.2003
10046W        W30326  17.809   7.712   0.952 -0.0405 -0.0878  0.3425
10047W        W30327   3.795   3.537  12.494  0.1121 -0.2567  0.4224
10048W        W30328  19.430   2.616  10.629  0.2430  0.3368 -0.0157
10049W        W30329   6.742  19.805   1.993 -0.0934 -0.1896 -0.1028
10050W        W30330  16.877   0.828  13.122 -0.3712 -0.0533 -0.1496
10051W        W30331  17.695  12.528   1.861  0.1053 -0.0176 -0.0720
10052W        W30332   8.044  14.793   3.216  0.2787 -0.1965  0.0875
10053W        W30333  10.182   2.466  10.122 -0.3363  0.1080  0.1216
10054W        W30334  12.412  13.892   2.509 -0.2285  0.1974 -0.0603
10055W        W30335   8.556  13.136  11.224  0.1003 -0.1105 -0.0352
10056W        W30336  18.007  14.580  12.709  0.4724 -0.1819  0.2747
10057W        W30337   8.502   4.045   3.637 -0.1520 -0.2590 -0.2252
10058W        W30338   1.826   0.114   0.359  0.2891 -0.2385 -0.0615
10059W        W30339  12.009   1.640  10.716 -0.1888 -0.2099 -0.4431
10060W        W30340   7.327  18.204  13.792 -0.3142 -0.0333  0.0229
10061W        W30341  13.186   6.646   3.712 -0.2153  0.2078  0.0317
10062W        W30342   3.952  12.538   1.117 -0.0979  0.3325  0.0241
10063W        W30343   9.988  15.033   0.258 -0.0925 -0.0741 -0.0773
10064W        W30344  15.920  10.702   9.701  0.2646 -0.0476 -0.2333
10065W        W30345  12.886   4.135   2.737  0.1167  0.2644 -0.0070
10066W        W30346  11.340  10.212  11.579 -0.1682  0.2716 -0.1198
10067W        W30347  18.710   3.956  12.717 -0.0003 -0.1264 -0.0312
10068W        W30348   0.730   8.752   9.547 -0.1308 -0.0864  0.0835
10069W        W30349  12.173  13.157   0.796 -0.1436 -0.0133 -0.4145
10070W        W30350   8.710   5.207  13.821  0.2475  0.2500  0.0588
10071W        W30351  14.359  18.590  12.257  0.2952 -0.1060 -0.1224
10072W        W30352   8.355   4.521  11.740  0.0098  0.0112 -0.0230
10073W        W30353  13.655   4.817   3.049 -0.1731 -0.3032  0.1777
10074W        W30354   6.667   8.803  10.709  0.0109  0.1132  0.0761
10075W        W30355   2.861  16.746  10.750  0.0663  0.2247  0.1245
10076W        W30356   8.959   3.914   3.821  0.2635  0.1922 -0.2116
10077W        W30357   6.590   8.912  11.794  0.1188 -0.3249  0.2167
10078W        W30358   7.666   7.079   1.818  0.1421 -0.1095  0.4024
10079W        W30359  12.133   9.761  13.573 -0.1799  0.1608  0.2817
10080W        W30360  15.952  18.971  13.661  0.2183 -0.0265  0.1389
10081W        W30361  17.362  14.116   1.641 -0.0114 -0.4882 -0.3355
10082W        W30362   9.468  16.160   0.878 -0.0384  0.1763  0.2117
10083W        W30363  12.280  13.882  10.380 -0.0192  0.0900  0.0477
10084W        W30364   5.058   6.937   0.206  0.1772 -0.3088  0.1266
10085W        W30365   0.954   0.775  10.645  0.1998 -0.1922  0.0394
10086W        W30366   3.441  14.835   1.842  0.1049  0.0691  0.0410
10087W        W30367  16.485   8.135  10.228 -0.1945 -0.0164  0.1991
10088W        W30368  14.356   8.399   2.327  0.2784 -0.1043  0.1905
10089W        W30369  19.267   8.681  11.688  0.0481 -0.2358 -0.2808
10090W        W30370  14.433   1.504   0.505  0.2718  0.2374  0.1035
10091W        W30371   4.552   4.750   3.299 -0.0827  0.0610 -0.0978
10092W        W30372   4.975   8.148  11.346 -0.0354  0.0359  0.2678
10093W        W30373   6.079   7.396   1.728  0.0678 -0.2853  0.0836
10094W        W30374   1.041  19.808  11.656  0.0940  0.0974  0.2246
10095W        W30375  11.087  19.700  11.468  0.0994 -0.2002  0.0288
10096W        W30376   3.170   0.636  11.844 -0.2725  0.2598  0.3127
10097W        W30377  19.710   1.669  13.807 -0.0250  0.0809  0.0565
10098W        W30378   9.442  14.851  12.493  0.0779  0.0232  0.1581
10099W        W30379  15.493  17.587   3.060  0.1190  0.0319  0.0088
10100W        W30380   7.615  10.585   0.060  0.0961 -0.0612  0.0514
10101W        W30381  13.941   9.336   2.072  0.0948  0.0506 -0.2363
10102W        W30382  19.917   6.521  11.947  0.0879  0.0623  0.1083
10103W        W30383   8.436   3.017  13.010  0.3811  0.2254  0.2643
10104W        W30384   2.226  17.669  12.451 -0.1156  0.0354 -0.0158
10105W        W30385  17.149  16.520  12.020 -0.2357 -0.2055 -0.1024
10106W        W30386  18.760   3.961  11.375  0.1905 -0.1390  0.0901
10107W        W30387   4.107  18.152  11.197  0.2540  0.2073  0.4252
10108W        W30388   0.898   2.522   0.006 -0.0583  0.1203 -0.1234
10109W        W30389   0.918  15.769  13.693  0.0174 -0.0940  0.1050
10110W        W30390   4.084   1.651   1.345 -0.0842  0.1246 -0.1795
10111W        W30391  10.030   9.751   3.337 -0.1080 -0.1504 -0.1880
10112W        W30392  15.440   7.959   0.865  0.0975 -0.4120 -0.2830
10113W        W30393  18.467   0.887   2.494  0.0518  0.2072  0.1673
10114W        W30394  17.224   6.626  10.502 -0.2916 -0.0721  0.0227
10115W        W30395   9.653  12.091   3.193  0.4016  0.0970  0.1461
10116W        W30396  15.768   5.481  10.922  0.2720  0.2066  0.2183
10117W        W30397   1.752  12.655  12.758 -0.0467 -0.0746  0.0422
10118W        W30398  16.185   4.434   9.026  0.0584 -0.1805  0.1674
10119W        W30399  18.487   2.036  10.119 -0.4699  0.2534  0.2599
10120W        W30400   5.282   2.503   1.626  0.0877 -0.0185 -0.0997
10121W        W30401  14.925   0.333  12.664  0.2172  0.1074 -0.0811
10122W        W30402   5.202   6.021   4.828 -0.0064 -0.0867 -0.1150
10123W        W30403  12.107  17.127   0.296 -0.0717 -0.0102 -0.2848
10124W        W30404  15.441   5.450   2.561 -0.0058 -0.1566  0.1269
10125W        W30405  14.907  17.787  11.377 -0.1580 -0.1981 -0.2458
10126W        W30406  13.003  16.657  11.315  0.0050 -0.0201  0.1943
10127W        W30407   8.127   4.832   3.867  0.0132 -0.1117  0.1994
10128W        W30408  11.172  13.164   0.516  0.0708  0.0685 -0.0318
10129W        W30409  16.603  15.988  13.075 -0.3090 -0.4240  0.0097
10130W        W30410   4.047   2.167  13.772  0.2081 -0.2333  0.0955
10131W        W30411  14.921  15.953  10.113  0.3062  0.2181 -0.0698
10132W        W30412  13.040  10.296   2.637 -0.1276  0.1133  0.2512
10133W        W30413  13.049  15.864  12.263  0.2051  0.2698 -0.0647
10134W        W30414   0.720   7.290   4.502 -0.0505 -0.1040 -0.1042
10135W        W30415  13.940   7.281  11.782 -0.1547 -0.0044 -0.1808
10136W        W30416   2.478   3.221   1.810  0.1255 -0.0231 -0.2927
10137W        W30417  12.566   8.037  12.203  0.1976 -0.0208  0.4125
10138W        W30418  12.631   7.918   1.500  0.0005  0.1587 -0.4093
10139W        W30419  19.192   7.202  13.112 -0.0318  0.2336 -0.1656
10140W        W30420   6.835   0.591   2.501 -0.2438 -0.0074 -0.0917
10141W        W30421   3.397   8.321   3.361 -0.0332 -0.2803  0.0166
10142W        W30422   7.018   3.577  12.088 -0.0254  0.2176  0.1687
10143W        W30423  13.118   6.426  13.463 -0.2263  0.1332 -0.0252
10144W        W30424  14.320   1.888  12.911  0.1118  0.3129 -0.2861
10145W        W30425  15.636   9.683   1.331  0.2169 -0.0796 -0.3549
10146W        W30426  18.943  17.056   2.768  0.1453  0.3381 -0.2111
10147W        W30427  12.494   6.811   1.220  0.2456 -0.1720  0.2379
10148W        W30428  11.644  16.612   3.042 -0.2171 -0.0210 -0.0961
10149W        W30429   7.269   1.563  12.167 -0.0916 -0.0449 -0.0020
10150W        W30430   3.367   7.905  13.289  0.1752 -0.1271 -0.0202
10151W        W30431  11.574   5.123  10.895 -0.5543  0.2008 -0.0688
10152W        W30432   8.679  11.218   9.211 -0.1100  0.0266 -0.3142
10153W        W30433  13.283   4.130   3.084 -0.3142  0.1088 -0.1803
10154W        W30434   3.341   8.339  12.954  0.1608  0.3686  0.0063
10155W        W30435   8.475   0.077   0.499  0.0850 -0.0482  0.1102
10156W        W30436   7.189  18.204   2.439  0.0455  0.0585  0.0056
10157W        W30437   3.613  12.994   1.286  0.3136 -0.1129 -0.0057
10158W        W30438   3.582   4.654  11.555  0.0511 -0.1144 -0.0580
10159W        W30439   4.780   2.426   3.544 -0.0010 -0.2667 -0.1178
10160W        W30440  12.687  10.448  11.227 -0.3840 -0.1388  0.0191
10161W        W30441  19.917  17.616  13.835 -0.1542  0.1218 -0.3632
10162W        W30442  14.858  16.732  10.089  0.0461  0.2013  0.1721
10163W        W30443   0.930  13.493   3.269  0.1997  0.0499  0.2061
10164W        W30444   0.573   8.647  11.746 -0.2127  0.0316 -0.1471
10165W        W30445  13.124  18.866  10.852 -0.0499  0.0575  0.0636
10166W        W30446   0.240   1.633   2.202 -0.0424  0.3006 -0.0903
10167W        W30447  17.504   9.268  11.341 -0.0448  0.0146 -0.1355
10168W        W30448   1.357  15.136  10.677  0.0249 -0.1853 -0.1475
10169W        W30449  18.786  14.266   0.670 -0.0316  0.2809  0.0426
10170W        W30450   9.817  16.521   1.757  0.0230  0.0822  0.0313
10171W        W30451  17.483  14.530   9.786  0.1189 -0.1731  0.1619
10172W        W30452   1.337  16.621  11.106  0.0825  0.0995 -0.0206
10173W        W30453   4.713   3.072   3.863  0.2000 -0.0659 -0.1804
10174W        W30454  15.622  12.684  12.318  0.0713  0.2138 -0.2911
10175W        W30455   6.024  12.910  13.317  0.2953 -0.1743 -0.1564
10176W        W30456   3.706   8.738   2.543  0.0221 -0.2106 -0.1195
10177W        W30457  18.607  19.821  13.383 -0.1486  0.0736 -0.1790
10178W        W30458   0.985   7.194  11.562 -0.0137  0.1303  0.0369
10179W        W30459  16.867  16.146  12.217  0.1860 -0.2019 -0.1320
10180W        W30460  10.179  17.354  10.646 -0.1384 -0.2009  0.0227
10181W        W30461   8.543  18.161  13.120 -0.0940 -0.0662 -0.0261
10182W        W30462   7.578   9.564   2.170  0.2695 -0.0437  0.0955
10183W        W30463  10.312   5.632   2.154 -0.2437  0.0763  0.0664
10184W        W30464   5.759  13.695  11.988  0.2666  0.2338 -0.1085
10185W        W30465  15.090  16.039  11.528  0.0731  0.1816  0.2042
10186W        W30466  16.377  11.988   0.769  0.1026  0.0025 -0.0839
10187W        W30467  12.680  18.846   2.852  0.3069 -0.2764 -0.1654
10188W        W30468  17.096   6.860  10.010  0.0147 -0.1658 -0.0454
10189W        W30469   5.528   1.215  10.677  0.1123 -0.0438 -0.0370
10190W        W30470   4.913   4.452  13.636 -0.1251 -0.0648 -0.3474
10191W        W30471  16.680  10.007  10.709  0.0046  0.2125 -0.2058
10192W        W30472  16.324   2.599  13.083  0.2204  0.2763  0.0943
10193W        W30473   2.912  13.871  12.384  0.0630 -0.0115  0.1644
10194W        W30474  17.021   1.213  13.579  0.1091  0.0645  0.0712
10195W        W30475   6.731  15.559   2.124  0.0104  0.1879 -0.0033
10196W        W30476   6.370   7.285  10.360 -0.1634 -0.2449 -0.0613
10197W        W30477   1.345   6.062   3.992 -0.3873 -0.2173  0.0247
10198W        W30478   2.881  17.067   3.417 -0.1679 -0.1669 -0.0980
10199W        W30479  12.826  13.995  11.689  0.2593 -0.2801  0.0303
10200W        W30480  16.650   9.911  10.202  0.3026  0.1154  0.0347
10201W        W30481  18.133   1.005  13.163 -0.0140  0.2421  0.0142
10202W        W30482   8.074  13.186  11.509 -0.0762  0.0989  0.1155
10203W        W30483   6.472  13.700   2.976  0.1230 -0.4727 -0.4857
10204W        W30484  12.669  10.923  11.068  0.1471  0.2370 -0.3231
10205W        W30485  19.956   0.584  12.236  0.0149 -0.2081  0.1879
10206W        W30486  10.544   9.071   1.387 -0.1459 -0.5297  0.1017
10207W        W30487  16.468   4.675   2.440 -0.1203 -0.0246  0.2871
10208W        W30488   0.626   1.251  11.402  0.0022 -0.0575  0.0362
10209W        W30489  15.231  11.278   2.438 -0.0203  0.0290 -0.0040
10210W        W30490  13.901  13.103  12.481 -0.0562  0.1151 -0.0974
10211W        W30491  16.864  10.668  12.134  0.1017  0.1050  0.1333
10212W        W30492  14.316   8.287  12.502 -0.1002  0.1004  0.0659
10213W        W30493   9.296  12.025  13.282 -0.1277  0.1016 -0.0455
10214W        W30494   4.131   3.616   2.073 -0.2419  0.0983  0.2375
10215W        W30495   3.538   1.356   3.151 -0.1178  0.3010 -0.0134
10216W        W30496  15.002  11.914   0.554 -0.1054 -0.0527  0.1601
10217W        W30497  12.738   3.959  12.660 -0.0063  0.0957  0.0348
10218W        W30498  16.775   6.637   1.955 -0.0662 -0.0009  0.0425
10219W        W30499  14.555  19.307   2.267  0.2533  0.1930  0.2641
10220W        W30500   8.027  12.644  10.600 -0.1163  0.1667 -0.0041
10221W        W30501   6.151  18.623   1.602  0.4148 -0.1653 -0.0488
10222W        W30502   3.404  17.025   2.657 -0.3059  0.1482 -0.2676
10223W        W30503   6.497  19.037   0.865  0.2146  0.1126  0.1076
10224W        W30504  11.035  10.575   3.483 -0.0170  0.0388 -0.1078
10225W        W30505  17.243  17.872  12.387  0.0670 -0.3626  0.1474
10226W        W30506   0.695   7.663   1.730  0.1751  0.1375 -0.0788
10227W        W30507   6.754  12.985   0.533  0.3162 -0.2451  0.0013
10228W        W30508  11.376   6.778   2.922 -0.0442  0.2184  0.2802
10229W        W30509  16.544  18.781  12.261 -0.0428  0.2457 -0.1900
10230W        W30510   1.931   9.080  13.228  0.0950  0.0034  0.1578
10231W        W30511  18.084  17.687   3.265  0.2599  0.0551  0.0487
10232W        W30512   6.385  12.029  13.526 -0.1118  0.6205 -0.1573
10233W        W30513   1.380   5.572   1.817  0.1546  0.0110  0.0481
10234W        W30514  15.830  16.978   1.449  0.1947 -0.0401 -0.0104
10235W        W30515  19.512   4.723  13.513 -0.0566  0.1112 -0.1005
10236W        W30516   9.007   0.317  13.683  0.1992  0.0942 -0.2285
10237W        W30517   3.746   4.489   1.230  0.0949  0.3267  0.1976
10238W        W30518   7.852   9.914  12.257  0.0966 -0.1507  0.0930
10239W        W30519  10.813   7.361   3.570 -0.0314  0.2897  0.1640
10240W        W30520   0.923   7.661  12.926  0.0530 -0.2268 -0.3548
10241W        W30521   3.986   0.039  12.616  0.3344 -0.2929 -0.2739
10242W        W30522   8.823  11.812   3.384 -0.0907 -0.0361 -0.1446
10243W        W30523   8.255  12.460   2.229  0.0679  0.0535  0.0838
10244W        W30524  11.567   2.502   4.443  0.0181  0.1769 -0.4213
10245W        W30525  15.491   0.241  12.261 -0.2337 -0.1498  0.2291
10246W        W30526  19.269   8.307   2.598 -0.1500  0.0418  0.1631
10247W        W30527  10.374  16.769   3.133  0.0620  0.1070  0.0330
10248W        W30528  13.089  12.647   3.150  0.2839  0.0814 -0.0743
10249W        W30529  15.060  16.346   4.414  0.0248  0.1691  0.0772
10250W        W30530   1.609   5.166  12.267  0.0675  0.2647 -0.1589
10251W        W30531  13.521  10.960  11.139  0.1335 -0.0934  0.0432
10252W        W30532  17.985  15.091   2.030 -0.3924  0.1601  0.1270
10253W        W30533   4.218  11.991   4.480  0.0617  0.1313 -0.0612
10254W        W30534  13.110   3.666   2.605  0.0358 -0.0980  0.0526
10255W        W30535   7.277  12.783   0.672  0.0734 -0.0217  0.0565
10256W        W30536  18.171  15.168   9.171 -0.0566 -0.1194  0.0454
10257W        W30537   1.148  15.558   0.655 -0.0989  0.3060 -0.1202
10258W        W30538   7.274   5.939  12.632 -0.1391 -0.0089 -0.3001
10259W        W30539  12.482   1.960   3.403 -0.1608 -0.1761  0.0645
10260W        W30540  11.160  13.862   5.046  0.3779  0.3673  0.2626
10261W        W30541  11.028  17.390   3.806 -0.1340  0.0153 -0.1111
10262W        W30542  18.140  18.712  12.371  0.3364 -0.1069 -0.0510
10263W        W30543  11.338  11.564  11.129 -0.1329 -0.0281  0.0316
10264W        W30544   3.154   7.871   0.145 -0.1375 -0.0201 -0.1489
10265W        W30545   7.795   6.068   0.936 -0.0158  0.1225 -0.1836
10266W        W30546  11.575   6.800   1.590  0.3213 -0.1550 -0.1175
10267W        W30547   5.234   8.028   2.198  0.1758  0.1759 -0.0177
10268W        W30548   6.749  17.378   1.483 -0.2026  0.2396 -0.1052
10269W        W30549   5.065   3.411   3.850  0.3858 -0.0779  0.1492
10270W        W30550   7.084   8.150   3.983 -0.1178  0.3139  0.2680
10271W        W30551   8.791   1.341  10.736  0.0762 -0.1449 -0.3113
10272W        W30552  16.437  18.892   9.354  0.1785  0.0025  0.0777
10273W        W30553  17.885  14.013  11.230  0.0235 -0.0542 -0.2228
10274W        W30554   5.471  15.913  12.814  0.4320 -0.0874  0.2722
10275W        W30555   2.185   2.199   1.551 -0.0263  0.2909 -0.2906
10276W        W30556  16.606   4.457  10.966 -0.0270  0.1521  0.2630
10277W        W30557   9.959   6.503   9.469  0.0279 -0.1117  0.2201
10278W        W30558  19.858   4.263   2.955 -0.0174 -0.0285 -0.1417
10279W        W30559  11.426  17.126  11.893  0.2163  0.0006 -0.0941
10280W        W30560   7.088   4.548  10.750 -0.0875  0.1350 -0.1271
10281W        W30561  14.768   8.561   1.646 -0.1993  0.2056 -0.1607
10282W        W30562   3.043  17.831  13.607  0.1254 -0.0391  0.1675
10283W        W30563  16.216  19.347  11.513 -0.0019  0.0611 -0.1360
10284W        W30564  13.576   6.300  12.810 -0.1475 -0.2335  0.1111
10285W        W30565  11.941  19.524  11.368 -0.4629  0.0757  0.0647
10286W        W30566   6.540  13.412  12.552  0.2441 -0.2882 -0.1786
10287W        W30567  18.586   5.284   0.620  0.2075  0.1302  0.1144
10288W        W30568  17.804   6.036  13.140 -0.1176 -0.0490  0.2794
10289W        W30569  19.701  11.748   3.321 -0.1598 -0.0132  0.0962
10290W        W30570   2.492   8.081   2.290 -0.1754  0.2444  0.2216
10291W        W30571  17.090   1.308   8.756 -0.1473 -0.2955 -0.0307
10292W        W30572   5.641   6.412   0.896 -0.0414  0.1480 -0.0248
10293W        W30573   5.113  19.767  12.341  0.0892  0.3945 -0.0311
10294W        W30574  11.970  19.946  11.109  0.2654  0.0048 -0.2437
10295W        W30575   3.077   7.112   2.731  0.6023  0.0112 -0.1080
10296W        W30576  15.122  18.358  12.614  0.0332 -0.1966  0.4066
10297W        W30577   8.131   0.787  12.331 -0.0385 -0.0813  0.0478
10298W        W30578   4.190  16.133  12.207  0.1244 -0.1029  0.0126
10299W        W30579  12.940   3.866   3.888  0.0262  0.0886  0.0977
10300W        W30580  19.042  18.028  10.351 -0.4384 -0.0063 -0.0277
10301W        W30581   4.949  18.210  12.850 -0.0923  0.0446 -0.0978
10302W        W30582   4.630   7.211   3.717  0.1625  0.1534  0.0183
10303W        W30583  18.316   7.959  12.475  0.1777  0.0164  0.3857
10304W        W30584   8.858   5.404  13.350 -0.2741  0.3045  0.0562
10305W        W30585  17.215   9.876  10.612  0.1674  0.0338  0.2186
10306W        W30586  12.660   9.452   2.256  0.1229  0.1413  0.1314
10307W        W30587   2.340  17.798   0.485  0.2012 -0.0729  0.0336
10308W        W30588   1.759   9.323   0.324 -0.1002 -0.2152 -0.0157
10309W        W30589  19.855  17.239   3.952  0.1655  0.1409 -0.0405
10310W        W30590  10.916   1.207  13.151 -0.0379 -0.5523 -0.1704
10311W        W30591  10.021  17.171   9.836 -0.1573 -0.0090 -0.1918
10312W        W30592  17.360  17.399   1.362  0.0900  0.3717 -0.2902
10313W        W30593   2.497  17.183  13.819  0.1421 -0.0486 -0.0678
10314W        W30594   1.011  16.046   0.879 -0.2300  0.2474  0.2263
10315W        W30595  11.152   5.830   1.509  0.1348  0.0742  0.1320
10316W        W30596   0.918  15.550   1.265 -0.0326  0.0112 -0.1708
10317W        W30597   1.268   1.354  12.230 -0.1505 -0.1423 -0.0854
10318W        W30598   6.997  14.036   0.819  0.0892 -0.1621  0.0083
10319W        W30599  18.960  19.729  13.025 -0.1505  0.0914  0.2942
10320W        W30600   3.204  18.581   3.612  0.1369 -0.1813  0.1124
10321W        W30601  12.499  13.402   3.638 -0.0069 -0.1368  0.5162
10322W        W30602  14.296  11.675   2.921  0.0026 -0.0424  0.1471
10323W        W30603   8.470  17.383   3.649 -0.0681 -0.0281  0.0823
10324W        W30604   8.423  18.496  10.478  0.0007 -0.2286  0.0735
10325W        W30605   6.439  18.404  11.104  0.0060 -0.0576  0.1604
10326W        W30606   6.439   5.338  12.748 -0.0201  0.1560  0.1582
10327W        W30607  18.402  10.745  12.551 -0.2409  0.2999  0.2143
10328W        W30608  11.287   8.204  12.946 -0.3490 -0.0596 -0.0689
10329W        W30609  11.306   7.587   3.341 -0.2870 -0.1828  0.0255
10330W        W30610   3.728  17.834   9.387  0.0706 -0.0715  0.0527
10331W        W30611  12.258  18.382   3.517  0.0505  0.1249 -0.1272
10332W        W30612  15.688  12.677   4.083  0.1647  0.2367 -0.2145
10333W        W30613  13.207  15.575   9.727  0.0488  0.1596 -0.3345
10334W        W30614   5.652  16.413  13.461  0.0903  0.0185 -0.1171
10335W        W30615  11.216  11.057  12.864  0.2571 -0.1541 -0.1089
10336W        W30616  15.926   2.266  10.362 -0.0898  0.2052  0.2128
10337W        W30617   2.403  15.257  11.921  0.1067  0.0671 -0.0290
10338W        W30618   7.109  18.789   1.658 -0.1479 -0.4693  0.1759
10339W        W30619   7.105  19.403   3.214  0.0200 -0.0809 -0.0843
10340W        W30620  10.161   9.133  12.574  0.2187 -0.5015  0.1486
10341W        W30621  11.283  16.527   0.540 -0.3179  0.2577  0.0216
10342W        W30622  16.753  15.170   0.787  0.2557 -0.0537 -0.3792
10343W        W30623   8.017  10.329  12.064 -0.0806 -0.0332 -0.0267
10344W        W30624  16.714  17.434   3.515  0.2228  0.0753  0.0594
10345W        W30625  12.094   0.318  12.312  0.1028 -0.1206 -0.2207
10346W        W30626   3.352   4.893  12.838 -0.2524 -0.1597  0.1921
10347W        W30627  17.277  13.414  12.699 -0.2454  0.0763  0.0083
10348W        W30628  16.227  16.908   0.230  0.1828 -0.1483  0.0360
10349W        W30629   9.705  11.885   2.363 -0.0503  0.1374 -0.2961
10350W        W30630   7.727   1.656   1.760  0.1802 -0.1174 -0.3399
10351W        W30631  16.494   7.591   0.553 -0.1121 -0.1339 -0.1162
10352W        W30632   8.518  14.248   1.025 -0.0253  0.0540  0.2672
10353W        W30633  14.304  18.686   0.903 -0.1797 -0.2517  0.1712
10354W        W30634  17.025  15.913   1.862 -0.0778  0.0161 -0.0188
10355W        W30635  19.857   8.759   2.082 -0.0345 -0.0791 -0.0605
10356W        W30636   8.303  17.562  11.194 -0.0614 -0.2017 -0.2161
10357W        W30637  10.503   3.175  10.850  0.0783 -0.2478 -0.0209
10358W        W30638   8.485   5.664   3.172 -0.2073  0.1961 -0.1152
10359W        W30639   6.611   0.167   1.625  0.0764  0.0872 -0.1931
10360W        W30640   2.445   3.101  11.817 -0.1825 -0.2575  0.0717
10361W        W30641   7.648   6.762  13.579  0.1142 -0.0251  0.1171
10362W        W30642   8.947  15.171  13.349 -0.1349 -0.0279 -0.1265
10363W        W30643  10.943   6.680  11.601 -0.2144 -0.1084  0.1389
10364W        W30644  13.138   5.516  11.371 -0.2941 -0.0371  0.0297
10365W        W30645  11.553   4.399  12.537 -0.0457 -0.0964 -0.0628
10366W        W30646  18.352   0.824  12.728 -0.0481 -0.0604  0.1333
10367W        W30647  13.344  15.154   2.268 -0.0590  0.2307  0.3395
10368W        W30648  16.932  16.211  11.700  0.0385  0.0673 -0.1450
10369W        W30649  17.956   7.525  13.328  0.0481 -0.0379 -0.1280
10370W        W30650  10.876   5.882   0.719  0.0780 -0.1785 -0.0065
10371W        W30651   0.894  19.495   0.063 -0.0315 -0.1315 -0.0413
10372W        W30652  17.633  13.644  12.434 -0.1547 -0.1604 -0.0496
10373W        W30653   5.027  11.783  12.705 -0.0378 -0.1205 -0.2442
10374W        W30654  18.700  16.491  12.051  0.0054  0.1563  0.0653
10375W        W30655   6.274   1.311  10.233 -0.1391  0.0477 -0.3087
10376W        W30656  19.044  14.297   2.594 -0.2006 -0.0805  0.0516
10377W        W30657  12.025   5.682   0.394  0.1019 -0.0994 -0.0374
10378W        W30658   5.503   1.676   1.829  0.2914 -0.3106  0.0811
10379W        W30659   0.169  11.743   3.542  0.0852 -0.0933  0.0553
10380W        W30660   9.005   6.142   0.970 -0.1604  0.1352  0.3598
10381W        W30661   2.283   1.086  11.219 -0.1449 -0.2481  0.1838
10382W        W30662  15.329  11.173  13.707 -0.0872 -0.1413  0.0230
10383W        W30663  18.704  10.468  13.510 -0.0022  0.2394 -0.0193
10384W        W30664   3.842  12.303   2.139  0.0316  0.1653 -0.1030
10385W        W30665   4.109  17.799   0.062  0.0381  0.0854 -0.1157
10386W        W30666  13.421   2.387   1.839 -0.0781  0.3992 -0.1486
10387W        W30667   9.669  17.862   0.093  0.1648 -0.0406 -0.1769
10388W        W30668  18.425  19.113   1.427  0.0019  0.0137 -0.5009
10389W        W30669  18.539  13.031   2.043 -0.0301  0.1944  0.0531
10390W        W30670   4.256   7.856   2.577  0.0245 -0.2772 -0.0665
10391W        W30671   2.755   7.686  11.010 -0.0010  0.1230 -0.2286
10392W        W30672   1.258  19.624  13.056 -0.1064  0.0061 -0.1145
10393W        W30673   0.879  10.966   0.965  0.1665 -0.1030 -0.0737
10394W        W30674   2.186   2.991  13.570 -0.0635  0.2736  0.0069
10395W        W30675   0.985   4.164   0.619  0.1765  0.0132  0.0297
10396W        W30676  10.109  15.638  11.546 -0.1833  0.1933 -0.0381
10397W        W30677   4.209  19.074  10.953  0.0504 -0.0518 -0.1610
10398W        W30678  13.458  11.438  10.939 -0.0378 -0.0596 -0.0659
10399W        W30679  19.717   4.076   1.701  0.1693  0.1904  0.0751
10400W        W30680   8.049  19.018  12.885 -0.0932  0.1113  0.1377
10401W        W30681   2.005  12.026   3.643 -0.2853  0.0270  0.2987
10402W        W30682  16.791   5.567   2.189 -0.0237 -0.1633  0.0654
10403W        W30683  10.808  19.628  12.356  0.2468  0.0914  0.2865
10404W        W30684   2.031  11.956   9.570 -0.2077  0.2577 -0.7385
10405W        W30685  11.259  15.674   4.568  0.1876  0.1861  0.0453
10406W        W30686  11.937   3.633  10.981 -0.0119 -0.1881  0.5337
10407W        W30687   6.659   0.467  13.024 -0.1611  0.1906 -0.1591
10408W        W30688   7.261  16.089   9.855 -0.3484  0.0209  0.2236
10409W        W30689   6.029   1.075   2.341 -0.3590  0.2944  0.0078
10410W        W30690   9.889   1.622  11.033 -0.1202 -0.1731  0.0959
10411W        W30691   2.732   0.747  13.495 -0.2479  0.1480 -0.3773
10412W        W30692  10.805   8.631  11.272  0.0703 -0.3603  0.0891
10413W        W30693  14.927   1.373  12.528 -0.0627  0.1236 -0.1117
10414W        W30694  10.431  11.456   0.783 -0.0241 -0.1004  0.0072
10415W        W30695   9.132  10.671   9.541 -0.0169 -0.3606 -0.2014
10416W        W30696  19.694   8.338  11.855 -0.1563  0.0045 -0.0546
10417W        W30697   3.708   9.634   2.067  0.0918  0.0852  0.2744
10418W        W30698   5.655   1.860   0.174 -0.0359  0.0745  0.1399
10419W        W30699   4.672   1.766   4.490 -0.1964 -0.4763  0.0431
10420W        W30700  19.254   0.942  12.665 -0.1573  0.0912 -0.0759
10421W        W30701  15.518  12.441  11.113 -0.0946 -0.0499 -0.0302
10422W        W30702   9.020  15.944   0.582 -0.1111 -0.1361  0.0045
10423W        W30703   6.403  11.476   0.509  0.2032 -0.0510  0.2173
10424W        W30704   4.705  12.115   9.593 -0.1455  0.1248 -0.3263
10425W        W30705   6.299   8.412   0.511  0.0911  0.2336  0.0731
10426W        W30706  15.484   9.048  13.597 -0.3280 -0.2914  0.2980
10427W        W30707  18.605   4.729   3.443 -0.0292  0.3234  0.0799
10428W        W30708   6.494  18.825   2.385 -0.3306  0.0073  0.1952
10429W        W30709  15.028   4.612  13.428 -0.1024  0.1892  0.1330
10430W        W30710  11.769  13.486  13.198  0.3538 -0.1189 -0.1319
10431W        W30711  15.159   0.831   4.556  0.0875  0.0302 -0.2241
10432W        W30712   5.117  15.952   1.421 -0.0174 -0.1996  0.1508
10433W        W30713  17.694   7.908  13.173 -0.1567  0.2944 -0.1297
10434W        W30714   2.065   2.124   9.987 -0.2067 -0.3608  0.0950
10435W        W30715   2.756   7.117   0.380  0.2404  0.1594  0.0438
10436W        W30716   1.823   5.693   0.728  0.0007  0.1562  0.2794
10437W        W30717  10.583   1.125  12.218  0.0104 -0.0403  0.2475
10438W        W30718  10.652  10.626   0.254  0.0014  0.2482 -0.2914
10439W        W30719   8.275  17.593  13.216  0.1671  0.1024 -0.1421
10440W        W30720   1.630   3.742  12.933  0.1644  0.2911  0.0103
10441W        W30721  13.595  16.751   2.864  0.3537 -0.1117  0.0833
10442W        W30722   3.181  13.840   0.194  0.0704  0.4461  0.1307
10443W        W30723   2.758   2.384  10.440  0.0464 -0.1030  0.1517
10444W        W30724   7.178   9.912   2.364  0.3322  0.0964  0.0917
10445W        W30725  12.199   2.229   2.527  0.0328 -0.2262  0.0119
10446W        W30726  10.567  11.223  10.980  0.0361  0.2506 -0.1279
10447W        W30727   6.708  18.153   3.467  0.2511  0.2327  0.1499
10448W        W30728   7.385   6.078   5.609 -0.1285  0.2119 -0.1515
10449W        W30729   0.156   5.253  10.872  0.1089 -0.4272 -0.1256
10450W        W30730  12.522   2.075  10.118 -0.0945  0.0279  0.0899
10451W        W30731  17.230  14.447  12.342  0.1586  0.0434  0.2511
10452W        W30732  11.037  12.176   2.612 -0.0887 -0.2993  0.1137
10453W        W30733   7.156  16.497   1.924 -0.3179  0.2243 -0.0036
10454W        W30734  14.147  15.582   2.656 -0.0770  0.1213 -0.1841
10455W        W30735   5.323   2.070   0.614 -0.1750 -0.0901  0.0466
10456W        W30736   9.830  18.835   3.228 -0.1886 -0.3660 -0.2622
10457W        W30737   2.496   6.293   1.846 -0.0542 -0.0853 -0.0449
10458W        W30738   7.651   1.072  13.824  0.1544 -0.2818 -0.0548
10459W        W30739   9.543  19.341   0.432 -0.0494  0.1813  0.0129
10460W        W30740  18.133   1.794  11.435 -0.2725  0.0826 -0.0534
10461W        W30741  13.723   0.156  12.089 -0.1133  0.0762  0.1079
10462W        W30742   3.122   1.433  12.344 -0.0033 -0.0597  0.1276
10463W        W30743   2.488  12.746  10.877 -0.2701 -0.0987 -0.1155
10464W        W30744  17.153   3.667  10.623 -0.1139  0.0095 -0.0090
10465W        W30745  15.430   2.467  12.585  0.0361  0.1249  0.1032
10466W        W30746  12.681  14.495   3.896 -0.0506 -0.0112  0.1194
10467W        W30747  13.389  12.113  13.196  0.3940 -0.2256 -0.0852
10468W        W30748  14.741   0.489  13.456  0.0124 -0.2515  0.0046
10469W        W30749   2.490   2.932   2.264 -0.4117  0.0826  0.1687
10470W        W30750   1.408   6.962  11.652 -0.3360 -0.0259 -0.0665
10471W        W30751  18.215  18.341  13.796 -0.1664  0.0169  0.3581
10472W        W30752  13.365   2.035   2.288 -0.2732 -0.3687  0.0041
10473W        W30753   9.963   6.416   0.708  0.1018 -0.0947 -0.2803
10474W        W30754  17.126  17.603   1.825 -0.0889  0.2262  0.1537
10475W        W30755   3.834  11.800   0.102  0.1836  0.0881 -0.0163
10476W        W30756   8.264   3.733  10.780  0.0338 -0.2166  0.1530
10477W        W30757  19.125   2.553   3.627 -0.0669  0.1398  0.2029
10478W        W30758  18.446   5.528   2.962 -0.1777  0.1016  0.0521
10479W        W30759   1.520  16.446  10.508  0.1512  0.2464 -0.1810
10480W        W30760   6.365   1.010   4.516  0.0278 -0.0946 -0.0474
10481W        W30761   0.429  13.067   3.193 -0.0920 -0.0170  0.1985
10482W        W30762  11.729   2.840   9.516  0.1840 -0.3591  0.1247
10483W        W30763   0.909   9.096  13.668 -0.2480 -0.3111 -0.2815
10484W        W30764  12.857  16.962  12.514  0.2233  0.0792  0.2690
10485W        W30765  11.468  19.365   0.832  0.2488  0.0190  0.2113
10486W        W30766  18.210  16.441  12.304 -0.0527 -0.0879 -0.0584
10487W        W30767   6.575  16.255   2.348 -0.0977 -0.0718 -0.0349
10488W        W30768   3.172  15.987  11.444  0.2081  0.0339 -0.1394
10489W        W30769   0.973   1.440   0.447  0.1587  0.1894  0.1907
10490W        W30770  12.822   1.292   0.418  0.1762  0.1977 -0.1164
10491W        W30771  15.960   0.597  12.407 -0.0631 -0.2715  0.0086
10492W        W30772   3.170   4.968  11.331  0.1156  0.1204  0.1699
10493W        W30773  18.433  13.111  11.672 -0.2464 -0.0780  0.0222
10494W        W30774  10.027   5.989  13.288  0.1787 -0.3244 -0.3346
10495W        W30775  13.757  14.497   1.664 -0.0742  0.2690 -0.0064
10496W        W30776  17.249   0.452   1.244  0.2734 -0.0282  0.0990
10497W        W30777  18.413   0.043  12.539  0.2722  0.0875 -0.0579
10498W        W30778   5.678  17.227   3.333 -0.2417  0.0337 -0.1107
10499W        W30779  10.663   2.575  10.375 -0.1894 -0.0148  0.0599
10500W        W30780   9.830  11.796   0.254 -0.1293  0.1148  0.0729
10501W        W30781   3.666  13.423  10.691 -0.0868  0.0208 -0.2219
10502W        W30782  12.008   2.093  11.485  0.1069 -0.1516 -0.0236
10503W        W30783   5.503   2.966   1.242  0.0377 -0.0419 -0.1097
10504W        W30784  16.879  19.136  12.610  0.0148  0.0262  0.0152
10505W        W30785  15.789  12.914  12.901  0.1649 -0.2239  0.4014
10506W        W30786  13.916  11.445  12.275 -0.0402 -0.1058 -0.0759
10507W        W30787   7.782  18.103  13.805  0.0417 -0.0202  0.0856
10508W        W30788  11.290  16.199  10.482 -0.1001  0.1166 -0.1355
10509W        W30789  10.951   3.236  12.509 -0.0269 -0.0089 -0.2179
10510W        W30790   9.309  13.940  12.415 -0.4004 -0.3496  0.0280
10511W        W30791  19.040   8.620   0.436  0.0727  0.3062 -0.3656
10512W        W30792  19.455   1.542  10.371 -0.0687  0.1001  0.2360
10513W        W30793  14.554  19.607   0.625 -0.2042  0.2308  0.0089
10514W        W30794  12.925  11.572   3.239 -0.1393 -0.1709 -0.1870
10515W        W30795  17.381   4.631  11.040 -0.0154 -0.2512  0.0388
10516W        W30796   3.643  17.045  11.062 -0.2587  0.1071 -0.1523
10517W        W30797   5.860  10.201  13.324  0.0778  0.0605 -0.2887
10518W        W30798  15.302   0.538   1.214 -0.3286 -0.2508  0.1041
10519W        W30799  15.428  16.776   2.998  0.0447  0.2066 -0.0176
10520W        W30800  13.978  11.949   3.214  0.2574 -0.0911 -0.1144
10521W        W30801  14.886  14.057   1.277  0.0661  0.0142  0.0098
10522W        W30802   8.710   4.904   0.967  0.1165 -0.1437 -0.0617
10523W        W30803   1.854   9.319  11.888 -0.1824  0.3022  0.1184
10524W        W30804  16.659   9.195  11.624 -0.0694 -0.0206 -0.1771
10525W        W30805  16.256  13.348   2.230 -0.1122 -0.2171 -0.0146
10526W        W30806  16.313  17.054  10.311  0.0873  0.0372 -0.1154
10527W        W30807   1.349  12.393   0.751 -0.1162 -0.0329  0.1275
10528W        W30808  10.666  15.836   1.829  0.1600  0.1627 -0.2177
10529W        W30809  14.312   2.894   9.879  0.0836 -0.0629 -0.0499
10530W        W30810  12.127   9.863   0.459  0.3091 -0.0818  0.1844
10531W        W30811  15.611  15.288   9.955  0.0935 -0.1657 -0.0117
10532W        W30812   2.383  19.556   2.007 -0.0749  0.1751 -0.1278
10533W        W30813   8.682  15.249  13.776 -0.0649 -0.1051 -0.1317
10534W        W30814  14.819   5.555   2.200  0.0273 -0.0252  0.0169
10535W        W30815   2.744   1.788  13.213  0.0620 -0.3280 -0.1186
10536W        W30816  16.098  11.468   2.342  0.3395  0.2526  0.2981
10537W        W30817   5.282   8.203  10.914 -0.5173 -0.2803 -0.0077
10538W        W30818  14.491   8.675  13.798  0.1828 -0.0391 -0.3516
10539W        W30819  18.792  16.062   2.821  0.1183 -0.1735 -0.0797
10540W        W30820  14.213  14.749   1.948 -0.1487 -0.0797  0.0185
10541W        W30821   7.983   2.430  11.124 -0.0021  0.1794 -0.0170
10542W        W30822  18.346   1.584   4.557 -0.0795 -0.1570 -0.0442
10543W        W30823   7.698  17.500   3.104  0.2294 -0.1974  0.2623
10544W        W30824   4.659  16.564   1.846 -0.1033 -0.1880 -0.3103
10545W        W30825   7.738  18.944  11.376  0.1363  0.0325 -0.1762
10546W        W30826  15.025  19.400   0.686 -0.0998  0.0345  0.1101
10547W        W30827   3.986  16.349   3.172 -0.0237  0.1102  0.1130
10548W        W30828  10.751   0.159   1.981 -0.0733  0.1792 -0.0060
10549W        W30829  14.856  12.197  11.934 -0.1934 -0.2187 -0.2508
10550W        W30830   2.849  11.848  10.686 -0.0666  0.1516 -0.2152
10551W        W30831   6.903  11.520   4.472 -0.0450 -0.0089  0.0026
10552W        W30832  10.538   9.018  12.149 -0.2205  0.1185 -0.1875
10553W        W30833  12.441  11.403   2.094 -0.0260 -0.0225  0.3746
10554W        W30834   3.704   9.445   1.006  0.1912  0.2294 -0.3099
10555W        W30835   6.283  11.685   1.775  0.0095  0.0903 -0.0654
10556W        W30836   4.818  17.608  12.351  0.2669 -0.1768 -0.0006
10557W        W30837  15.243  17.830   1.642  0.0698  0.4971 -0.3713
10558W        W30838  16.707   9.360   4.459 -0.1131  0.1783 -0.2879
10559W        W30839   7.657   2.638  12.332 -0.1406 -0.2663 -0.0966
10560W        W30840   8.822  10.154   0.911 -0.1486 -0.3447 -0.1257
10561W        W30841   4.144  12.693  11.798 -0.0549  0.3053  0.1139
10562W        W30842   3.963   5.450   0.774  0.0778 -0.0863  0.1067
10563W        W30843  19.892  17.763   1.866  0.0242  0.3235 -0.0957
10564W        W30844   4.140  12.870   3.728  0.0503 -0.0419  0.0264
10565W        W30845   5.352   2.658   3.286  0.1547 -0.1731 -0.1293
10566W        W30846  12.383   7.583  11.037 -0.1506  0.1918 -0.0929
10567W        W30847  10.416   8.550   0.507  0.0973 -0.3056 -0.1268
10568W        W30848   9.859  13.867   1.602 -0.1918  0.3382 -0.2165
10569W        W30849  18.620  14.152  13.639 -0.0824  0.1136 -0.2122
10570W        W30850   1.148  15.026  10.271 -0.0344 -0.0015 -0.2055
10571W        W30851   1.453  16.087  12.684 -0.3069 -0.0256  0.0774
10572W        W30852   8.821   6.799   2.190  0.1168  0.0078 -0.2012
10573W        W30853   8.706  15.331  11.203 -0.0699 -0.3146  0.2509
10574W        W30854   0.074   7.982   1.705 -0.1683 -0.0734 -0.0823
10575W        W30855   1.720  10.713  11.355 -0.3552 -0.0613  0.1338
10576W        W30856  17.951   0.817   2.346 -0.0637 -0.0753 -0.2583
10577W        W30857   7.442  17.523  13.358 -0.0638  0.0342 -0.0900
10578W        W30858   7.179   3.802  13.284 -0.1333 -0.2570  0.0419
10579W        W30859   6.857   8.090   2.372 -0.0389  0.1709 -0.0166
10580W        W30860   3.211   1.830   2.740 -0.4253  0.0816  0.0436
10581W        W30861  16.136  18.770  11.958  0.2133 -0.2327  0.0807
10582W        W30862  18.887   9.072   2.961 -0.1258 -0.3086  0.0451
10583W        W30863   1.969   4.337   8.843 -0.2333 -0.2798  0.0898
10584W        W30864   8.656   0.415   1.753  0.1085  0.2911 -0.1357
10585W        W30865  14.090  15.011  11.584  0.4521  0.1440  0.1167
10586W        W30866  16.384   5.794  11.409 -0.0631  0.0027  0.0900
10587W        W30867  10.532   1.698   2.167  0.2250 -0.0492  0.0075
10588W        W30868  10.804   0.915  13.522 -0.0822  0.2648 -0.1984
10589W        W30869  19.475  14.120  12.035 -0.0167  0.2205  0.0886
10590W        W30870  14.818  13.579  11.317  0.1180 -0.0787 -0.0772
10591W        W30871   7.434  16.930  13.444  0.2693  0.2502 -0.3055
10592W        W30872   5.361   5.821  11.531 -0.0367 -0.1100  0.0329
10593W        W30873  17.455   8.966  12.033 -0.2644 -0.0794  0.0219
10594W        W30874   5.382   6.764   3.356  0.1193 -0.0961 -0.0145
10595W        W30875   3.592  16.040  10.869  0.3272 -0.0590 -0.1310
10596W        W30876  15.807   5.140   2.305 -0.1594  0.2915  0.0537
10597W        W30877   2.640   7.193  12.945  0.3457 -0.3283  0.1040
10598W        W30878   4.658  16.489   3.986 -0.1544  0.2816 -0.1970
10599W        W30879  10.156  19.382  13.156  0.0120 -0.1031 -0.0745
10600W        W30880  18.152   0.397   2.957  0.2071  0.0100 -0.2911
10601W        W30881   7.778  11.239   3.655  0.1999 -0.0461  0.1241
10602W        W30882   6.788   4.862  12.010 -0.1050  0.0312 -0.0215
10603W        W30883   9.708  15.775  13.601 -0.0443 -0.3569  0.1963
10604W        W30884  10.640  19.083   3.677 -0.1473  0.1892  0.2260
10605W        W30885   3.347   5.084   2.900  0.0602 -0.0920 -0.0499
10606W        W30886   4.266   8.283   2.864 -0.0216  0.0595  0.3027
10607W        W30887  19.454  10.282  12.894 -0.0498 -0.1849  0.2060
10608W        W30888   6.405  16.950   0.521 -0.0659 -0.0038  0.1990
10609W        W30889   6.160   7.961   0.481  0.3139 -0.2409  0.0640
10610W        W30890  15.605   3.099  13.748  0.2728 -0.3103 -0.1412
10611W        W30891   1.804  18.012   0.353  0.0141 -0.0440 -0.2082
10612W        W30892   0.666  18.009   1.998 -0.5399  0.1020  0.0109
10613W        W30893   1.949  14.923  10.700  0.2100  0.3169  0.3571
10614W        W30894   0.702  14.570  13.211  0.1418  0.3043 -0.2698
10615W        W30895  10.170   3.815   2.500 -0.0539 -0.3170 -0.0613
10616W        W30896  12.884  18.047   9.522  0.2403  0.2951  0.0709
10617W        W30897  10.584  10.343   3.587  0.1181 -0.1865 -0.2913
10618W        W30898  19.251  19.572   2.148 -0.2778  0.2165  0.0941
10619W        W30899   9.610   8.970   9.564  0.3641  0.1590 -0.2829
10620W        W30900   2.896   2.844   4.026  0.2901 -0.2257 -0.1774
10621W        W30901  10.907  13.335  11.514 -0.0375  0.0122 -0.0391
10622W        W30902   7.332   8.490  13.837  0.2324  0.1676 -0.1148
10623W        W30903  11.514   0.100   2.605  0.0719  0.1902 -0.0448
10624W        W30904  17.080   8.148   9.768 -0.2961 -0.1818 -0.1048
10625W        W30905   8.309   0.381   0.839  0.2038  0.1347 -0.0471
10626W        W30906   4.989  12.548   2.079 -0.0487  0.1933 -0.2789
10627W        W30907  16.124  18.972   1.448  0.2686  0.3223  0.0165
10628W        W30908   2.245   2.997  12.725 -0.1014 -0.0264  0.2912
10629W        W30909  10.586   6.617   1.269  0.1998 -0.0033 -0.4788
10630W        W30910  16.566   5.300   3.271 -0.2301  0.0843 -0.0252
10631W        W30911   3.989  13.604  11.996 -0.0315  0.3249 -0.3198
10632W        W30912  16.851   9.142  13.371 -0.0030 -0.0215 -0.0457
10633W        W30913  14.670   2.884   4.589  0.1426 -0.0270  0.1401
10634W        W30914  15.595   9.443   0.089 -0.2827  0.0613 -0.1512
10635W        W30915  16.365   7.913  12.566  0.1693 -0.0694 -0.0229
10636W        W30916   8.584  17.909  10.311 -0.1625  0.2144 -0.0817
10637W        W30917  14.770  16.663  11.782 -0.0439 -0.1024 -0.3288
10638W        W30918  11.051   8.208   2.526 -0.4117 -0.2036  0.0348
10639W        W30919  11.289  17.455   9.296 -0.3181  0.1694  0.2033
10640W        W30920   6.033  17.855   3.906 -0.1965 -0.3023 -0.1185
10641W        W30921  16.408  10.635   0.157  0.1143  0.4624 -0.1017
10642W        W30922  13.585  14.288   9.988  0.2353  0.2120  0.1404
10643W        W30923   8.050   2.906  10.374  0.1770 -0.1573  0.1133
10644W        W30924   2.401   7.638   1.917 -0.0230  0.2855 -0.1648
10645W        W30925   2.822  14.979  13.160  0.1235  0.1196 -0.0557
10646W        W30926   3.886   6.445  10.674 -0.3598  0.0279 -0.0499
10647W        W30927   3.869   1.861  12.221  0.1832 -0.0822  0.0252
10648W        W30928  18.898  19.524  10.517  0.1771  0.2479 -0.1437
10649W        W30929   3.502  18.407  12.847  0.0365 -0.0256  0.2713
10650W        W30930   7.511   9.141  10.946  0.1646 -0.0466  0.2731
10651W        W30931   3.321   9.054   2.635 -0.0086  0.3710 -0.2287
10652W        W30932   9.861   2.284  11.102  0.1346 -0.1115  0.0087
10653W        W30933   1.823   2.791  10.699  0.2195 -0.2063  0.0927
10654W        W30934   2.310   8.399   1.372 -0.1500 -0.0749 -0.3183
10655W        W30935   4.167   7.230  13.285 -0.0599 -0.0350  0.0657
10656W        W30936   2.663   8.210   0.056  0.0376 -0.4000  0.2668
10657W        W30937  19.085  10.182   0.995  0.3809 -0.1912 -0.1644
10658W        W30938   6.186  14.826  11.249 -0.4227  0.4733 -0.1827
10659W        W30939   5.700  12.394   1.517  0.1017 -0.1324  0.1082
10660W        W30940   0.673  15.879   1.697  0.0673 -0.0856  0.1480
10661W        W30941   7.791  13.079  12.063  0.3134 -0.0518  0.2072
10662W        W30942   5.243   4.288   1.237 -0.1145  0.0013  0.0869
10663W        W30943  11.319  12.670   0.567 -0.0141  0.1049  0.0395
10664W        W30944   4.148   0.025   0.771  0.2259  0.1100 -0.2913
10665W        W30945  16.226   2.533   1.782  0.1052  0.5213  0.2011
10666W        W30946   3.260   1.390   0.993  0.0785  0.1998  0.2990
10667W        W30947  10.050   0.542   3.664  0.2274  0.1916  0.1516
10668W        W30948   0.890   5.494  12.007  0.2389 -0.2528  0.0930
10669W        W30949   8.196   7.741   2.853 -0.4417 -0.1155 -0.1360
10670W        W30950   0.429   6.782   3.474 -0.1629  0.0518  0.0112
10671W        W30951  12.008   3.486  12.586 -0.3525 -0.1275 -0.1786
10672W        W30952   4.707  16.506  13.259  0.1948  0.2695  0.1426
10673W        W30953  10.184   2.362   1.308 -0.2730 -0.0046  0.1038
10674W        W30954  15.381   2.182  13.006  0.2203  0.0659  0.0811
10675W        W30955   4.969  17.323  10.195 -0.2105  0.2083  0.2726
10676W        W30956   1.632   1.701   3.764 -0.0503 -0.2476 -0.2130
10677W        W30957  12.394  18.989  12.893 -0.2348  0.2235 -0.2279
10678W        W30958   4.740   1.520  11.942 -0.0314 -0.0925  0.1014
10679W        W30959   4.571   6.521   2.147 -0.0460  0.0989  0.0663
10680W        W30960   5.950  15.147  10.444  0.0059 -0.0598 -0.0433
10681W        W30961  12.503  17.507  10.278  0.0502  0.0847  0.1003
10682W        W30962  13.160  14.428   2.733 -0.1753  0.2338  0.4694
10683W        W30963   3.966  17.920   3.894 -0.0417 -0.0928  0.2425
10684W        W30964  13.681  10.665   1.237 -0.0425  0.2897 -0.1327
10685W        W30965  19.148  19.053   1.447  0.0410  0.2164  0.0686
10686W        W30966   6.957   5.798   2.495  0.0286  0.0311  0.0743
10687W        W30967  14.127   4.345  13.818 -0.0918  0.0962 -0.0124
10688W        W30968  11.623  15.669   4.890 -0.2686 -0.1765  0.1957
10689W        W30969  12.095   2.644   2.220  0.2471 -0.1245  0.0620
10690W        W30970  17.671  17.226  10.690 -0.0076 -0.1007 -0.1206
10691W        W30971  11.069  18.173   0.097  0.2186 -0.1490 -0.0846
10692W        W30972  10.345  12.901  11.109  0.2228 -0.0684 -0.2237
10693W        W30973  13.497   9.006  11.364  0.0214  0.1168  0.0688
10694W        W30974   0.783   6.711  11.234  0.2489  0.0038  0.0078
10695W        W30975   3.084   3.656   1.102  0.1098  0.0153  0.3607
10696W        W30976   9.576   7.275  12.139 -0.2884  0.0177 -0.1155
10697W        W30977   5.413  11.124   0.840 -0.1546  0.2631 -0.2909
10698W        W30978   4.087  14.386   2.800 -0.0105  0.0459  0.0589
10699W        W30979   6.140   3.806  10.502  0.3058  0.0805  0.0324
10700W        W30980  14.141   2.692   0.256  0.0229 -0.1762  0.2241
10701W        W30981   1.274   0.415  12.421 -0.1283  0.3599  0.2202
10702W        W30982  12.847  19.883  10.412 -0.3201  0.1279  0.2856
10703W        W30983  12.812   5.824   9.861  0.1418  0.0579  0.3468
10704W        W30984   3.746  16.596  13.443 -0.1032 -0.1158 -0.1997
10705W        W30985   3.486  19.688   3.645  0.1718 -0.0766  0.0446
10706W        W30986   1.276   0.475   3.522 -0.1555  0.0297  0.0555
10707W        W30987   7.951   8.225   0.971 -0.3463  0.0785 -0.0554
10708W        W30988   1.502  13.425  13.267  0.0368 -0.1946  0.2671
10709W        W30989   7.692   6.714   3.538  0.0219 -0.1056 -0.2350
10710W        W30990  19.875   3.111   2.148  0.1413  0.1417  0.0856
10711W        W30991  13.360  15.579  11.464 -0.1469 -0.2845 -0.0834
10712W        W30992   4.363  16.498  11.043  0.4657  0.2449  0.1192
10713W        W30993  12.033   9.340  11.491  0.0676 -0.0101 -0.3732
10714W        W30994  17.223  18.175  10.630  0.1292  0.1085  0.0318
10715W        W30995  19.437  19.155   0.631 -0.0644  0.2554  0.0062
10716W        W30996  13.703  12.977   0.605 -0.2437  0.0269 -0.0074
10717W        W30997   6.228   9.538  10.986  0.4732 -0.1050 -0.1043
10718W        W30998   4.881   5.100   3.242 -0.0534 -0.0810  0.4089
10719W        W30999  18.738  11.173   3.756 -0.1881  0.0198  0.1748
10720W        W31000  14.152  13.171   1.091  0.1015  0.0707 -0.1811
10721W        W31001   7.464  10.283   0.383 -0.0064  0.1688 -0.2280
10722W        W31002  18.381  16.354   0.920  0.2143 -0.2056 -0.0064
10723W        W31003  17.707   3.294  11.800 -0.0724 -0.0418 -0.0520
10724W        W31004  13.984  10.407   0.875  0.1785 -0.0084 -0.4240
10725W        W31005   2.798  16.187  13.555 -0.1322 -0.3652 -0.1265
10726W        W31006   8.013   2.722  13.254 -0.2101 -0.0334  0.2745
10727W        W31007   8.255  12.524  12.736  0.2838  0.1601  0.1461
10728W        W31008   6.369  13.315   0.489 -0.1006  0.0973 -0.2261
10729W        W31009   3.793  15.788   3.123  0.1663  0.1135 -0.1976
10730W        W31010   7.681  11.667   3.443 -0.0308  0.1130  0.1871
10731W        W31011  13.623   3.568  11.594 -0.0974 -0.0399 -0.4507
10732W        W31012   3.732   3.285   3.835  0.2819 -0.1319 -0.3109
10733W        W31013   5.435  10.523   0.753 -0.2751  0.0956 -0.1690
10734W        W31014  18.355  19.056   2.273  0.0247 -0.1212  0.1722
10735W        W31015  16.449  17.637   9.868  0.3455 -0.2158 -0.1418
10736W        W31016   6.083  14.398  10.963  0.2893  0.3412 -0.0481
10737W        W31017  11.718   5.984  12.278 -0.2111  0.0056 -0.0637
10738W        W31018  19.814   2.404  13.555  0.1284  0.1611 -0.0009
10739W        W31019   1.189  10.892  11.815  0.3047 -0.0757 -0.2018
10740W        W31020   2.770  19.426   1.145  0.3143 -0.0256  0.0021
10741W        W31021   4.639   8.365  13.401  0.1441 -0.3002  0.1172
10742W        W31022   7.171   9.374  11.262 -0.1331 -0.0294  0.0150
10743W        W31023   5.775   0.672  13.273  0.2100  0.2653 -0.0227
10744W        W31024  15.766  11.059   2.411 -0.0990 -0.0493  0.0143
10745W        W31025   3.281   3.419  13.541 -0.1228  0.3565 -0.0154
10746W        W31026   8.325   5.736   0.170 -0.1282  0.1616 -0.1764
10747W        W31027  11.596  16.056   2.108 -0.1100 -0.2006  0.2537
10748W        W31028   2.297  13.341   0.610  0.1565  0.0751  0.1796
10749W        W31029   4.603  11.823   3.221  0.2894 -0.1238  0.2652
10750W        W31030   7.720   6.455  11.156 -0.0926  0.2374 -0.0075
10751W        W31031  14.753  17.620   0.947  0.0845 -0.1178 -0.3549
10752W        W31032   5.188  15.415  11.449  0.1874 -0.0121 -0.0703
10753W        W31033   6.937  15.969  13.524  0.0307 -0.2398  0.4142
10754W        W31034   9.768  12.282  11.091 -0.0032 -0.5050 -0.0796
10755W        W31035  16.191  12.265  13.643  0.4788  0.0960 -0.2416
10756W        W31036  17.768   2.561   2.725  0.0738  0.1220  0.0076
10757W        W31037  14.436   9.479   8.936  0.2014  0.0322  0.1823
10758W        W31038  15.886   6.281   3.782  0.1442 -0.1730  0.0791
10759W        W31039  10.230  16.207   1.794  0.1532 -0.4024  0.1528
10760W        W31040   4.617  12.406   2.432 -0.1335 -0.0097  0.0864
10761W        W31041  15.097   5.611   1.752  0.1668 -0.1008 -0.0174
10762W        W31042  10.695  14.859  12.408 -0.1641  0.0387  0.3199
10763W        W31043   8.630  18.802   2.399  0.1385  0.0528 -0.3651
10764W        W31044   7.397  12.787  12.272 -0.1153  0.0892  0.1496
10765W        W31045  15.032  10.847  13.188  0.0207  0.0193  0.0960
10766W        W31046  15.887  17.847  13.101  0.2316  0.2294  0.3164
10767W        W31047   1.560  10.767   3.197  0.0909  0.1037  0.1018
10768W        W31048  11.219  12.983   3.762  0.0996 -0.2656  0.3934
10769W        W31049   0.647   6.832  11.686 -0.0817 -0.3935  0.1307
10770W        W31050   4.026  12.766   1.550  0.2621  0.0272 -0.1862
10771W        W31051  16.834  11.864   0.758  0.0802  0.2600  0.0448
10772W        W31052  10.660  18.275   3.398 -0.2854 -0.2753 -0.1199
10773W        W31053   6.190  17.669   3.126 -0.3875 -0.0274 -0.0857
10774W        W31054   3.236   6.276  11.423  0.4216  0.0363  0.4714
10775W        W31055   3.342   3.728   4.038 -0.3793  0.2085  0.1154
10776W        W31056  15.846   1.200   4.049  0.2225  0.0737 -0.1841
10777W        W31057   4.230   3.118  10.046  0.1263  0.0225  0.2342
10778W        W31058   2.936  12.436   0.800  0.1184 -0.1310 -0.0409
10779W        W31059   4.555   9.167  11.503  0.0703 -0.1595  0.0402
10780W        W31060  18.174   1.564  13.069  0.1883 -0.2587 -0.0284
10781W        W31061   4.866   2.759   3.217 -0.0533 -0.1949  0.3291
10782W        W31062   6.228  12.717   0.327  0.1374 -0.0371 -0.0048
10783W        W31063   2.974   2.716  13.706 -0.1648  0.2256 -0.0577
10784W        W31064  13.857   0.861   2.830 -0.0303 -0.1971  0.1476
10785W        W31065   8.918   9.487   0.001  0.1857  0.0874 -0.0470
10786W        W31066   8.350  10.428   1.671  0.3161 -0.1313  0.0205
10787W        W31067   7.887   9.312   2.869  0.2256  0.0064  0.1833
10788W        W31068   0.306   1.938   0.808  0.0813  0.2200 -0.1513
10789W        W31069  10.843   0.568   0.094 -0.0533  0.2598  0.2397
10790W        W31070   1.919   7.953   2.132 -0.2135 -0.1963  0.1625
10791W        W31071  19.948   1.035  10.161 -0.0968  0.3049  0.1677
10792W        W31072  15.140  14.615  12.882  0.3322  0.1801 -0.0511
10793W        W31073   3.530   9.667   4.620 -0.2956 -0.0719  0.0320
10794W        W31074   4.595  19.105  13.527 -0.2136 -0.0314  0.2319
10795W        W31075   1.959  10.650  13.146  0.2593 -0.0071 -0.0717
10796W        W31076   0.084  14.917  10.464 -0.0454  0.2627 -0.0394
10797W        W31077   3.469  19.493  11.480 -0.0774  0.0547  0.1927
10798W        W31078   5.726  13.979   1.795 -0.2817  0.1372 -0.1432
10799W        W31079   7.306   0.158  10.508  0.2245  0.0355 -0.2650
10800W        W31080   2.504   1.900  10.217 -0.0875 -0.0263  0.1314
10801W        W31081   5.143   4.092  13.394 -0.0919  0.1129  0.1518
10802W        W31082   6.500  13.560  10.072  0.0776 -0.0355 -0.0234
10803W        W31083   3.810   3.280   0.984  0.0323  0.1472 -0.3421
10804W        W31084  13.369   4.013  12.643 -0.5213  0.1578 -0.1021
10805W        W31085  12.433   4.012   3.086 -0.1484 -0.1608  0.2051
10806W        W31086  14.852  13.613  10.753  0.2440 -0.3830  0.2546
10807W        W31087  16.708   8.748   0.536  0.1152 -0.1968  0.3415
10808W        W31088  14.122   5.073  13.066 -0.1835  0.4373 -0.0697
10809W        W31089  12.285   8.848  12.202 -0.0210  0.1423 -0.0101
10810W        W31090   9.909   1.365  13.369  0.2321  0.0471  0.4844
10811W        W31091  10.324   8.082  11.633  0.1066 -0.0565 -0.1050
10812W        W31092  10.008   4.778   0.805 -0.1878 -0.1332  0.2722
10813W        W31093   0.214   8.358  11.950 -0.0469 -0.2490  0.1997
10814W        W31094  11.864   8.821  11.285 -0.1616 -0.0541 -0.1975
10815W        W31095  14.987  18.800   1.391  0.2000  0.4521  0.3603
10816W        W31096  19.550  11.920   1.923 -0.0922  0.0548 -0.1220
10817W        W31097   8.594  10.096   1.401 -0.2302 -0.2194 -0.0603
10818W        W31098  16.337   2.164   3.315 -0.3151 -0.4313 -0.0434
10819W        W31099   3.891  11.037   0.853  0.2229  0.0805  0.0371
10820W        W31100  16.442  18.314  12.458 -0.2438  0.2255  0.2936
10821W        W31101  11.361  17.144   0.973 -0.2946 -0.1253  0.2251
10822W        W31102   4.197  17.942   1.773 -0.0570  0.1305 -0.0611
10823W        W31103   9.916  13.458   1.872 -0.2221  0.0253  0.2033
10824W        W31104  14.609   7.612   1.440 -0.1494  0.0322 -0.0050
10825W        W31105  11.857   6.074  13.007  0.0169  0.2415  0.0804
10826W        W31106   9.019   4.387  11.675  0.0932 -0.2254  0.1609
10827W        W31107   3.816   6.289  13.145 -0.1276 -0.0514 -0.0845
10828W        W31108   2.891   8.734  10.330 -0.0172  0.0429 -0.2752
10829W        W31109  13.501   1.445   3.788  0.0603  0.0765  0.0140
10830W        W31110  13.955  18.226   1.083 -0.3968  0.1753 -0.0257
10831W        W31111  10.399   2.300  13.308 -0.0469 -0.0759  0.0461
10832W        W31112   5.813   8.425   1.330  0.3286 -0.0871 -0.1978
10833W        W31113   6.767  10.883   0.943 -0.0203 -0.1460  0.0062
10834W        W31114   9.160  14.116   1.769  0.0052 -0.1914 -0.0520
10835W        W31115   0.639  12.579  12.230  0.2369 -0.0864 -0.1892
10836W        W31116  14.998  18.650  11.558 -0.1355  0.0441 -0.2917
10837W        W31117  16.675   3.252   1.037  0.0572  0.1158 -0.1372
10838W        W31118  14.848  17.547   1.745 -0.2479 -0.0731 -0.1186
10839W        W31119  12.931  15.847  10.634 -0.3159 -0.0196  0.1162
10840W        W31120  18.300  15.944   3.133  0.0282 -0.2484 -0.0508
10841W        W31121   6.288  14.653   2.374 -0.2132 -0.0887  0.2819
10842W        W31122  18.293   0.417  10.802  0.1406 -0.2916 -0.1084
10843W        W31123  16.431  14.119   1.545  0.0318  0.0807 -0.2291
10844W        W31124  13.997  16.513   0.226  0.2889  0.0239 -0.1704
10845W        W31125   4.974  14.071   9.542  0.1595  0.0649  0.5691
10846W        W31126   5.152   4.139   3.167  0.2346  0.1322  0.3094
10847W        W31127   1.096   1.810  12.257 -0.0187  0.0317  0.0697
10848W        W31128  15.279   2.931   0.280  0.1438  0.6471  0.0054
10849W        W31129   2.330   3.664  11.949 -0.1725  0.0487 -0.1562
10850W        W31130   3.432   9.446   3.172  0.0184  0.0147 -0.1092
10851W        W31131  15.410  17.957  11.445 -0.1466  0.0346  0.2424
10852W        W31132   5.719  17.939   5.162 -0.1388  0.0236  0.1548
10853W        W31133   8.663   5.332   2.282  0.0607 -0.0702 -0.4082
10854W        W31134   4.388   8.135   3.348 -0.2720  0.1854  0.1178
10855W        W31135   3.845   5.411   0.294 -0.0690  0.0129  0.1142
10856W        W31136  19.400  16.556  11.471 -0.1288  0.1092 -0.0720
10857W        W31137  15.633   1.815   1.744 -0.1617 -0.2745  0.3475
10858W        W31138  19.282  15.447  11.123 -0.0414  0.0441  0.0632
10859W        W31139  13.238   0.173  11.246  0.0155 -0.0379  0.1159
10860W        W31140  18.232   6.678   0.656 -0.0002  0.2637  0.3132
10861W        W31141   9.673  18.908   3.731  0.0727 -0.3974 -0.0486
10862W        W31142   8.644  13.218  12.071  0.0806 -0.1857  0.3841
10863W        W31143   7.288  15.808   3.840  0.1364 -0.1170 -0.1748
10864W        W31144   2.671  13.541   0.984  0.1262  0.0957  0.1738
10865W        W31145  11.395  19.602   1.267  0.2158 -0.1224  0.1506
10866W        W31146  14.879   8.680   2.334  0.2054  0.1992 -0.1529
10867W        W31147   2.368   1.594  11.332 -0.0240  0.2808  0.0496
10868W        W31148   3.548  19.775   2.511 -0.3896  0.3386 -0.2694
10869W        W31149  16.779  15.163   4.202 -0.0874  0.1583 -0.2417
10870W        W31150   9.126   5.616   2.267 -0.0904  0.2317  0.0218
10871W        W31151   9.319  14.838  13.502 -0.1196 -0.0160 -0.1406
10872W        W31152   2.904  17.505  12.108 -0.3581  0.0190 -0.0872
10873W        W31153   4.527  14.475  12.333 -0.0985  0.2422  0.2444
10874W        W31154  18.677  18.658  12.393 -0.1174 -0.1117  0.1582
10875W        W31155  13.534  16.606   1.349 -0.1179  0.0469  0.1535
10876W        W31156  19.650   4.366  10.662 -0.0235 -0.3564  0.0572
10877W        W31157   7.596  18.985   3.783 -0.1823  0.4496 -0.0950
10878W        W31158   9.920   8.080   1.134  0.0845 -0.0318 -0.1362
10879W        W31159  19.915  16.454  13.191 -0.0632  0.0783  0.0258
10880W        W31160  15.662   2.470   2.627 -0.1277  0.0895 -0.2624
10881W        W31161  12.781  19.463   2.131 -0.0314  0.1853  0.0652
10882W        W31162   1.723   9.291   9.596 -0.0445 -0.0136 -0.0532
10883W        W31163   1.073   6.032  11.732 -0.1311  0.0721  0.0394
10884W        W31164   2.105  15.566   0.971 -0.3160 -0.0088  0.1371
10885W        W31165   6.488  15.711   3.802  0.1214 -0.1757  0.2944
10886W        W31166   1.376  15.727   2.827 -0.2225 -0.1709  0.1052
10887W        W31167  13.270   6.985  13.454 -0.3306 -0.0547  0.0772
10888W        W31168  13.588   7.577  12.226 -0.0151  0.0652 -0.0242
10889W        W31169  18.465  14.856   1.906  0.0720  0.0189 -0.1320
10890W        W31170  17.732   7.203  12.352  0.1853  0.0852 -0.5195
10891W        W31171  17.015  16.315  13.106  0.0525  0.1209 -0.2975
10892W        W31172   4.409  18.811  11.841  0.2442 -0.0986  0.2095
10893W        W31173  14.756  13.244   1.843  0.2998 -0.0681  0.0324
10894W        W31174  12.398  17.883  10.644  0.1258  0.0356  0.1716
10895W        W31175  14.967   6.022   2.140  0.2727  0.0058  0.2309
10896W        W31176  16.116   4.900   9.033  0.2957  0.0450 -0.0874
10897W        W31177   0.231  10.427  11.585  0.3980  0.2773  0.0790
10898W        W31178   2.918   6.291   2.781 -0.1660 -0.0747 -0.3450
10899W        W31179   9.619   3.459  13.633 -0.0269  0.2460 -0.3874
10900W        W31180  18.084   6.391  13.367  0.2203  0.0166  0.3165
10901W        W31181   7.553  15.294   1.179  0.1837  0.0135 -0.0460
10902W        W31182  11.220  11.578   4.280  0.2639 -0.0066  0.0585
10903W        W31183   4.731   8.774  13.782  0.0976  0.4605 -0.0134
10904W        W31184   9.343   8.867  12.510 -0.1126 -0.1352 -0.1966
10905W        W31185  12.683   6.337   0.962  0.3142  0.0628 -0.2406
10906W        W31186   7.417  10.993   3.898  0.4310  0.3163 -0.2822
10907W        W31187  15.477  11.461  13.230  0.2561  0.1261 -0.0503
10908W        W31188  14.660   3.137  12.548  0.0861 -0.2048  0.1517
10909W        W31189  18.005   6.239  11.818 -0.0499 -0.2792 -0.1511
10910W        W31190   5.657   0.281   0.965 -0.0253  0.1198  0.1319
10911W        W31191   1.900   9.568  11.009 -0.0410  0.0653 -0.2201
10912W        W31192  12.286   7.933  11.834 -0.4686  0.0050 -0.0401
10913W        W31193  17.944   5.308  12.768 -0.0830  0.2254 -0.2998
10914W        W31194   6.321  18.765   3.710  0.1798 -0.6888 -0.2748
10915W        W31195  13.343  16.394  11.509  0.0243  0.3650  0.1177
10916W        W31196   7.645  16.121   3.032  0.1376  0.1536 -0.3202
10917W        W31197  17.425   9.931   2.244 -0.0011 -0.2151  0.5024
10918W        W31198   4.748   8.513  11.003  0.0576 -0.1035  0.1913
10919W        W31199  10.546   7.073   5.338 -0.3783  0.3112  0.1475
10920W        W31200   8.264  11.649   1.504 -0.2635 -0.0397 -0.0215
10921W        W31201   4.158   3.590   1.220  0.2914  0.2295 -0.0314
10922W        W31202   4.814  18.160  10.637  0.1188 -0.3398 -0.1856
10923W        W31203  11.389  17.632   2.924 -0.1500  0.0272  0.1681
10924W        W31204   4.846  13.548  12.465 -0.1081  0.2573 -0.3051
10925W        W31205  13.813  19.022   4.027 -0.1818 -0.3927 -0.0445
10926W        W31206   9.800  17.240  10.297  0.0163 -0.1105 -0.1373
10927W        W31207   8.057  18.501  12.456  0.0882  0.0432 -0.1063
10928W        W31208   6.780   1.978   2.166  0.1608  0.1306 -0.1653
10929W        W31209   3.056  19.893   3.552  0.1199 -0.4405  0.0801
10930W        W31210  14.825   3.978   3.871  0.1183 -0.0001  0.2027
10931W        W31211   2.773  12.520   3.246  0.0693  0.0426  0.0583
10932W        W31212   0.483   9.853  12.769  0.1965 -0.0028  0.3256
10933W        W31213  11.612  11.343   2.693  0.0124  0.0586  0.0858
10934W        W31214   9.712  19.465  11.036  0.0788 -0.0322  0.2959
10935W        W31215  11.172  18.967   3.685 -0.0461  0.5968  0.2447
10936W        W31216   9.980  15.351   1.946  0.1130  0.0346 -0.1121
10937W        W31217   5.289  18.653  11.516 -0.0227  0.1937  0.0351
10938W        W31218   7.857  11.847  13.400 -0.1723  0.0879  0.2013
10939W        W31219   4.400   4.507  10.436  0.0237 -0.0579  0.0300
10940W        W31220  18.861   2.208   3.288 -0.2192  0.0524  0.0713
10941W        W31221   8.196  19.573   2.935  0.0899  0.0423 -0.0124
10942W        W31222  17.911   7.525   2.335 -0.0637  0.0142 -0.0578
10943W        W31223  10.292  14.116   1.585 -0.0217  0.0503 -0.1129
10944W        W31224  13.077  16.043   0.766 -0.0543 -0.2901 -0.0623
10945W        W31225   8.798   2.757   3.295 -0.3155  0.3027  0.0871
10946W        W31226  15.032  15.437   1.067  0.2472  0.0299 -0.0681
10947W        W31227   1.494  16.762  12.508 -0.0585 -0.1353 -0.0345
10948W        W31228   2.295   3.621  10.905 -0.0941 -0.0839 -0.0666
10949W        W31229   3.722  11.777   1.668 -0.3793 -0.1921 -0.0549
10950W        W31230   8.537  17.672  12.774  0.2132  0.0173 -0.0498
10951W        W31231   6.154   3.448   4.892  0.0795  0.2324  0.0523
10952W        W31232  10.757  16.417   1.512  0.1603 -0.0208 -0.3313
10953W        W31233   2.173   1.414  12.149  0.2526 -0.1283  0.1929
10954W        W31234   2.967  17.935   3.047 -0.0528 -0.0021  0.2194
10955W        W31235  19.016  13.369  10.793  0.1659  0.4671  0.1335
10956W        W31236   1.243   8.561   1.788 -0.1260  0.0278 -0.1276
10957W        W31237   8.333   2.924   1.481  0.0540  0.2066 -0.1464
10958W        W31238   6.555   6.281  12.277  0.2206 -0.0636  0.1631
10959W        W31239  13.529   9.946  11.223 -0.0320  0.0282  0.1049
10960W        W31240   2.072   1.719   3.394 -0.1538 -0.1044 -0.3588
10961W        W31241   9.883   3.270  13.202 -0.0712 -0.5524  0.1788
10962W        W31242  10.526   4.608   3.470  0.1545 -0.0059 -0.0723
10963W        W31243  17.383   8.361  10.950 -0.1618  0.2338 -0.4019
10964W        W31244   9.496   4.020   3.745 -0.0562  0.0977 -0.0363
10965W        W31245  10.691  13.276  11.092  0.0630 -0.0845 -0.4454
10966W        W31246   5.645  16.711   0.030 -0.3395  0.3757  0.2299
10967W        W31247  16.124   5.567  10.416 -0.0001 -0.1395  0.0330
10968W        W31248  18.086   2.899   2.873  0.1297  0.1978 -0.0826
10969W        W31249   8.136   9.652   1.532 -0.2506 -0.0740 -0.1955
10970W        W31250  19.703  14.116   1.325 -0.0855 -0.0588 -0.0240
10971W        W31251   2.442   9.231   3.650  0.0006 -0.3200 -0.0095
10972W        W31252   9.600  18.203   3.128  0.1381  0.2524  0.5806
10973W        W31253   2.743  19.520   3.461 -0.1147  0.1831  0.0240
10974W        W31254  19.346   1.045   1.885 -0.2618 -0.1052 -0.1471
10975W        W31255  11.927  17.994   1.012 -0.1556  0.0677 -0.0353
10976W        W31256   6.162  11.235  12.650 -0.2026  0.0371 -0.0464
10977W        W31257  15.638   6.387   3.354  0.0937 -0.1373  0.3286
10978W        W31258  14.683  10.359  10.556  0.1437 -0.2697 -0.4809
10979W        W31259   8.277   7.275   3.000  0.1363  0.2350 -0.0240
10980W        W31260   6.697  17.359   4.529  0.4165  0.1596  0.0701
10981W        W31261   5.135  13.203   1.957 -0.0235  0.0749 -0.0264
10982W        W31262  14.668  19.940   1.505 -0.1510 -0.2288 -0.2873
10983W        W31263  11.312   8.648  13.142  0.0557  0.2310 -0.0458
10984W        W31264   9.228  13.732  10.520 -0.0297 -0.2417  0.2507
10985W        W31265   8.011  19.774  12.637 -0.0086  0.2731  0.0372
10986W        W31266   6.174  15.836  11.035  0.0961 -0.1436  0.0809
10987W        W31267  12.117  16.805  10.127 -0.1578  0.1962  0.1902
10988W        W31268  12.268  16.064   2.956  0.0105  0.0239  0.0855
10989W        W31269   2.632   5.514  10.469  0.2992  0.2024  0.0845
10990W        W31270  11.663   4.981  12.987  0.5188 -0.0779 -0.0191
10991W        W31271  18.529  16.614  10.030 -0.0239  0.0003  0.2489
10992W        W31272  16.202  17.796  13.548 -0.0721 -0.1610  0.2990
10993W        W31273   8.922   3.348  11.211 -0.0207  0.1174 -0.0404
10994W        W31274  11.514  15.339  13.038  0.3292 -0.0326  0.0582
10995W        W31275   6.663  19.851  10.031 -0.0084  0.0422 -0.1563
10996W        W31276   2.833   3.754  12.053  0.1770  0.0821  0.1631
10997W        W31277   3.512  15.517   2.854  0.2161  0.1346 -0.2772
10998W        W31278   7.329   3.521   3.591  0.0150 -0.0533 -0.0450
10999W        W31279  18.721   7.576  13.247  0.0613 -0.2483  0.2207
11000W        W31280   6.983   2.220  10.837 -0.1570  0.1238 -0.0829
11001W        W31281   7.843   0.921   1.234  0.2398  0.2351 -0.3545
11002W        W31282  13.449  15.797  13.758 -0.0340 -0.2659 -0.0801
11003W        W31283  15.311   3.470   0.307 -0.2158  0.1221 -0.1056
11004W        W31284   1.463  11.203  13.077  0.0540  0.1359 -0.0592
11005W        W31285  14.937   4.602   0.422 -0.1180  0.2533 -0.1551
11006W        W31286  15.035  11.745   3.642 -0.0557 -0.0725  0.1444
11007W        W31287  17.261   9.388  10.453  0.1217  0.4484 -0.1297
11008W        W31288   1.964   1.755   0.316 -0.2100 -0.3515  0.2487
11009W        W31289  14.093   6.985   4.547 -0.1606 -0.1840 -0.1287
11010W        W31290   2.128   4.692   9.387  0.3024 -0.1007 -0.0756
11011W        W31291  16.034   3.762   0.827 -0.0974 -0.2965  0.4125
11012W        W31292  17.484   8.927   3.242 -0.0759 -0.0124 -0.5232
11013W        W31293   4.554   4.973  10.209 -0.1331  0.1051  0.0588
11014W        W31294   3.541   1.288   0.577  0.1378 -0.3292  0.1889
11015W        W31295   8.456  18.831   4.757 -0.0039 -0.1179 -0.0395
11016W        W31296   6.319  16.798   1.040  0.1916 -0.0258 -0.3666
11017W        W31297   8.134  14.834  12.422  0.0749 -0.2125  0.1264
11018W        W31298   5.193   0.391   0.782 -0.0822 -0.3436  0.0582
11019W        W31299  19.620   4.285   3.432  0.3258 -0.4044 -0.4958
11020W        W31300  15.584  16.000   3.334 -0.2229  0.3737  0.0645
11021W        W31301  13.356   7.520  13.511 -0.1479  0.3816  0.0258
11022W        W31302  13.438  15.218   0.745 -0.0232  0.1988 -0.0336
11023W        W31303   7.708   1.496  13.401  0.0131 -0.2655 -0.0982
11024W        W31304   3.007   5.982   0.038 -0.2352  0.4817 -0.3100
11025W        W31305   3.488  12.208   0.081 -0.0305  0.1187  0.2418
11026W        W31306   5.990  12.279   0.074 -0.0380 -0.0550  0.5257
11027W        W31307   5.802  15.203   1.103  0.1038  0.0120  0.0402
11028W        W31308  10.817   6.245   1.641 -0.1900 -0.1102  0.0816
11029W        W31309  14.214  13.180   3.448  0.0568  0.0894 -0.2882
11030W        W31310   8.425  15.911  12.128 -0.2467 -0.0041 -0.0115
11031W        W31311  10.227   9.757   4.204  0.3435  0.3687 -0.0366
11032W        W31312   1.271   6.626   1.024  0.2909 -0.0764 -0.0238
11033W        W31313  18.173   2.170   2.265  0.0982  0.1130 -0.1627
11034W        W31314   8.013   3.939   0.264  0.0389  0.1387 -0.0291
11035W        W31315  14.947  19.551  13.223 -0.3832  0.3458 -0.3585
11036W        W31316  13.686   0.275   0.582 -0.3540  0.2135  0.2088
11037W        W31317  11.037  13.677   1.502 -0.3870 -0.1826 -0.0931
11038W        W31318   2.327   2.453  11.811  0.0021 -0.0632  0.0485
11039W        W31319   8.948   4.507  10.034 -0.0089  0.0015  0.0757
11040W        W31320  10.415  16.232   0.216  0.1771 -0.0221 -0.1666
11041W        W31321   2.337  16.395   9.564 -0.0212  0.0004  0.0984
11042W        W31322   5.288   1.882  11.126  0.1995  0.0892 -0.1070
11043W        W31323   2.293  11.869   2.699 -0.2648 -0.0305  0.0037
11044W        W31324  14.924   2.777  11.338 -0.4569 -0.1092 -0.0396
11045W        W31325  18.136  11.508   1.402  0.2413  0.0426  0.2715
11046W        W31326  19.393  10.536   0.191 -0.0697  0.1056 -0.0341
11047W        W31327  13.834   1.403  11.169 -0.0423  0.0727  0.2091
11048W        W31328  13.468   4.468   3.448  0.0404 -0.1802  0.0118
11049W        W31329  10.480  15.390  13.472 -0.0193  0.1755 -0.2586
11050W        W31330   4.087  10.543  12.929 -0.0684  0.1112 -0.4342
11051W        W31331   5.866   5.898  13.211 -0.1637 -0.0680 -0.0984
11052W        W31332   5.424   5.085   3.424  0.2773 -0.2673 -0.0081
11053W        W31333   9.876   6.429  11.448 -0.2363 -0.0463  0.0227
11054W        W31334   5.678   6.775  13.195  0.2535  0.0974  0.2065
11055W        W31335   0.386  10.633  13.341 -0.1542  0.0388  0.0457
11056W        W31336  12.631   4.441   2.974  0.1802 -0.0805 -0.4509
11057W        W31337   9.323   8.807   2.907 -0.0366  0.1090 -0.1282
11058W        W31338   9.724  14.490   2.369  0.3368  0.1281  0.0795
11059W        W31339   7.659  18.249   1.770 -0.2185  0.0809 -0.2434
11060W        W31340   6.278  17.267  13.149 -0.3798  0.2250  0.2716
11061W        W31341  16.698   9.753   8.632  0.1027 -0.0113 -0.3982
11062W        W31342  15.416   9.097   2.473  0.3992 -0.0475  0.2600
11063W        W31343  11.183  13.669  12.784  0.0986 -0.2088 -0.1886
11064W        W31344  17.876   0.536  11.740 -0.1033  0.4031  0.1921
11065W        W31345  19.731   6.191  13.159  0.3772 -0.2349  0.2547
11066W        W31346  14.598   4.240   0.484 -0.0730 -0.0389  0.2177
11067W        W31347   5.383  17.379  11.596 -0.1365  0.1739 -0.1334
11068W        W31348   4.831   7.633   1.944 -0.0697  0.0497  0.0410
11069W        W31349   4.021   3.549  13.087 -0.3450  0.3277 -0.1924
11070W        W31350   6.797  17.934   2.035 -0.0462  0.1489 -0.2319
11071W        W31351   2.915   2.081   3.475  0.2229 -0.0758  0.2295
11072W        W31352  19.521   4.805  11.735  0.3248 -0.0446 -0.1901
11073W        W31353   5.636   5.596   0.220 -0.0574 -0.1329  0.2026
11074W        W31354  13.872   3.845  12.555  0.1400 -0.0275  0.1293
11075W        W31355  13.911   7.844  11.806 -0.1740  0.0906  0.1529
11076W        W31356   9.957  13.684  10.455 -0.0526  0.0566 -0.1211
11077W        W31357   2.275   9.065  11.874 -0.0246  0.0076  0.2663
11078W        W31358  19.221  16.751  13.143  0.0396 -0.1701 -0.0289
11079W        W31359   1.651  13.590   9.862  0.0905 -0.3112 -0.2611
11080W        W31360   0.224   3.778   3.376  0.0356 -0.1204 -0.0273
11081W        W31361  19.098   1.531   9.980 -0.2290  0.2351 -0.0560
11082W        W31362  18.644   0.137   2.954  0.0452 -0.0681  0.0854
11083W        W31363   5.668  17.900  13.182 -0.0302  0.1037  0.1043
11084W        W31364   3.513   7.181  12.633 -0.2158  0.1419  0.0893
11085W        W31365   1.869  10.484   2.455  0.0990 -0.1911 -0.1803
11086W        W31366   1.585   6.692   3.469 -0.1066 -0.1299 -0.1023
11087W        W31367  10.843  11.545  11.306  0.1067  0.2465  0.3739
11088W        W31368  17.567   9.881  10.173 -0.1397  0.0378 -0.0495
11089W        W31369   3.422  14.619  11.501  0.3023  0.1056 -0.1821
11090W        W31370  17.981   6.308   0.974 -0.3489  0.1131  0.4429
11091W        W31371   4.218  17.007   3.189 -0.0389  0.0471 -0.1571
11092W        W31372   8.979   6.020  11.798 -0.0622 -0.2483 -0.1913
11093W        W31373   8.438   8.128   2.636  0.3257  0.4601  0.2459
11094W        W31374  14.386  10.285  12.552 -0.0963  0.1492  0.1752
11095W        W31375  14.857   0.952   2.499  0.1585 -0.0226 -0.6343
11096W        W31376  11.719   0.368  11.955  0.0328 -0.3301  0.3263
11097W        W31377   9.477  11.383   0.415 -0.1604 -0.2293  0.0380
11098W        W31378  14.993  11.727   9.249 -0.1634  0.0882  0.2367
11099W        W31379   8.520   8.539   3.356  0.0154  0.0428 -0.1235
11100W        W31380   7.389  14.135   1.107  0.0154 -0.1738 -0.0985
11101W        W31381  14.951  17.588  10.063  0.0986 -0.1970 -0.1952
11102W        W31382  13.202  19.756   3.490  0.0204  0.1352  0.3597
11103W        W31383   3.904   4.756   3.447 -0.2968  0.0280  0.0923
11104W        W31384   7.689   2.034  10.269 -0.2367 -0.2138  0.0847
11105W        W31385   1.342   0.830  10.959 -0.0621  0.1351 -0.0517
11106W        W31386   0.453  17.884   0.204 -0.3657  0.2052 -0.1398
11107W        W31387  14.344   9.721   2.984  0.3675 -0.0104 -0.0356
11108W        W31388  19.104  17.604   3.699 -0.0420 -0.0496 -0.2972
11109W        W31389   0.162   3.608  11.125  0.0772 -0.4332 -0.3016
11110W        W31390  14.854  16.436   0.622  0.2482 -0.1149 -0.2376
11111W        W31391  18.702   2.433   2.813 -0.2859 -0.0898 -0.3111
11112W        W31392  12.901  18.757  11.889  0.1732  0.1247  0.0419
11113W        W31393  12.619   0.259  12.058 -0.2425 -0.1123  0.0065
11114W        W31394   2.544  15.496   4.699  0.0873  0.2694  0.0885
11115W        W31395  10.760  17.119  13.765  0.4028 -0.2437  0.1592
11116W        W31396   3.170   5.602   1.586  0.1520  0.1004 -0.1435
11117W        W31397   4.982   3.255   3.322  0.2686  0.1731 -0.0124
11118W        W31398   9.121  11.022   0.461 -0.2630 -0.1367 -0.2601
11119W        W31399  15.308   9.881  12.961  0.3508  0.1645  0.1522
11120W        W31400   3.615   5.372  10.069 -0.0988 -0.2196 -0.2746
11121W        W31401   1.141  13.021  13.502  0.1373  0.4757  0.1411
11122W        W31402   4.139   8.390  11.535 -0.1702  0.0151 -0.2632
11123W        W31403  16.113   6.625   0.462  0.2745  0.2282  0.1201
11124W        W31404  13.176   2.157  10.871 -0.0446  0.0581  0.0782
11125W        W31405   8.849  15.887  12.339  0.3075 -0.1807  0.0226
11126W        W31406   9.106  11.273   3.871  0.1556  0.1170 -0.4033
11127W        W31407   3.280  12.341   3.855  0.1389 -0.0513 -0.2818
11128W        W31408   7.560  17.669   0.060 -0.1328  0.2478  0.1231
11129W        W31409   8.289   0.385   3.447  0.1149 -0.1672  0.4674
11130W        W31410  16.606  12.924   0.558 -0.1978 -0.1641  0.2440
11131W        W31411  13.400   9.176   3.968  0.1640  0.1848 -0.1689
11132W        W31412   0.032  15.614  13.208  0.1032  0.1961 -0.2904
11133W        W31413  13.937  13.349   2.278 -0.5342  0.4530 -0.1272
11134W        W31414   3.640  12.270   0.566  0.0367 -0.2726 -0.1287
11135W        W31415   6.217   1.183   1.895  0.3323  0.1230 -0.0416
11136W        W31416  12.016  17.537  13.620 -0.2050 -0.1280  0.2572
11137W        W31417  12.663   5.263   0.905  0.0984 -0.0048  0.0128
11138W        W31418  16.903   5.903  11.317 -0.1838  0.0068 -0.0699
11139W        W31419  16.554  11.027   2.354 -0.1263  0.0438  0.1819
11140W        W31420   0.549   1.738   0.417 -0.0136  0.0419  0.2923
11141W        W31421   0.130  12.694  11.468 -0.0450  0.1013 -0.1038
11142W        W31422  19.344  12.661   3.085  0.2305 -0.1757 -0.3742
11143W        W31423   6.078   6.157  12.459 -0.2180 -0.1865 -0.0144
11144W        W31424   5.884  11.391   0.911 -0.0589  0.0898 -0.2259
11145W        W31425  12.925   8.806   1.946 -0.1904 -0.0402  0.0842
11146W        W31426  14.256  12.964  11.675  0.2360 -0.1554 -0.0036
11147W        W31427   0.071   9.660   0.953  0.1221 -0.0472 -0.1780
11148W        W31428  16.195   0.131   0.922  0.1496  0.2144  0.1736
11149W        W31429   6.684  11.284  11.519 -0.4447 -0.2357  0.2191
11150W        W31430  19.476  16.977  10.268  0.0109  0.1374 -0.0788
11151W        W31431  14.322  11.288   2.384  0.1340 -0.3993 -0.1029
11152W        W31432   1.733   1.051  13.538  0.4105 -0.2000 -0.2878
11153W        W31433  13.818  13.229  11.336 -0.0811  0.1404 -0.0160
11154W        W31434   0.489  14.698   4.510 -0.0174 -0.0125  0.2858
11155W        W31435   4.037  18.711   0.989 -0.0420 -0.0393  0.0047
11156W        W31436   6.232   5.595   0.096 -0.2056  0.1918 -0.0409
11157W        W31437  14.669  17.862   0.528 -0.1314 -0.0730  0.2325
11158W        W31438   2.651  11.068  11.164  0.1763  0.1264  0.0264
11159W        W31439  15.316  19.562   1.167  0.1168  0.2038 -0.2020
11160W        W31440  19.168   1.922  12.948  0.1437 -0.0390 -0.2504
11161W        W31441   5.901   0.099  13.507  0.3084  0.1230  0.1251
11162W        W31442  18.163  13.465  13.413 -0.4092 -0.0942  0.1404
11163W        W31443  14.712   9.954   3.144  0.2168  0.1916  0.2437
11164W        W31444  15.455  14.890   2.755 -0.1030 -0.0387 -0.3619
11165W        W31445  14.852  17.939   1.409 -0.1578  0.0562  0.0300
11166W        W31446   7.954  10.395  13.682  0.0450 -0.0460  0.2115
11167W        W31447   9.317  18.758   1.317 -0.0948 -0.1088 -0.1266
11168W        W31448   0.231  11.906  13.078  0.2584  0.0419  0.2963
11169W        W31449   6.685  15.801   1.587 -0.0410  0.0339  0.0491
11170W        W31450  19.015   1.214  10.454 -0.1225  0.1733 -0.1243
11171W        W31451   5.803   7.986  10.813  0.1712 -0.1134  0.1895
11172W        W31452  12.759   8.728   3.908  0.0173  0.0963 -0.2699
11173W        W31453  19.437   1.525   1.564 -0.1229  0.1013 -0.2568
11174W        W31454   6.308   2.592   2.347 -0.4573 -0.0970 -0.2959
11175W        W31455   3.987  16.143   2.243 -0.0019 -0.2952 -0.0818
11176W        W31456   5.888  18.115   2.256  0.3261 -0.0857  0.4577
11177W        W31457   4.155   3.896  13.408 -0.2490 -0.3680 -0.4330
11178W        W31458  13.704   7.922  11.393 -0.1096  0.0014  0.1467
11179W        W31459  10.172   7.362  12.452 -0.2992 -0.1175  0.1546
11180W        W31460   0.453  13.331   0.730  0.1305  0.0676 -0.2274
11181W        W31461  18.624   3.920   0.686  0.0843 -0.1149 -0.0959
11182W        W31462   6.740   6.054   0.558  0.0724  0.2871  0.1159
11183W        W31463  16.146   9.357   8.675 -0.2158 -0.0221 -0.1302
11184W        W31464   5.431  13.696   1.475 -0.1362  0.0137  0.0460
11185W        W31465   1.931  16.461   1.193  0.0072 -0.0159  0.1154
11186W        W31466   6.560   9.155  12.843 -0.0632  0.2588  0.0868
11187W        W31467  15.314  13.883   3.780  0.0689 -0.3660  0.0111
11188W        W31468   7.583  14.046   3.758  0.1672 -0.1636 -0.2635
11189W        W31469   4.078   7.886  10.600  0.2702 -0.1830  0.2655
11190W        W31470   9.931  11.375  12.637 -0.0501  0.2608  0.0860
11191W        W31471   2.282  15.966   0.686 -0.1044  0.0443  0.1492
11192W        W31472   5.272  17.549   0.225  0.0162  0.0596 -0.1124
11193W        W31473   8.898   5.138  12.555 -0.1010 -0.1515 -0.2481
11194W        W31474  18.031  15.189   1.188  0.0912 -0.1863 -0.2626
11195W        W31475   4.173  11.110   2.165  0.1920 -0.4067  0.0921
11196W        W31476  11.977  15.839   1.590  0.1336  0.2341 -0.0926
11197W        W31477  14.140  17.067   1.065 -0.2004  0.0430  0.2893
11198W        W31478   1.862  15.609   1.399 -0.2362  0.2204 -0.4672
11199W        W31479   2.503   4.046   1.500 -0.0429 -0.1434  0.1783
11200W        W31480  14.632   0.606  10.666  0.0129 -0.1627 -0.2463
11201W        W31481  16.371   3.127   0.394 -0.2355 -0.0055 -0.2551
11202W        W31482  16.450   5.167  12.308  0.1863  0.0018 -0.0265
11203W        W31483  13.693   8.996   2.396  0.0047  0.1417  0.1881
11204W        W31484   9.614  14.073  11.261 -0.1313  0.4128 -0.1429
11205W        W31485  10.804  18.049   2.927 -0.1070  0.0138  0.0409
11206W        W31486   1.795  11.772   2.723  0.2339  0.2092 -0.3694
11207W        W31487  12.749  19.264  12.033  0.0944  0.4296  0.0396
11208W        W31488  14.787  18.032  10.956 -0.0863  0.0733 -0.0624
11209W        W31489   7.953   8.472  12.298  0.2123  0.0370  0.3515
11210W        W31490   8.054   7.497   3.393 -0.1920  0.3144 -0.0387
11211W        W31491   6.504   9.754  11.562  0.1105 -0.0935  0.1250
11212W        W31492  17.474   4.684  13.735  0.1638  0.1163 -0.1147
11213W        W31493  11.543  17.374  12.345 -0.0293  0.1484  0.4118
11214W        W31494  17.275   8.586  10.002 -0.2750 -0.0897  0.0572
11215W        W31495  12.261   5.898   1.224  0.0581 -0.1077  0.1651
11216W        W31496   9.303  16.132  13.513  0.1081 -0.2267 -0.0715
11217W        W31497  19.515   9.177  12.666 -0.1852  0.1410 -0.1175
11218W        W31498  10.581  16.969   2.282  0.2282 -0.2385  0.0365
11219W        W31499  17.917   8.341  12.562 -0.0057 -0.0927 -0.2697
11220W        W31500  19.246  19.690  11.450 -0.1827 -0.0973 -0.2397
11221W        W31501   8.519  17.863   0.963  0.4945  0.1550  0.0280
11222W        W31502  13.551  10.137  10.207  0.0023 -0.4198 -0.4080
11223W        W31503  15.908  16.569  12.554 -0.1870  0.0256 -0.1741
11224W        W31504   3.153  12.697  11.883 -0.1489  0.0492  0.2545
11225W        W31505   8.636  14.871  13.059  0.2795 -0.2273  0.1320
11226W        W31506   8.341  14.851   1.811 -0.1053 -0.0768  0.0172
11227W        W31507  19.585   0.340  13.351 -0.0846 -0.0214 -0.2590
11228W        W31508  16.341   3.854   2.216  0.2302  0.1865 -0.0512
11229W        W31509  12.475   8.338   2.898 -0.0859  0.1809 -0.0268
11230W        W31510  13.693   1.215   0.080  0.0608 -0.2534  0.0215
11231W        W31511  18.236   3.938   1.921 -0.2253 -0.1894  0.3420
11232W        W31512  16.614  12.814  10.687 -0.1549 -0.2459 -0.1161
11233W        W31513   5.573  15.186  10.739  0.1546  0.4157 -0.2875
11234W        W31514   9.559  16.957  11.602 -0.2480  0.0152  0.2885
11235W        W31515  14.644  10.755  12.391 -0.3485 -0.1520 -0.0384
11236W        W31516   8.675   9.046   3.129  0.2186  0.1156  0.3501
11237W        W31517  11.835   7.568   1.281 -0.0442  0.0478  0.1525
11238W        W31518  17.781  12.936  10.667 -0.1763 -0.0040  0.0271
11239W        W31519   6.265   2.259   3.125 -0.0541  0.1541  0.0305
11240W        W31520   2.231  10.085   1.557 -0.1339 -0.1685  0.2288
11241W        W31521  19.791   7.878  11.562  0.1744 -0.3015  0.3068
11242W        W31522   2.830  10.720   3.145 -0.1830  0.2439 -0.1896
11243W        W31523  14.005  13.870  12.680 -0.2921  0.0516 -0.0999
11244W        W31524   8.311  13.544  12.953  0.3873 -0.1151  0.0638
11245W        W31525  18.336   6.304   3.264  0.0521  0.0353 -0.2560
11246W        W31526  19.473   6.238  12.134  0.0235  0.1554 -0.2613
11247W        W31527   4.902   5.288  12.017  0.0730 -0.0472  0.1635
11248W        W31528   4.424   2.049   0.966 -0.0860  0.0452  0.1401
11249W        W31529   5.508  17.631  10.738 -0.2485 -0.0101 -0.1298
11250W        W31530   2.060  10.582   3.948  0.2956  0.1622 -0.0031
11251W        W31531  14.903   5.057  10.006 -0.0139 -0.0530 -0.2844
11252W        W31532   1.574  13.990   0.923 -0.1873  0.0799 -0.0024
11253W        W31533  12.458   2.982  11.257  0.1416 -0.1030  0.1184
11254W        W31534  11.113   8.027   0.359 -0.2838 -0.0475  0.1809
11255W        W31535   4.850  17.924   3.380  0.1246 -0.2408  0.0830
11256W        W31536  13.514  12.913   4.008  0.0737 -0.0399  0.1596
11257W        W31537   3.228   1.736   3.229  0.1176  0.1587  0.0414
11258W        W31538  18.800  11.012   1.713  0.2704 -0.0883  0.0765
11259W        W31539   5.415  15.999  13.346 -0.1335  0.2518  0.1741
11260W        W31540   4.143  19.154  12.727 -0.0985  0.0867  0.2749
11261W        W31541  17.630   2.210   0.661  0.0388  0.0593 -0.3675
11262W        W31542  18.129  16.259   2.508 -0.3333 -0.1287 -0.0363
11263W        W31543   8.631  16.278  11.140 -0.1619 -0.2065 -0.1294
11264W        W31544   0.273  18.733   1.280 -0.0380 -0.0346 -0.0286
11265W        W31545  17.714   1.453   1.566 -0.2295  0.0383 -0.3097
11266W        W31546   7.538  18.824   9.176  0.0880 -0.1784  0.3649
11267W        W31547  12.619  15.756   0.838  0.0548  0.0881 -0.0301
11268W        W31548   6.641   2.884   1.995  0.0371 -0.1620 -0.2045
11269W        W31549  17.944   4.927  10.782  0.3341 -0.1288  0.0555
11270W        W31550   7.487   2.608   0.336 -0.0436 -0.1102 -0.1648
11271W        W31551   4.469  19.204   3.052 -0.0929  0.0696  0.0784
11272W        W31552  15.972   1.379   2.335 -0.2217 -0.0699  0.1881
11273W        W31553   9.532   8.217   0.110  0.0063  0.0539  0.0077
11274W        W31554   0.439  15.904   2.910 -0.0321  0.2228  0.0302
11275W        W31555  14.934   1.460   2.322 -0.0078  0.0753 -0.0082
11276W        W31556  10.879   3.065  12.046  0.0482 -0.0766 -0.2205
11277W        W31557  14.440  17.407   3.234  0.1674 -0.1589  0.1104
11278W        W31558   5.772  12.487  10.745  0.1184 -0.0997 -0.4055
11279W        W31559   5.234   5.196   1.659 -0.0114  0.0468  0.1243
11280W        W31560   7.705   2.235   1.962  0.2134 -0.2268  0.0269
11281W        W31561   5.792  13.352   9.438  0.1563 -0.2265 -0.0625
11282W        W31562   7.937   0.346   2.210  0.3830 -0.1281  0.3484
11283W        W31563  12.324  12.681  11.915  0.0262 -0.1832 -0.1677
11284W        W31564   9.534   0.154  11.665 -0.1496 -0.0026  0.1107
11285W        W31565   9.261  16.075   4.097 -0.3007 -0.0140  0.1063
11286W        W31566   0.780   8.473   1.971 -0.1956 -0.0606 -0.0859
11287W        W31567   5.900   1.590   2.135 -0.1389  0.3819 -0.1146
11288W        W31568  17.615   7.104   2.309 -0.1169  0.0741 -0.2612
11289W        W31569  11.984   0.768  12.033 -0.0776  0.0709  0.1850
11290W        W31570   8.404   1.943   3.769 -0.2262  0.1437  0.0021
11291W        W31571   2.546   6.836  12.528  0.0544  0.0508 -0.1398
11292W        W31572   7.301   6.124   2.756 -0.1274 -0.1273  0.0599
11293W        W31573  18.548   2.016   2.946  0.2451  0.1652 -0.5855
11294W        W31574  14.474   4.309   9.698  0.1933  0.0977  0.0263
11295W        W31575   9.357  14.854   2.185 -0.1362  0.4300 -0.3062
11296W        W31576   4.043   8.226  10.275 -0.1378  0.0480 -0.1925
11297W        W31577   0.421  12.316  11.228  0.0952  0.2065 -0.3100
11298W        W31578   8.605  13.006   1.947 -0.1946  0.0233 -0.0726
11299W        W31579  11.420  18.834  10.495 -0.0239  0.2319 -0.1823
11300W        W31580  11.576  13.474   0.452 -0.0457  0.0809 -0.1134
11301W        W31581  11.194   1.325  12.768  0.1052  0.1534  0.2425
11302W        W31582  13.340   0.653   0.607 -0.0502  0.1653  0.0575
11303W        W31583   2.691  14.201  12.813 -0.0953 -0.1479 -0.1335
11304W        W31584   6.042  13.940  11.169 -0.0132 -0.0875 -0.1253
11305W        W31585   9.014   4.940  13.581  0.2080  0.0796 -0.1768
11306W        W31586  15.801   3.361   1.488  0.4769 -0.1840  0.3771
11307W        W31587  11.503   8.852   1.419  0.1202  0.0664 -0.0595
11308W        W31588   0.328   3.595  10.622  0.1866 -0.0614  0.0885
11309W        W31589   5.454   1.105  12.520  0.0850  0.0556  0.1174
11310W        W31590  12.182  10.115  10.228  0.1297  0.0208  0.0557
11311W        W31591  19.265   4.014  12.420  0.0771  0.2111 -0.0938
11312W        W31592  16.430  16.243   2.649  0.1084 -0.1672 -0.1564
11313W        W31593   0.860   7.189   0.404  0.0359 -0.0701 -0.2279
11314W        W31594  13.209   1.438  12.010 -0.3052 -0.2375 -0.1000
11315W        W31595  17.156  17.297   4.394  0.0143 -0.3054 -0.0114
11316W        W31596   3.445  18.469  12.335 -0.0601  0.0759  0.0155
11317W        W31597   0.157  11.975  10.947  0.2740 -0.1873  0.3946
11318W        W31598   1.592  12.192   3.365  0.1852  0.1746  0.0668
11319W        W31599  19.137  13.618  13.010 -0.3474 -0.1099  0.1606
11320W        W31600   6.377   6.060   1.404 -0.1542  0.2543  0.1762
11321W        W31601   3.276  10.823   2.179  0.0529 -0.0584  0.3408
11322W        W31602   1.641   2.219  12.525  0.0926 -0.0067 -0.0779
11323W        W31603  17.462  16.249   4.164 -0.2390 -0.0184 -0.1070
11324W        W31604  10.398  15.116   3.083  0.1880  0.1361  0.1123
11325W        W31605   5.490   3.347  13.178 -0.1530  0.1968 -0.2504
11326W        W31606  17.622  18.783   0.518 -0.2628 -0.0542  0.1572
11327W        W31607  15.555  15.391   0.213 -0.0064 -0.2045  0.3116
11328W        W31608  10.835   1.295   2.354 -0.0219 -0.2947 -0.0529
11329W        W31609   3.793   3.555   1.735 -0.1614 -0.0321  0.2829
11330W        W31610  13.588   9.436   0.411 -0.1850 -0.0030 -0.3288
11331W        W31611  15.680  14.199   8.926  0.0526  0.0604  0.1553
11332W        W31612  12.516  16.692  11.243 -0.0742 -0.4502 -0.0180
11333W        W31613  18.967  10.347  13.041  0.2199  0.1213 -0.0618
11334W        W31614  15.942  14.169  11.910 -0.0155 -0.2924  0.0099
11335W        W31615   5.840   2.837  13.299 -0.1092  0.4048  0.1206
11336W        W31616  19.811   6.275  10.722  0.2079 -0.4997 -0.1209
11337W        W31617  19.431  10.711   2.664 -0.2197 -0.0499 -0.1057
11338W        W31618  13.196   2.653  11.312  0.0878 -0.0895  0.0352
11339W        W31619  11.444  18.320   2.218  0.2456  0.0163  0.2004
11340W        W31620   1.029   5.495   9.647  0.2304  0.0257 -0.0349
11341W        W31621   2.177  14.991  12.578 -0.1278  0.0618 -0.6139
11342W        W31622   7.523   7.877   4.010  0.1091 -0.2644 -0.1297
11343W        W31623   6.402   3.704  12.962  0.3086 -0.4109 -0.0111
11344W        W31624  15.051  12.615   2.150 -0.0571  0.0957 -0.3799
11345W        W31625  17.506   1.083   0.417 -0.2332 -0.0370 -0.0030
11346W        W31626   8.898  13.468   3.188  0.0341  0.2397 -0.0834
11347W        W31627  16.778   6.561   0.346  0.0609  0.1996  0.3341
11348W        W31628  15.546  13.081  10.840 -0.1358  0.1148  0.4138
11349W        W31629  12.643  17.480   0.868 -0.1071 -0.4732 -0.0178
11350W        W31630   1.873   7.486   3.585  0.2003 -0.0480 -0.1397
11351W        W31631  16.917   9.300  12.619 -0.0802  0.1198 -0.2386
11352W        W31632  14.316  19.950  11.850 -0.1164 -0.3026 -0.1453
11353W        W31633   1.851  12.074  10.118 -0.0979  0.0731  0.1376
11354W        W31634   1.958   2.531   2.346 -0.1803 -0.0065 -0.5241
11355W        W31635  15.121   5.496   9.652 -0.1011 -0.0355 -0.2370
11356W        W31636  15.652   6.541   2.484  0.0299  0.0049 -0.2274
11357W        W31637  12.507  10.248   9.748  0.0031 -0.0628  0.2485
11358W        W31638   8.569   6.307  13.535  0.1173  0.1196  0.0075
11359W        W31639  16.219  16.093   2.215 -0.0196 -0.1532  0.1989
11360W        W31640   0.458  10.624   2.126 -0.3914  0.3469 -0.1177
11361W        W31641  11.987   7.932  10.836  0.0342  0.1791  0.0696
11362W        W31642  12.704  10.845   0.627  0.3919  0.2616 -0.1021
11363W        W31643  13.838   9.616   9.150 -0.0506 -0.0875 -0.0515
11364W        W31644   5.806  17.956   9.632  0.1411 -0.1531 -0.1327
11365W        W31645  13.050  14.941   1.875 -0.0258  0.0983  0.0131
11366W        W31646  16.946   5.124  11.749 -0.2825  0.0669 -0.3532
11367W        W31647   7.238  15.821   0.518  0.0221 -0.1595 -0.0191
11368W        W31648   7.877  17.807   3.475 -0.1906 -0.0964  0.3103
11369W        W31649  14.777   2.229  11.501  0.3302  0.0755  0.1705
11370W        W31650   8.386   0.688  11.151 -0.3439  0.0574  0.0277
11371W        W31651   3.779   0.854   2.445 -0.2344 -0.2976  0.1332
11372W        W31652  11.447   5.066  11.407 -0.1647  0.0443  0.0736
11373W        W31653  11.573  16.437   2.435 -0.0099 -0.2063 -0.3919
11374W        W31654   3.608  13.679   4.330  0.0079 -0.2871  0.1540
11375W        W31655   6.702   3.747  13.457  0.0227  0.2102  0.0830
11376W        W31656  15.139  18.970   0.463 -0.0704  0.1286 -0.0510
11377W        W31657   6.563   9.343   2.101 -0.0851 -0.1070  0.4558
11378W        W31658   0.581   6.341   1.479  0.0841 -0.2543 -0.1522
11379W        W31659  10.424  16.343   8.748  0.1308  0.2320 -0.0392
11380W        W31660  15.295   1.138   4.147  0.2907 -0.3345  0.2059
11381W        W31661  19.871   5.173   1.617  0.0901 -0.0873  0.0907
11382W        W31662  10.040  14.308   1.912  0.1463 -0.0642  0.2531
11383W        W31663   0.478   9.223   1.933  0.1368  0.1030 -0.1016
11384W        W31664   5.237  17.361   0.726 -0.1170 -0.1939 -0.1281
11385W        W31665  11.695   3.031  10.750  0.2891 -0.1635  0.1859
11386W        W31666  17.045  18.997   1.755 -0.0360  0.1362 -0.1770
11387W        W31667   7.711  10.019  13.296 -0.0069  0.2449 -0.0806
11388W        W31668  16.489   6.647  11.740 -0.0329  0.2394 -0.4276
11389W        W31669  10.709  11.571   4.206 -0.2676 -0.0625 -0.0639
11390W        W31670   8.993  17.830   2.580 -0.1771  0.2920 -0.1187
11391W        W31671   4.645  10.538  13.138  0.4116  0.0455 -0.1430
11392W        W31672   5.932   2.380  12.264  0.2519 -0.1620  0.0198
11393W        W31673   3.122   2.518   3.582  0.0916  0.0037  0.4070
11394W        W31674  12.337   8.843   1.723  0.1347  0.0014 -0.0524
11395W        W31675   4.861  13.279   0.491  0.0748  0.0079  0.1441
11396W        W31676   7.111  18.996   3.970  0.0976  0.1083  0.0179
11397W        W31677  10.686  10.377   5.146  0.1325  0.0211  0.2377
11398W        W31678   3.088   5.841  11.123 -0.2019 -0.1854  0.2116
11399W        W31679   6.655  12.505   0.575 -0.0653  0.0171  0.1123
11400W        W31680  10.965   5.478  13.240 -0.1950 -0.1887 -0.1078
11401W        W31681  11.543   6.034   3.198 -0.0130  0.1545  0.0967
11402W        W31682  12.816  17.086  10.049 -0.0767 -0.1024 -0.0544
11403W        W31683  11.067   1.751   1.383  0.0030 -0.0270 -0.2987
11404W        W31684   9.776   5.737   2.125 -0.1302 -0.2075  0.3464
11405W        W31685   2.124  15.583  13.191  0.3184 -0.1594  0.1643
11406W        W31686  14.107  19.897   0.563 -0.3112 -0.1788 -0.0676
11407W        W31687  11.002   6.397  11.191  0.1182 -0.0260 -0.2814
11408W        W31688   6.492   7.957   3.282 -0.0889 -0.2521  0.1599
11409W        W31689   7.621  14.626   1.167  0.0325  0.0090  0.2943
11410W        W31690  15.852  19.696   0.998 -0.0149 -0.1041 -0.0685
11411W        W31691  12.911   8.273   3.277 -0.1076 -0.0295 -0.0520
11412W        W31692  11.312  11.549  12.590  0.2029 -0.0045 -0.3433
11413W        W31693   3.218  14.027   3.196  0.2343  0.0305 -0.1603
11414W        W31694   5.340   6.613   2.809 -0.1119  0.1045  0.0566
11415W        W31695  17.471   7.941   0.252  0.0071 -0.2580 -0.1082
11416W        W31696   4.987   1.936  12.285 -0.0162  0.0567  0.3507
11417W        W31697   3.132  14.325  12.520  0.0410  0.0971 -0.0802
11418W        W31698   9.551  17.525   0.659 -0.0386 -0.1360  0.0426
11419W        W31699  18.260   1.722   9.264  0.1464 -0.1903  0.3209
11420W        W31700   8.447   1.953  11.451 -0.4321 -0.2486 -0.2752
11421W        W31701   4.992   5.174   2.654  0.1714 -0.0155  0.1101
11422W        W31702   5.978   8.431   2.345 -0.1721  0.2191 -0.1482
11423W        W31703   4.349  10.908  10.834 -0.1827 -0.0205  0.0338
11424W        W31704   1.481  13.531   1.563  0.3231 -0.3298  0.2377
11425W        W31705  19.491   2.027  11.539  0.0622  0.2021  0.1426
11426W        W31706  13.019  16.788  10.826  0.1151 -0.1804 -0.1627
11427W        W31707   7.090  10.229  12.281 -0.1065  0.0334 -0.3403
11428W        W31708  18.643  16.854   0.905  0.1424 -0.2807 -0.0350
11429W        W31709   3.856   8.468  12.914  0.1703  0.1127  0.1095
11430W        W31710   7.170  11.632  11.630  0.0728  0.0923  0.0531
11431W        W31711   6.313   4.309  12.724 -0.0282  0.2378  0.2386
11432W        W31712   5.642  19.546   9.532  0.2411 -0.0664  0.0377
11433W        W31713  12.146   7.375   3.619  0.2264  0.2811  0.0899
11434W        W31714  13.131  14.790  12.005  0.0578 -0.1304  0.0311
11435W        W31715   4.607   7.886   2.925  0.0619 -0.2744 -0.0306
11436W        W31716   2.651  13.047   0.861  0.0431  0.3982 -0.0576
11437W        W31717   9.864   5.470  10.203 -0.1395  0.4153 -0.0494
11438W        W31718  13.617  11.806  12.156  0.0205 -0.0198 -0.0325
11439W        W31719  15.056  18.427   1.681  0.2550 -0.1649  0.2876
11440W        W31720   8.926   7.262   0.744  0.0339  0.2291 -0.0132
11441W        W31721   8.077   6.566   3.904  0.3195 -0.1001  0.0469
11442W        W31722   4.880   5.046   4.594 -0.0856 -0.0917 -0.0168
11443W        W31723  11.057   7.612   2.506  0.0796  0.2834  0.4042
11444W        W31724   2.300  17.731   4.979 -0.0032  0.1564  0.1260
11445W        W31725  14.842   6.080   3.048  0.0082  0.1482 -0.1229
11446W        W31726  19.286   1.405   1.073 -0.1620 -0.2811 -0.0351
11447W        W31727  11.056   0.651   1.202 -0.0996  0.1189  0.0414
11448W        W31728   7.657  10.174   2.128 -0.0479 -0.0912  0.0989
11449W        W31729   5.023   9.053   1.116  0.0121  0.1285  0.0793
11450W        W31730  10.626  10.487   1.230 -0.1945  0.0052 -0.0648
11451W        W31731  11.101  12.662   3.406  0.0261  0.1379  0.0467
11452W        W31732  12.244  16.562  12.009 -0.2423  0.0698 -0.0951
11453W        W31733   8.599   6.914  11.399  0.0426 -0.0518  0.0190
11454W        W31734  18.426  15.886   2.269 -0.2567 -0.1763 -0.0214
11455W        W31735  16.801   0.067  13.101 -0.0399 -0.1104  0.2028
11456W        W31736  14.602   9.363  10.591 -0.2614  0.1905 -0.0410
11457W        W31737   9.767  10.241   1.511  0.2107 -0.0394 -0.0968
11458W        W31738  16.152   9.808   1.444  0.2788 -0.0193  0.0081
11459W        W31739  14.739  15.586   2.864  0.1367  0.2454  0.1986
11460W        W31740  10.843   2.460   1.908  0.2528  0.0473  0.1227
11461W        W31741   1.042   9.126  12.114  0.2556  0.0181 -0.1298
11462W        W31742   1.278  15.813   1.760 -0.0475  0.0195 -0.0866
11463W        W31743  16.813  10.748  13.576 -0.1056  0.1501 -0.1732
11464W        W31744   9.167   9.933  12.519 -0.1112  0.3820 -0.2598
11465W        W31745   8.757   5.941   4.513 -0.1500  0.0957  0.0706
11466W        W31746  12.358   9.612  11.066  0.1073  0.0527 -0.1672
11467W        W31747  13.557   4.414   0.145  0.0044  0.1501  0.1345
11468W        W31748  12.171   0.657  13.844  0.2349  0.1976  0.3063
11469W        W31749  15.602   8.777   8.961 -0.0835  0.1138 -0.2991
11470W        W31750   7.279  18.568  12.981 -0.3407  0.3450  0.2474
11471W        W31751   4.613   8.226   1.443  0.1274 -0.3119 -0.1674
11472W        W31752   9.188  12.782  10.126 -0.1912 -0.1329  0.1612
11473W        W31753  12.624  11.684   2.416 -0.0600 -0.2161 -0.0749
11474W        W31754   4.305   4.365  13.603 -0.3675  0.1670  0.0311
11475W        W31755  19.817  17.056  11.915  0.2021 -0.0379 -0.3318
11476W        W31756   9.771   2.652   3.332  0.4375 -0.1167  0.0290
11477W        W31757   8.594   4.741  12.786  0.1210  0.0575  0.0133
11478W        W31758  11.265  17.453   2.452  0.4608  0.2348  0.0626
11479W        W31759  15.301  10.326  10.586 -0.2036 -0.3084 -0.2175
11480W        W31760  12.334  14.812  11.166  0.1512  0.3783 -0.0178
11481W        W31761   0.545   4.799   2.451 -0.1015 -0.0138 -0.0293
11482W        W31762  14.489  10.736  11.443  0.0430  0.1781 -0.0365
11483W        W31763   2.969  13.873   3.562 -0.2707 -0.1194 -0.0076
11484W        W31764   8.323  11.427   2.283  0.0108 -0.0921 -0.1332
11485W        W31765   5.192   9.714   1.164 -0.0761  0.0989  0.0466
11486W        W31766  10.504   9.508   1.071 -0.2442 -0.3752 -0.3048
11487W        W31767  16.903   0.544  10.016  0.1509 -0.1019 -0.2067
11488W        W31768  14.529   5.776   2.540 -0.0179  0.0997 -0.1258
11489W        W31769   9.117   6.160  10.400 -0.3392  0.1427  0.2040
11490W        W31770   2.598  10.757   2.682  0.0937  0.1955  0.0512
11491W        W31771  12.417   3.973  10.391 -0.2812 -0.1446 -0.1409
11492W        W31772  19.715   8.458   1.672 -0.1706 -0.2456  0.0874
11493W        W31773   2.277   6.456   1.117  0.0013  0.0134  0.0654
11494W        W31774  12.174   7.741  12.365  0.2422 -0.0431 -0.3232
11495W        W31775   1.894   1.090  11.897  0.0266 -0.1826  0.1925
11496W        W31776   4.349   4.945  11.349  0.2540  0.3724  0.1904
11497W        W31777   2.138   1.814   0.846  0.1666  0.1615  0.1043
11498W        W31778  16.271  18.398  11.663  0.1241  0.4225 -0.0192
11499W        W31779   4.648   6.987  13.156 -0.3265 -0.0706  0.0339
11500W        W31780  10.233   9.320   9.354  0.1261 -0.0494 -0.1913
11501W        W31781   8.501   6.812   3.005  0.2118 -0.0488  0.2587
11502W        W31782  11.110  14.692   1.910 -0.1862  0.1174 -0.2523
11503W        W31783  17.225   7.904  11.241  0.4177 -0.2775 -0.0840
11504W        W31784   9.046  12.637  13.137  0.2556 -0.5039 -0.1010
11505W        W31785  17.168  11.623  11.342  0.0294 -0.0247  0.4953
11506W        W31786  15.893   0.111   0.007  0.1028  0.0499 -0.1294
11507W        W31787   5.146   9.736   9.585  0.1778  0.1168  0.3441
11508W        W31788  11.112  19.331   2.654 -0.1877  0.0421  0.2551
11509W        W31789   9.697  11.479  10.903 -0.1216 -0.0491  0.0797
11510W        W31790   1.507  16.151  10.069  0.0398  0.2115 -0.0294
11511W        W31791   8.080  16.976  11.169 -0.0841  0.2170  0.1672
11512W        W31792  14.719   8.223  10.044  0.3267  0.4748  0.0447
11513W        W31793   2.262  13.391  11.385 -0.4348  0.5531  0.1314
11514W        W31794   5.353   8.630   1.058  0.0534 -0.0593  0.1080
11515W        W31795   1.490  18.001   3.901 -0.0645  0.0159  0.0916
11516W        W31796   3.094  15.844  10.956 -0.0396  0.0967 -0.0064
11517W        W31797  18.421   2.985   1.970  0.1360 -0.1830 -0.3071
11518W        W31798  15.801   4.060  11.283  0.3395 -0.4948 -0.0836
11519W        W31799   4.541   4.138   3.516 -0.3475  0.1347  0.0372
11520W        W31800  13.404   2.903  12.516 -0.1120  0.2205  0.2278
11521W        W31801  10.360  19.091  10.341 -0.0306  0.2109  0.1541
11522W        W31802  12.662   7.394   4.770 -0.1485  0.1779 -0.0941
11523W        W31803   5.681  18.609  12.095  0.0595  0.2471 -0.1389
11524W        W31804   4.570   7.368   2.820 -0.0006 -0.1820  0.2435
11525W        W31805   2.836   8.005   0.614  0.0474  0.1123 -0.1082
11526W        W31806   4.119  13.608  13.256  0.3288 -0.0822 -0.0143
11527W        W31807   3.487   1.986   1.291 -0.0027  0.1700  0.0247
11528W        W31808   7.728   0.526  13.657  0.0453 -0.0727 -0.1039
11529W        W31809  12.430   2.292   1.993  0.2245 -0.1330  0.0138
11530W        W31810   7.109  16.066   2.911  0.0241  0.0577  0.2425
11531W        W31811  14.852  18.576   0.239  0.0722 -0.4320 -0.0310
11532W        W31812   5.210  14.294  13.624 -0.0665  0.0487  0.0151
11533W        W31813  13.082  10.361  10.013  0.1176  0.1671  0.0379
11534W        W31814   4.160   2.218  11.492  0.0993  0.0192 -0.2506
11535W        W31815  15.967  12.332  13.019 -0.0297 -0.1579 -0.2454
11536W        W31816  12.176  14.327   3.782 -0.0327 -0.1083  0.3397
11537W        W31817   3.741   0.407  11.196  0.0243 -0.1419  0.1607
11538W        W31818  12.873   4.659  10.921 -0.2380  0.1567 -0.0078
11539W        W31819  14.094   7.760  12.773  0.1605  0.0300 -0.0815
11540W        W31820  13.801   9.386  13.528  0.0386  0.1378 -0.0962
11541W        W31821   2.242  17.831   0.982 -0.2720  0.0685 -0.0159
11542W        W31822   7.398  15.751  13.218  0.0216 -0.0079  0.2416
11543W        W31823   7.126  17.733  10.482  0.3114  0.1696  0.1929
11544W        W31824   4.335  19.687  12.774 -0.0921  0.1041  0.0064
11545W        W31825   4.193  14.528   3.623  0.0155 -0.0313  0.1283
11546W        W31826   7.250   1.236  12.503 -0.1988  0.2014 -0.2366
11547W        W31827  19.126  15.552   2.973  0.1039  0.2352  0.1067
11548W        W31828  17.281  18.181   1.762  0.1414 -0.0438  0.0524
11549W        W31829   6.915  14.180   0.230  0.0104  0.2144  0.2572
11550W        W31830   8.550   2.408   3.979 -0.1951 -0.0303 -0.2561
11551W        W31831   9.593  12.221   2.704  0.0236  0.0766  0.2340
11552W        W31832   4.668  15.656   3.556  0.0157 -0.1374  0.3003
11553W        W31833   9.568  10.032  10.832  0.1599  0.2241 -0.3607
11554W        W31834   6.567  10.725   1.985 -0.1027 -0.1971  0.1298
11555W        W31835  16.749   4.015  12.760 -0.1309  0.2260 -0.1336
11556W        W31836   7.431  13.310  10.288 -0.1821  0.0069  0.0454
11557W        W31837   2.831  10.117  12.368 -0.2263  0.0736 -0.1818
11558W        W31838  17.512   7.564  13.546  0.1323  0.2842  0.2228
11559W        W31839   4.091  17.615  11.230  0.1336 -0.1422  0.0325
11560W        W31840  14.356   4.385  12.072  0.0980 -0.1659  0.0764
11561W        W31841   3.306   3.811   1.734 -0.1595 -0.1440  0.0795
11562W        W31842  16.423   6.933  12.276  0.2042  0.1521  0.1095
11563W        W31843   7.803   2.871  13.794 -0.0664  0.2558 -0.1809
11564W        W31844   2.529  10.692   3.562  0.1258  0.0858 -0.1317
11565W        W31845  16.939  13.613   2.298  0.1705 -0.2145  0.1228
11566W        W31846  18.931  16.815  10.313  0.4267 -0.3804  0.3707
11567W        W31847  15.560   8.673  12.319 -0.0744 -0.2553 -0.1055
11568W        W31848   2.571  17.919   2.757  0.0566 -0.6689  0.0670
11569W        W31849  15.203  15.405   2.695 -0.2586 -0.1205 -0.1831
11570W        W31850  19.296  17.094  13.585  0.3122 -0.2062  0.0564
11571W        W31851  12.616   2.489   2.417 -0.2576 -0.0293  0.0758
11572W        W31852   7.777   2.496  10.191  0.0262 -0.1360  0.2455
11573W        W31853   3.446  12.200  13.440 -0.0277  0.0350  0.2839
11574W        W31854   4.410   9.093   0.101  0.2134  0.3163 -0.0774
11575W        W31855   1.033   1.705  11.198 -0.1695  0.5352  0.0606
11576W        W31856  14.802   7.755  11.696  0.2770 -0.2201 -0.0882
11577W        W31857  13.775   5.463   0.161 -0.0270  0.2109  0.1384
11578W        W31858   3.182  10.007   4.331 -0.3513 -0.3927  0.0054
11579W        W31859   7.189  14.256   1.644  0.1635  0.0980 -0.2471
11580W        W31860  15.348   2.491  11.470 -0.1023 -0.2052 -0.2109
11581W        W31861   6.243  19.373   1.118 -0.0557 -0.2399 -0.1011
11582W        W31862   3.722  14.501   3.703 -0.0174 -0.3327  0.0387
11583W        W31863   1.352  10.635   2.770  0.0583  0.0839  0.2624
11584W        W31864  19.555  18.655   3.137  0.0879 -0.0216  0.0947
11585W        W31865   7.241  18.059   1.972 -0.4550  0.0425  0.3410
11586W        W31866   5.034  13.876  10.592 -0.1465  0.0555 -0.0680
11587W        W31867  10.553   4.512   4.135 -0.0968 -0.1317  0.3786
11588W        W31868  19.808  16.756   2.957 -0.1960 -0.1179  0.2198
11589W        W31869  11.949  13.597  11.190  0.2483 -0.0188  0.0825
11590W        W31870  11.322  19.249  10.803 -0.0690 -0.1898 -0.0746
11591W        W31871  17.106   5.955  12.058  0.2232  0.0512 -0.1651
11592W        W31872  11.317   7.552   0.382  0.0483 -0.0155  0.1948
11593W        W31873  10.899   9.623   3.014  0.0289  0.0315 -0.0145
11594W        W31874   1.298   7.472   2.443 -0.3657 -0.0780 -0.2099
11595W        W31875   9.384   3.294   2.264  0.1475  0.3040 -0.0576
11596W        W31876  15.975   1.752   3.181  0.1450  0.1258  0.3856
11597W        W31877   4.777  10.265  12.305 -0.2259  0.0810  0.2253
11598W        W31878   4.650   1.007   1.984  0.1701  0.0301  0.3605
11599W        W31879   9.681  17.857  11.390 -0.1067 -0.0731 -0.1417
11600W        W31880  19.080  17.963   2.902  0.0359  0.0083 -0.1585
11601W        W31881  18.696  11.412  12.597 -0.2530  0.2128  0.2524
11602W        W31882   2.453   6.131  13.097  0.2252  0.1054  0.0463
11603W        W31883  17.527   7.479   1.970 -0.3975 -0.0729 -0.2109
11604W        W31884  10.267   6.343   1.556 -0.3534  0.0989  0.0537
11605W        W31885   2.246  14.494  12.439 -0.3042 -0.1966  0.2792
11606W        W31886  11.813  18.385  12.793  0.0521  0.1970 -0.1525
11607W        W31887   4.139  11.442   1.709 -0.2493 -0.0154  0.4063
11608W        W31888   5.634   1.907   3.910 -0.4543  0.1931 -0.1753
11609W        W31889   7.742   3.648   3.201  0.1876 -0.1178  0.3656
11610W        W31890   3.010   8.624  12.745  0.6022 -0.1399 -0.0674
11611W        W31891  11.444   1.815  13.653 -0.1115 -0.0982 -0.0930
11612W        W31892   6.411  17.880  10.906 -0.1927 -0.0361  0.0945
11613W        W31893  15.279  13.050  12.897  0.2125  0.1154 -0.1286
11614W        W31894  18.004  15.991  12.185 -0.0492  0.1793 -0.0288
11615W        W31895   4.673  19.298  12.529  0.0180 -0.3428  0.1645
11616W        W31896   4.837   6.922  11.898 -0.0118 -0.3653  0.0358
11617W        W31897   4.786  12.194  11.241  0.0261 -0.1007 -0.4626
11618W        W31898   0.809  18.868   0.894  0.0304  0.1920  0.0546
11619W        W31899   6.463  15.277  10.616 -0.1961 -0.2041 -0.0105
11620W        W31900  18.965   0.879  10.974  0.0703  0.1324 -0.1478
11621W        W31901   3.218  17.290   1.685 -0.4306  0.2080 -0.0525
11622W        W31902   0.255  19.266  13.017  0.2450 -0.0917  0.1911
11623W        W31903   9.392   1.450   2.737 -0.3568  0.3413  0.0422
11624W        W31904   2.227   2.462  11.323  0.0626  0.0069 -0.0509
11625W        W31905   5.506  11.755   1.023  0.1082  0.0655 -0.3705
11626W        W31906   9.891  12.551   1.575  0.0756 -0.1316  0.0089
11627W        W31907  12.250   9.724   3.540 -0.0867  0.2271 -0.3913
11628W        W31908   0.713   6.714   0.152  0.1833 -0.5015 -0.2281
11629W        W31909   2.772   0.683   0.621 -0.0770 -0.1304  0.1736
11630W        W31910   0.380   6.752   0.521 -0.1432 -0.1516 -0.1664
11631W        W31911   8.945   6.720   2.709 -0.2018 -0.3130  0.2120
11632W        W31912   6.835   3.563   0.113 -0.1578 -0.2038  0.1893
11633W        W31913   7.693  19.386   9.777 -0.3986  0.0077  0.0782
11634W        W31914   1.765  11.732   3.215  0.3868  0.1586 -0.0423
11635W        W31915  17.345   9.829  11.104  0.1742  0.0321 -0.3915
11636W        W31916   4.758  10.016  10.540  0.2200  0.0884 -0.1209
11637W        W31917   6.144  17.717   1.315  0.3244 -0.1113 -0.0614
11638W        W31918  15.086   3.892  11.488  0.2104  0.0118 -0.1848
11639W        W31919  14.297   6.720   2.559  0.2372 -0.2203  0.0082
11640W        W31920  15.844  17.195   3.798  0.0339  0.1494 -0.0641
11641W        W31921   8.014  11.434  12.870  0.1758 -0.1234  0.0009
11642W        W31922  11.545   2.527   2.380 -0.0904  0.0982 -0.0344
11643W        W31923  12.505   3.659  11.394  0.0190  0.0964 -0.0709
11644W        W31924   8.264  12.369   3.742 -0.0634  0.0186  0.1064
11645W        W31925   0.559  17.710  10.326  0.0039 -0.0712 -0.3225
11646W        W31926  15.038  15.448  10.886  0.1075  0.0278 -0.2521
11647W        W31927  16.241   1.575   0.915  0.0838 -0.0718 -0.2732
11648W        W31928   6.871  13.662   0.476 -0.1345 -0.0140  0.3464
11649W        W31929   3.670  14.054   3.512  0.1436 -0.1293 -0.0354
11650W        W31930   6.591   2.590   2.856 -0.1998 -0.1208 -0.0542
11651W        W31931  14.329  17.296  11.839 -0.4835  0.0122 -0.1761
11652W        W31932   1.766   3.630  13.823 -0.1161 -0.1139 -0.2504
11653W        W31933  10.733  14.420  10.663  0.0889  0.5006  0.1722
11654W        W31934   8.788  14.491  11.035 -0.1372 -0.1055 -0.0512
11655W        W31935   7.259   0.831  12.820  0.3404 -0.1824 -0.1470
11656W        W31936   4.280   4.615   2.450 -0.2636 -0.0118 -0.0435
11657W        W31937  18.506   6.529   0.284 -0.0129  0.1912 -0.1574
11658W        W31938   1.132  19.265  13.359 -0.2827 -0.2105 -0.1147
11659W        W31939  14.064  11.126   9.950 -0.0008  0.1097  0.0286
11660W        W31940  12.966   7.365  11.704  0.1844  0.1691 -0.0163
11661W        W31941   5.582  11.055  11.329  0.1195 -0.0004 -0.0020
11662W        W31942  15.234  16.339  12.409  0.1485 -0.1073  0.2423
11663W        W31943   6.233   8.142  10.609 -0.0363 -0.0522  0.1575
11664W        W31944  19.234  12.356   2.124  0.0847  0.0337 -0.3191
11665W        W31945   5.523   6.624   0.395 -0.2528 -0.0343 -0.0292
11666W        W31946   5.340   7.828   3.459  0.1613 -0.0711  0.0903
11667W        W31947   1.451  12.972   0.407  0.1105  0.4085  0.2510
11668W        W31948  19.644   5.822  11.553 -0.0332 -0.2288 -0.1216
11669W        W31949   9.541   3.709   0.255  0.1507 -0.1269 -0.1356
11670W        W31950  17.913  18.596  11.898  0.2025  0.0346 -0.1686
11671W        W31951  13.153   7.102   3.930 -0.0472 -0.1052 -0.3298
11672W        W31952  19.451   4.997   9.964  0.1415  0.1162 -0.0590
11673W        W31953  12.633  11.152   9.323  0.4022  0.0251 -0.2342
11674W        W31954  19.928   3.979   3.926 -0.2228  0.3766  0.1740
11675W        W31955  10.160   1.722   1.196 -0.2490 -0.4672  0.3700
11676W        W31956   5.412   5.128   1.169  0.0028 -0.0956 -0.0743
11677W        W31957   7.627  12.423  10.807 -0.3658  0.0484  0.0692
11678W        W31958  13.844  12.734  10.600  0.2972  0.1686  0.0178
11679W        W31959   7.706   0.873   2.277 -0.0932 -0.0338 -0.2118
11680W        W31960  14.460  15.340  11.338  0.0958  0.1658  0.0734
11681W        W31961  12.584  15.572   3.105  0.0881  0.1209 -0.0430
11682W        W31962  13.008   0.636   1.172 -0.3095  0.0968  0.1634
11683W        W31963   7.418   1.208   1.537  0.0916  0.2168  0.0758
11684W        W31964   9.890   1.051   2.557 -0.1714  0.2799  0.0096
11685W        W31965  13.009   7.667  12.741  0.0644  0.3952 -0.1229
11686W        W31966   7.970   4.566   9.591  0.3410 -0.0948 -0.1518
11687W        W31967   4.677   2.916   1.463 -0.1067  0.1468  0.1172
11688W        W31968   9.610  10.975   5.307  0.1844  0.3607 -0.0270
11689W        W31969   3.755   6.737   1.434 -0.0121  0.0109 -0.0536
11690W        W31970  18.909   6.003  10.958  0.2517  0.2160  0.0659
11691W        W31971   1.103   9.702  10.702 -0.5846 -0.0908 -0.0910
11692W        W31972   8.586  13.392  12.579  0.1593 -0.1545 -0.1038
11693W        W31973   8.144   8.709   0.992 -0.0630  0.3560  0.2067
11694W        W31974  13.467   6.596  12.045  0.0059  0.0132  0.0347
11695W        W31975   7.283   1.627   1.405  0.0500 -0.1707  0.2074
11696W        W31976   6.538   1.338  10.748 -0.0503 -0.0231 -0.1914
11697W        W31977   8.763   9.684  12.233 -0.1802  0.0160  0.0691
11698W        W31978  15.172   3.477  11.839  0.0626 -0.0408  0.1121
11699W        W31979   1.654  14.278  13.367 -0.2397  0.0755  0.0203
11700W        W31980  19.390   8.200   3.100 -0.3829  0.0626  0.1380
11701W        W31981  12.567   4.400  11.270 -0.0303 -0.2378  0.2076
11702W        W31982   9.703   1.991   1.278  0.1117  0.1082 -0.4360
11703W        W31983   7.860   8.367   3.969  0.0804  0.1466  0.0641
11704W        W31984   6.811   4.667   3.244 -0.0776  0.3809 -0.1105
11705W        W31985  17.362  18.919   2.306  0.0176  0.0207 -0.0081
11706W        W31986  13.181  18.897   2.682  0.0215  0.0688 -0.0423
11707W        W31987  17.627   3.867  12.448  0.0091 -0.3180 -0.1205
11708W        W31988   5.258  12.384   1.304  0.2741  0.1313  0.3633
11709W        W31989   9.208  17.847   0.322  0.1737  0.1478  0.2451
11710W        W31990   7.305  19.477   0.421  0.0614  0.1612 -0.1005
11711W        W31991  17.061   1.521   2.178 -0.3001 -0.0215  0.1049
11712W        W31992  15.645  19.827  11.200  0.1028 -0.0189 -0.0015
11713W        W31993  13.413  14.857   1.497  0.1197 -0.0646 -0.3249
11714W        W31994  17.521  17.217  13.587 -0.0962 -0.0195 -0.0112
11715W        W31995  14.624   8.039   2.528  0.0276  0.1711  0.2961
11716W        W31996  18.115  11.306   9.801 -0.0513 -0.0943 -0.2652
11717W        W31997  14.543  19.155  12.349  0.1683 -0.1175  0.0005
11718W        W31998   4.030   0.925  13.501 -0.1520  0.1303 -0.0845
11719W        W31999  18.575  12.367   1.454  0.0905  0.1159 -0.0633
11720W        W32000  16.716   5.802  11.780 -0.1398  0.2263 -0.1020
11721W        W32001  18.325   8.564  13.368 -0.0548  0.3111  0.1062
11722W        W32002   7.187   0.268   1.571 -0.1287  0.1128 -0.0424
11723W        W32003   2.832  19.608   0.039  0.1500 -0.1748 -0.2788
11724W        W32004  18.650   2.382  13.731  0.1456 -0.0132 -0.6962
11725W        W32005  19.004  10.616   9.651  0.0998  0.0812 -0.0699
11726W        W32006   0.698  18.184   2.959 -0.2972  0.0788  0.0128
11727W        W32007  18.203   2.579  11.766 -0.0300 -0.0601 -0.2538
11728W        W32008  16.989   8.424  13.643 -0.0843  0.1723  0.1574
11729W        W32009  13.991  10.165   2.933 -0.1164 -0.0092 -0.0261
11730W        W32010  15.318   2.542   3.709  0.0528  0.0502 -0.3031
11731W        W32011   5.874   8.553  12.485 -0.0341 -0.0421  0.2141
11732W        W32012   0.744   3.393   1.595  0.0434 -0.0885  0.1515
11733W        W32013  15.801  13.439   0.537 -0.0296  0.0952 -0.1167
11734W        W32014  12.334  16.293   0.544  0.3357  0.2388 -0.0234
11735W        W32015   4.787   6.086  12.605  0.0361  0.2699  0.2092
11736W        W32016  14.746  17.602  12.729 -0.1629  0.0212 -0.0687
11737W        W32017   5.845   9.631  11.340  0.0959 -0.0150 -0.0331
11738W        W32018  12.535   3.294   1.761 -0.0957  0.1269  0.0187
11739W        W32019  14.036  11.725   2.298  0.1104 -0.1318 -0.3391
11740W        W32020   4.302   7.867   4.661 -0.0094 -0.0286  0.2562
11741W        W32021  15.863  12.323  11.506 -0.0712  0.1374 -0.3711
11742W        W32022  11.854   4.892   3.744 -0.0045 -0.0347 -0.3217
11743W        W32023   4.883  11.037  12.059  0.0695  0.3449  0.2885
11744W        W32024   5.559  15.484   3.536 -0.4855  0.2887 -0.2042
11745W        W32025  19.910   2.354  10.718  0.0152 -0.1638 -0.0122
11746W        W32026  11.363   6.743   9.172  0.1856  0.0691  0.3405
11747W        W32027   7.478  10.650   4.317 -0.2069  0.1263 -0.4258
11748W        W32028   8.830   8.669   1.660  0.1384 -0.1986 -0.0023
11749W        W32029  17.331   4.597   0.380  0.0770  0.3770  0.1880
11750W        W32030   2.460  19.022  13.060  0.2430  0.3314  0.1924
11751W        W32031   7.426   7.609   1.070 -0.1418 -0.0183  0.6543
11752W        W32032  14.259   8.956  10.723 -0.0885  0.3150 -0.0258
11753W        W32033  11.748  15.738   9.929  0.0259 -0.0376 -0.3496
11754W        W32034   4.183  19.544  11.775  0.1520 -0.0151  0.1896
11755W        W32035   3.529   3.551   1.299  0.2909 -0.3020  0.0814
11756W        W32036  18.126   4.965   1.229  0.0835  0.0415  0.3184
11757W        W32037   6.981   5.339   2.354 -0.2081  0.3584  0.1018
11758W        W32038   2.982   9.356   3.371  0.0143 -0.4482 -0.1988
11759W        W32039  17.701   5.495  13.858  0.1096 -0.0650 -0.0879
11760W        W32040  11.331   6.835  12.776  0.1120 -0.2128 -0.3760
11761W        W32041  18.680  15.694   1.667  0.0473 -0.0466 -0.4440
11762W        W32042  11.080   0.864   3.283 -0.0727  0.0073  0.2927
11763W        W32043  10.846  12.776  10.703  0.2483 -0.0727 -0.1426
11764W        W32044  19.544  18.733  10.622 -0.2420 -0.1096 -0.2643
11765W        W32045  13.104  15.297  10.617  0.1960 -0.0873  0.3321
11766W        W32046   4.224  15.271  12.042 -0.0734  0.1209  0.2493
11767W        W32047   3.695  11.022   3.561  0.0236 -0.1198  0.2488
11768W        W32048   8.285  16.047   1.283  0.0099  0.0987  0.0177
11769W        W32049  16.559  17.635  11.183  0.4633 -0.1032 -0.2994
11770W        W32050   3.995  13.980   1.328 -0.1608 -0.1880 -0.1915
11771W        W32051   5.767   6.394  10.537  0.0524 -0.2910  0.2159
11772W        W32052  19.534   5.621  13.433  0.1749 -0.1451 -0.0948
11773W        W32053  19.016   6.891   1.681 -0.2960 -0.0669 -0.0194
11774W        W32054  19.922  18.877  12.211  0.2175 -0.0696  0.1043
11775W        W32055  12.009   9.876   9.322  0.1118 -0.2161 -0.2426
11776W        W32056   5.573  19.280   2.637  0.5287 -0.0754  0.3573
11777W        W32057   7.887   5.460   2.252  0.0184  0.1934 -0.1402
11778W        W32058  10.318   8.351   0.059  0.3753 -0.2121  0.3147
11779W        W32059   0.871  10.004   3.728  0.0383 -0.1857  0.1584
11780W        W32060  16.948   4.425   9.943  0.3692  0.1402 -0.1836
11781W        W32061   1.064   9.317  11.551 -0.3065 -0.2449  0.0142
11782W        W32062  15.075  18.104  11.752  0.1573 -0.0148  0.0006
11783W        W32063   7.680   9.984  11.230  0.1219  0.1998 -0.0115
11784W        W32064  16.782  10.493   0.999 -0.1250  0.0618 -0.2247
11785W        W32065  16.017   6.167  11.572 -0.1422  0.1656  0.0898
11786W        W32066   7.477   1.049   0.546  0.0820  0.2845  0.3774
11787W        W32067  12.635   6.410   0.225 -0.0382  0.3516  0.1250
11788W        W32068  15.452   1.516   1.157 -0.2294 -0.0752  0.0504
11789W        W32069   9.756   7.703   1.978 -0.1864  0.1747  0.0896
11790W        W32070  16.244   4.903   0.808  0.0359 -0.2889  0.3418
11791W        W32071  10.935  10.089   2.776  0.0810  0.1390  0.2395
11792W        W32072  18.901  10.982  10.683  0.1882 -0.1005  0.0365
11793W        W32073  17.576  19.311  13.482 -0.1044 -0.2919 -0.2159
11794W        W32074  17.799   7.091  11.124 -0.0967 -0.0319  0.2239
11795W        W32075   6.441  10.610   0.190  0.0853  0.1748 -0.0408
11796W        W32076   6.630   2.980   2.532  0.2683 -0.0411  0.0159
11797W        W32077   3.246  12.974   2.682  0.1244  0.0456 -0.1338
11798W        W32078   6.010   1.285  10.682 -0.3687  0.2001  0.1654
11799W        W32079  14.251   3.167   2.234  0.3024  0.0586  0.2131
11800W        W32080  13.395  19.371   3.125 -0.2166 -0.1324  0.2513
11801W        W32081   7.844   9.981  11.756 -0.0052 -0.2618  0.0039
11802W        W32082   5.763  14.146  10.373  0.1180  0.1498  0.2017
11803W        W32083  17.190  19.129   1.212 -0.1605  0.0508  0.0070
11804W        W32084   4.391  12.209   1.483 -0.2086  0.2957  0.0364
11805W        W32085   5.741  19.604  11.178 -0.1718  0.0991 -0.1557
11806W        W32086   5.986   5.634   0.622 -0.0353 -0.4476  0.0168
11807W        W32087   6.233   8.689   2.032  0.1143 -0.3785  0.0104
11808W        W32088   5.524   5.461  13.225 -0.3892 -0.2029  0.0646
11809W        W32089  13.178   4.333   0.863  0.1114 -0.2530  0.3124
11810W        W32090   0.991  18.792   0.287  0.1035  0.1810  0.2049
11811W        W32091  10.225  17.351   2.014 -0.1585  0.1500 -0.2567
11812W        W32092   2.125  10.960   3.334  0.0186 -0.1583  0.0543
11813W        W32093  17.349   8.560  10.488  0.1342 -0.1579 -0.0715
11814W        W32094   6.380   2.670   3.379 -0.1326 -0.0826 -0.3032
11815W        W32095   4.055   7.356   2.354  0.0265 -0.1820 -0.0798
11816W        W32096   8.265  13.424   1.769 -0.1369 -0.1738 -0.1861
11817W        W32097  14.818  11.447  11.247 -0.0552  0.3685  0.2578
11818W        W32098   3.307   5.743   0.337  0.2693  0.0770  0.1335
11819W        W32099   0.973   4.525  10.822 -0.1265  0.3926  0.0648
11820W        W32100  11.043   0.092  12.245  0.0816  0.0264 -0.2081
11821W        W32101   8.717  17.106  11.869 -0.3672  0.2566  0.1287
11822W        W32102  15.737   3.936  13.497  0.1978  0.3023 -0.0346
11823W        W32103  15.835   6.618  13.132  0.1380  0.1783  0.3445
11824W        W32104   2.150   5.748   9.207  0.1557  0.0116 -0.1570
11825W        W32105   3.078   8.999   9.098  0.2897 -0.1795  0.1271
11826W        W32106  17.635  14.346   2.847 -0.1865  0.2763 -0.0169
11827W        W32107  15.606   0.653  10.747  0.2496 -0.1562 -0.0994
11828W        W32108  15.073   0.603   2.081 -0.1289  0.1612  0.2469
11829W        W32109   8.609  18.892  13.664 -0.0730  0.0034  0.0239
11830W        W32110   6.480   4.553  13.579  0.3723  0.1253  0.1709
11831W        W32111  10.594  14.644   3.107 -0.1087 -0.1583  0.2018
11832W        W32112  19.681  14.039  10.185  0.0096 -0.1331 -0.2515
11833W        W32113   0.788  19.594   2.925 -0.0284  0.1924  0.0130
11834W        W32114  10.744  16.420   3.520  0.1126 -0.0901 -0.5663
11835W        W32115  10.939   4.413   3.685 -0.0987  0.2621  0.1381
11836W        W32116   8.965  18.776   0.192 -0.2306  0.0541 -0.0902
11837W        W32117   1.899  15.574  11.831 -0.1112 -0.0107  0.0882
11838W        W32118  11.548  16.442   0.097  0.1018  0.0020  0.0561
11839W        W32119  13.651  15.717   2.551  0.2071 -0.2308 -0.0697
11840W        W32120   4.381   8.696   1.542 -0.2304  0.1259  0.0521
11841W        W32121  12.273  18.576   0.580 -0.0778 -0.1612  0.0277
11842W        W32122   8.213   4.103   3.265  0.0090 -0.1948  0.1202
11843W        W32123  19.027   8.247  11.731  0.2942  0.1060  0.0502
11844W        W32124   3.695   0.741  13.824 -0.4680 -0.0268  0.1795
11845W        W32125   1.659  15.017  10.242 -0.1761  0.0110  0.0511
11846W        W32126   4.514  13.570   3.139 -0.0718  0.0545 -0.1117
11847W        W32127   6.796   4.044  12.885 -0.3074  0.0145 -0.2951
11848W        W32128  17.847  16.676  10.816 -0.2152  0.1157 -0.0381
11849W        W32129   6.159   8.558  10.874  0.1845 -0.4396 -0.0083
11850W        W32130  16.057   7.181   2.951  0.3683 -0.0234 -0.1072
11851W        W32131  13.180  17.357  12.067  0.2649  0.0095  0.0619
11852W        W32132  19.377  12.597  11.142  0.1296 -0.0985 -0.1413
11853W        W32133   9.658  16.792  12.300  0.0111 -0.1608 -0.2780
11854W        W32134  16.588   9.519   0.782  0.0134  0.0602  0.0012
11855W        W32135   8.092  16.274   3.154  0.2178 -0.1706  0.2622
11856W        W32136  10.634   7.480   2.108  0.0056 -0.0853  0.3443
11857W        W32137  13.884   2.132  10.295 -0.0255 -0.0852  0.1480
11858W        W32138  15.631   7.853  10.144  0.0436 -0.1811 -0.1591
11859W        W32139  19.189  17.341   2.035 -0.1394 -0.0115 -0.0580
11860W        W32140  16.050  10.266   3.247 -0.1362 -0.2850  0.1598
11861W        W32141   9.429  19.731  11.287 -0.0240 -0.3564 -0.0298
11862W        W32142   9.126   6.486  12.699 -0.0949  0.2416 -0.0553
11863W        W32143   9.525  15.933  10.675  0.1998 -0.1221  0.0005
11864W        W32144  17.975  12.027   3.117  0.2351  0.0988 -0.0422
11865W        W32145  14.769   7.060  13.848 -0.1903  0.0385  0.1144
11866W        W32146  15.199   3.150  12.431  0.2768  0.0483 -0.2255
11867W        W32147  10.757   9.599   3.531  0.0084  0.0982 -0.2402
11868W        W32148  17.869  19.315   2.450 -0.3263  0.0884  0.0073
11869W        W32149  11.016   9.624  12.287 -0.0260  0.2091 -0.3182
11870W        W32150   1.598   2.385   2.768  0.0135 -0.0260 -0.1394
11871W        W32151  13.483  17.440   1.501 -0.2667  0.2645  0.2667
11872W        W32152   5.964   2.618   4.173 -0.3206 -0.1784  0.0420
11873W        W32153   9.397   2.926   1.361 -0.0024  0.0797 -0.0060
11874W        W32154   0.418   5.896   0.310  0.1325  0.1294 -0.0300
11875W        W32155  11.736   6.377  11.944 -0.2828 -0.0593 -0.3226
11876W        W32156  13.162  11.335   3.637  0.0854 -0.0461  0.1297
11877W        W32157  11.454  17.902   0.276 -0.0171 -0.2041  0.0256
11878W        W32158  18.655  11.540   1.723 -0.0549  0.0865 -0.0659
11879W        W32159  13.563  19.599  12.187  0.0539  0.2071  0.1125
11880W        W32160  11.927   1.185  12.307 -0.1633 -0.1155 -0.3543
11881W        W32161   2.683  19.009  11.104 -0.0709 -0.1587 -0.0229
11882W        W32162  19.552  11.224  11.215 -0.1938  0.2801  0.0020
11883W        W32163  14.398   9.787   0.367 -0.0398 -0.1717  0.2151
11884W        W32164  16.674   3.524   8.938 -0.1880 -0.2004 -0.1182
11885W        W32165  17.383   6.894  12.204  0.0560 -0.2849  0.0587
11886W        W32166   5.984   2.018  11.765  0.0835 -0.0923  0.1291
11887W        W32167  10.329   7.380   1.315  0.2689  0.0950  0.1994
11888W        W32168  11.487   8.497  10.316 -0.1344 -0.0468 -0.2119
11889W        W32169  10.675   6.025  11.282 -0.0032 -0.0139 -0.3947
11890W        W32170  13.404   0.963  13.553 -0.1345  0.1407 -0.2147
11891W        W32171  14.234  12.971   2.373  0.2256  0.2328  0.2144
11892W        W32172  16.903   2.912  10.301  0.2676  0.3977 -0.3231
11893W        W32173  17.962   6.491   1.439 -0.3290  0.0145  0.2269
11894W        W32174   3.029   9.577   4.270 -0.0156  0.0430 -0.1018
11895W        W32175   6.866   4.217  13.464  0.0612 -0.0075  0.2110
11896W        W32176   2.629  19.784   5.121 -0.0704  0.0667  0.1652
11897W        W32177  13.100  11.751  10.871  0.3767  0.0711  0.3445
11898W        W32178  18.911   2.135  13.297 -0.1299 -0.0473 -0.1964
11899W        W32179  19.056  14.923  13.774  0.0103  0.0079 -0.1630
11900W        W32180  16.574  10.298   9.700  0.1005 -0.0448 -0.4684
11901W        W32181  17.231  12.352  11.796 -0.0980 -0.2107  0.1462
11902W        W32182  19.313   6.764  12.778  0.1270  0.1856  0.1716
11903W        W32183   3.682  11.518   1.183 -0.2484 -0.0833  0.2347
11904W        W32184  10.413   3.203   0.365 -0.0003  0.4344 -0.0987
11905W        W32185  16.454   9.061  10.186  0.1639  0.3826 -0.2051
11906W        W32186   3.265   4.532  11.913 -0.1626  0.1849 -0.1291
11907W        W32187   1.295   2.504  10.700  0.0808  0.1453 -0.1512
11908W        W32188   1.631   3.106  13.492  0.0651  0.0413 -0.0864
11909W        W32189   5.175   8.630  12.058  0.0523 -0.0812  0.2361
11910W        W32190  10.577  13.456   9.850 -0.0717 -0.1943 -0.1374
11911W        W32191  14.087  16.008   2.484 -0.0266 -0.3427  0.0145
11912W        W32192   3.127   5.145   4.581  0.1220 -0.0071  0.1619
11913W        W32193   5.470  14.503   4.102  0.3518 -0.1054 -0.0415
11914W        W32194  16.836   1.509  11.465 -0.0929 -0.3860  0.0396
11915W        W32195  16.288  11.893   2.101 -0.0694  0.2143 -0.2508
11916W        W32196   1.327   7.998  12.051 -0.1000  0.0120 -0.0521
11917W        W32197   1.670   1.718  12.245 -0.0511  0.4252  0.0932
11918W        W32198   1.827  12.143  11.099 -0.2454  0.0577 -0.0441
11919W        W32199  15.744   7.388  11.926  0.0935 -0.0355 -0.0367
11920W        W32200   5.890  12.828  12.748 -0.0402  0.0651 -0.1766
11921W        W32201   4.704  18.363  13.715  0.0295 -0.0279  0.1944
11922W        W32202   0.889   3.259  12.206  0.2615 -0.0739 -0.0100
11923W        W32203   2.783  12.049  11.177 -0.1532 -0.0357  0.2273
11924W        W32204  19.397  18.313   0.015 -0.1156 -0.2472 -0.1601
11925W        W32205   0.322  16.082   4.830 -0.1134 -0.0699  0.2478
11926W        W32206   4.270   6.133  13.039 -0.2964 -0.1517  0.3051
11927W        W32207   2.090  12.549  13.085 -0.1264  0.1090  0.1859
11928W        W32208  12.953  18.710  12.391  0.2466  0.0217  0.1761
11929W        W32209   4.744  10.866  12.738  0.4184  0.1954  0.3673
11930W        W32210   9.354  15.328  12.251 -0.3054  0.0145  0.4142
11931W        W32211   8.750  12.538   3.575 -0.0456  0.0185 -0.0594
11932W        W32212   3.130   4.349   3.369  0.3238  0.2199 -0.0507
11933W        W32213   1.847  16.926   3.802  0.2867 -0.0814  0.2997
11934W        W32214  13.769   1.784   2.405 -0.1060 -0.0363 -0.2360
11935W        W32215  15.322   0.600  12.581  0.5284 -0.0521 -0.2422
11936W        W32216  13.467   5.249   9.959  0.3816 -0.0851 -0.2906
11937W        W32217   7.954   0.854  10.830  0.1631 -0.4381 -0.1517
11938W        W32218  14.457  12.208  12.258  0.3602  0.0478  0.0354
11939W        W32219   9.426  13.286  12.510  0.4688  0.1536  0.0454
11940W        W32220   8.902   4.036   3.213  0.1667  0.2928 -0.0922
11941W        W32221   7.669  17.680   1.902 -0.1189 -0.2105 -0.0805
11942W        W32222   5.709   6.046   0.505 -0.1027  0.1640  0.2537
11943W        W32223  14.755  18.385   1.206  0.1557 -0.3192  0.1060
11944W        W32224  16.375  11.462  13.218  0.2896 -0.1105  0.2565
11945W        W32225  14.187   9.587  11.469 -0.1635  0.3447  0.4238
11946W        W32226  12.174  16.429  10.486 -0.2471  0.0686 -0.1237
11947W        W32227  12.651   5.126   4.157 -0.4313 -0.1285 -0.2232
11948W        W32228  16.904  11.320   0.933  0.1300 -0.0839  0.0759
11949W        W32229   3.264  19.442   9.755  0.2942 -0.2714 -0.0874
11950W        W32230   4.154  12.618  13.367  0.0853 -0.0434  0.0557
11951W        W32231  13.627   0.393   2.295 -0.0349  0.0179  0.1872
11952W        W32232  12.099  11.951   9.622  0.0598  0.0724 -0.1732
11953W        W32233   2.450  18.700   0.628 -0.0766  0.1973  0.1186
11954W        W32234  12.731  18.275   3.514  0.2176 -0.3009  0.1658
11955W        W32235   0.612   5.058  12.742  0.0954  0.1658 -0.1366
11956W        W32236  13.686  15.550  12.374 -0.1523 -0.1308  0.0619
11957W        W32237  11.121   2.914   2.052 -0.0387 -0.1466 -0.1131
11958W        W32238   3.426   4.233  13.647  0.0617 -0.2601  0.0208
11959W        W32239  16.453   3.365  13.003  0.0237 -0.1061 -0.3956
11960W        W32240  15.341   9.100  10.031 -0.1190  0.3633 -0.0189
11961W        W32241   7.459  17.175   1.745  0.1091 -0.3574 -0.0310
11962W        W32242   9.004  18.380  13.619 -0.0534  0.0374 -0.0285
11963W        W32243  11.277   5.167   0.716 -0.1354 -0.1876  0.0855
11964W        W32244   9.578   7.590   3.742  0.2547  0.3871  0.0235
11965W        W32245  19.653  15.879   0.674  0.2662 -0.3073  0.1001
11966W        W32246  13.302   3.577  13.411  0.2886 -0.1218  0.1329
11967W        W32247  12.450  14.312  11.914  0.0096 -0.0087  0.1989
11968W        W32248   5.122  16.191  11.971 -0.0880  0.0272 -0.0076
11969W        W32249  11.779  17.138  11.513 -0.0888  0.2249 -0.0527
11970W        W32250  15.787  17.694  10.595 -0.1887  0.3131 -0.1272
11971W        W32251  14.249   5.129   0.187  0.0326 -0.1005  0.3765
11972W        W32252  17.643  19.750  11.641 -0.3937 -0.0162 -0.2531
11973W        W32253   1.049   7.552  10.880 -0.0624  0.1426 -0.0559
11974W        W32254   0.624  15.532  11.222  0.2421 -0.0051  0.7046
11975W        W32255   5.143   8.786  12.967 -0.0229 -0.0913  0.1587
11976W        W32256   8.556   4.502   1.242 -0.0629  0.1032  0.2492
11977W        W32257  11.870  19.312   3.277 -0.0335  0.1301  0.3151
11978W        W32258  16.639   1.534  13.495 -0.1305 -0.0322 -0.3384
11979W        W32259   3.815  18.206   0.124 -0.0064  0.0308 -0.1809
11980W        W32260  13.524  19.895   2.924  0.2203 -0.1997  0.1598
11981W        W32261   7.434  12.179   3.207  0.1559 -0.2641 -0.1426
11982W        W32262  18.604   4.362   3.108  0.0133 -0.2032 -0.2098
11983W        W32263  14.853  16.799  11.017 -0.0620  0.2346 -0.0271
11984W        W32264  12.692  12.218  12.579 -0.1500 -0.0949  0.2123
11985W        W32265  16.380   5.407   2.716 -0.1395  0.0261 -0.1468
11986W        W32266   9.966  19.304   1.173  0.4583 -0.1707 -0.1508
11987W        W32267   3.852  16.690  11.350  0.2690  0.0816 -0.3819
11988W        W32268  15.151   2.396   2.873  0.0897  0.1645  0.1137
11989W        W32269  13.581   8.219  11.982  0.1736  0.0401  0.0914
11990W        W32270   7.689   0.114  13.144  0.2314  0.1239  0.1081
11991W        W32271  10.827   2.017  12.633  0.2820  0.0992 -0.1524
11992W        W32272  19.181   3.677  11.409  0.1441  0.0070 -0.2208
11993W        W32273  11.755  10.926  10.499  0.1451  0.2485 -0.1498
11994W        W32274  19.305   6.334  13.333  0.0783  0.0193 -0.3900
11995W        W32275   1.204  15.367   2.528 -0.1134  0.1290  0.0917
11996W        W32276  17.943  12.616  10.204 -0.1074 -0.2337  0.0148
11997W        W32277  14.872  14.843  12.064  0.0362  0.0273  0.0900
11998W        W32278  12.625  17.791   0.496  0.3087  0.0102  0.3118
11999W        W32279   3.678  17.736  12.342  0.1199 -0.2144 -0.0798
12000W        W32280   2.470   4.677  10.024 -0.2164  0.2501  0.1176
12001W        W32281  14.503  17.365   2.670  0.0200 -0.1473 -0.2092
12002W        W32282  19.035  14.373  13.673 -0.1587  0.5359  0.1431
12003W        W32283  10.132   6.817   3.645  0.2218 -0.1492 -0.2173
12004W        W32284   5.276  18.602  12.869  0.1149  0.1396  0.0851
12005W        W32285  13.507  17.889   2.539  0.2194 -0.0129  0.0057
12006W        W32286   6.081   7.226  13.238 -0.0297 -0.0878 -0.0261
12007W        W32287  15.785   6.991   0.624 -0.0771 -0.0744  0.1020
12008W        W32288   5.823   5.118   3.774 -0.3869 -0.0596  0.2093
12009W        W32289  16.352   1.462   3.501  0.1300  0.3372  0.0221
12010W        W32290   0.244  11.042  10.760  0.1045 -0.2914 -0.1681
12011W        W32291  15.574   7.893   1.698  0.2279  0.0223 -0.1982
12012W        W32292  18.603  18.869  11.429 -0.2964  0.0547 -0.0645
12013W        W32293  18.205  10.592  12.107  0.2542  0.0394 -0.1646
12014W        W32294  12.644  10.648   3.105 -0.4067 -0.0721  0.3719
12015W        W32295  16.105  14.985  12.795  0.1961  0.0623 -0.2076
12016W        W32296  11.127  18.376   3.251 -0.0409 -0.1060 -0.0228
12017W        W32297   1.565   5.964  11.899 -0.1337  0.2286  0.0006
12018W        W32298  16.037  17.803  11.094 -0.1392  0.1927  0.0311
12019W        W32299  16.807   9.619   2.230 -0.5784  0.1191  0.0065
12020W        W32300  16.719  16.451  11.285  0.0758  0.2775  0.3527
12021W        W32301  19.024  14.568   9.997  0.3785  0.1372  0.0095
12022W        W32302  16.633  16.252  10.355  0.1680 -0.3338  0.0431
12023W        W32303  12.517   7.567   0.572  0.1738 -0.2195 -0.1846
12024W        W32304   9.887   4.905   3.931  0.3067  0.2107  0.0055
12025W        W32305   0.191  17.624  13.091  0.2930  0.1296  0.1082
12026W        W32306   1.068   5.229  10.205  0.0636  0.2338 -0.0300
12027W        W32307   5.599   7.127   4.012 -0.0688  0.0966 -0.3093
12028W        W32308   7.631   4.904   3.928 -0.1239  0.1626 -0.3013
12029W        W32309   0.781  12.635   4.909 -0.1030  0.1891 -0.4324
12030W        W32310  11.310   5.622  12.305  0.0573  0.3411  0.1284
12031W        W32311   5.129  18.499  10.934 -0.0104 -0.0139  0.5732
12032W        W32312   4.309   1.558   2.443 -0.1026  0.1656  0.0733
12033W        W32313  10.781  19.892   3.797  0.1796 -0.2052  0.0083
12034W        W32314   2.122  19.098   0.586  0.0887  0.3195  0.0543
12035W        W32315   8.137  18.724   0.686  0.0242 -0.1396  0.2639
12036W        W32316  11.914   1.369   0.336  0.3929 -0.4654  0.1269
12037W        W32317   9.220   0.402  13.162  0.0293 -0.1137 -0.0198
12038W        W32318   9.825  14.745   1.149  0.2324 -0.1725  0.2940
12039W        W32319   5.111  12.543   2.684  0.0816  0.0649  0.1415
12040W        W32320  16.129   1.084   1.077 -0.1606  0.2491  0.2988
12041W        W32321  18.293   3.700   3.634 -0.2109  0.2786 -0.1205
12042W        W32322  14.632  11.439  12.598  0.1270 -0.0141  0.1227
12043W        W32323  11.486  10.543   0.770 -0.1542  0.3262 -0.2752
12044W        W32324   0.123   7.798  10.466  0.1852  0.2302 -0.3374
12045W        W32325   4.372  15.684   2.432 -0.0935  0.0177  0.0842
12046W        W32326  14.596   1.400   2.770 -0.1813 -0.4714 -0.1092
12047W        W32327   0.042   2.125  11.221  0.0140 -0.1060 -0.3525
12048W        W32328   7.646  18.694   1.613  0.1497 -0.2569 -0.0095
12049W        W32329   7.993  11.576   4.309  0.2229  0.1707 -0.2489
12050W        W32330   7.957   7.801   1.225 -0.2657 -0.1233 -0.0722
12051W        W32331   6.869   0.351  12.540 -0.0160 -0.1768  0.1055
12052W        W32332   0.712  13.342  11.402  0.1917  0.0354 -0.1880
12053W        W32333  12.420   0.550   0.497 -0.2481  0.1051 -0.0095
12054W        W32334  15.407  10.645   9.976 -0.0234  0.1747  0.0613
12055W        W32335  14.584   4.011   2.080 -0.0193 -0.4886  0.0692
12056W        W32336   7.391  12.358   4.156 -0.1367 -0.1248 -0.1978
12057W        W32337  14.548  14.731  11.602  0.1907 -0.1111 -0.2501
12058W        W32338  10.859   3.725  12.498 -0.1414  0.0219 -0.1920
12059W        W32339   8.283  12.330  12.057 -0.0082 -0.2858  0.2148
12060W        W32340   3.542  13.105  11.141  0.0969  0.0867  0.0575
12061W        W32341  10.704   8.656   0.127 -0.1448 -0.1119 -0.0674
12062W        W32342  12.735   0.952   1.987  0.0062 -0.0522 -0.1429
12063W        W32343   6.570   1.713   4.037 -0.2163  0.1707  0.2379
12064W        W32344  18.333   3.697   2.421  0.0790 -0.2932 -0.0178
12065W        W32345   1.319  13.016  12.085 -0.0362 -0.1699 -0.0773
12066W        W32346   2.254   8.789   1.759 -0.2183  0.2268  0.0687
12067W        W32347  10.249   5.752   3.505 -0.0924 -0.2714 -0.0665
12068W        W32348  13.957   8.644  12.635 -0.0468  0.1490 -0.0331
12069W        W32349  17.048  16.702   2.230  0.0078  0.3835  0.2680
12070W        W32350  15.581  11.002  11.733 -0.0703  0.2966 -0.0924
12071W        W32351  12.507   6.584  13.580  0.0513  0.0775 -0.1195
12072W        W32352   2.445  11.213   0.122 -0.0306  0.0236 -0.1976
12073W        W32353   7.617   4.922  12.168  0.3724 -0.3101  0.0235
12074W        W32354  14.640   0.493  10.173  0.2383 -0.1144 -0.1251
12075W        W32355  13.250   7.818   9.751  0.0604  0.0372 -0.0358
12076W        W32356  12.130   0.213   3.416  0.1117  0.3106 -0.1069
12077W        W32357  12.076   1.229   1.006 -0.0613 -0.0806 -0.0478
12078W        W32358   5.226   6.312  12.460 -0.0600  0.1558  0.1566
12079W        W32359  18.626   0.355  13.386 -0.0543 -0.2001 -0.0226
12080W        W32360  12.773  12.601   2.157  0.0169  0.1158 -0.2579
12081W        W32361  11.012   2.321   0.679  0.1186 -0.3065 -0.1218
12082W        W32362  11.124   7.292   0.783 -0.0363 -0.0154 -0.1143
12083W        W32363  13.632   2.047   9.806 -0.0937  0.1899  0.1751
12084W        W32364   1.211  13.365  11.234  0.1056  0.3260 -0.3043
12085W        W32365  16.887   9.700   0.370 -0.1045  0.0424 -0.1297
12086W        W32366  13.699   5.134  12.265 -0.0941 -0.1324  0.1924
12087W        W32367   7.026   3.930   1.701 -0.1165 -0.1158 -0.2956
12088W        W32368   2.645   8.720   4.006  0.5757  0.1507 -0.2528
12089W        W32369   9.361   5.729  11.936 -0.2698  0.0719 -0.0807
12090W        W32370   2.179   6.406   0.613  0.0803  0.1169  0.0181
12091W        W32371   9.291   7.829  10.634 -0.2353 -0.0038 -0.1580
12092W        W32372  18.518  17.994   4.417 -0.2247  0.0272  0.5421
12093W        W32373   8.374  12.005   4.181  0.2943  0.0330  0.2298
12094W        W32374  11.614  19.049  10.054 -0.0783  0.1335 -0.0331
12095W        W32375   1.143  16.596  11.978 -0.3070  0.2441  0.1283
12096W        W32376   9.341   6.019   2.067 -0.2812  0.3577 -0.1649
12097W        W32377  17.269  12.291   0.584  0.0095  0.2150  0.0212
12098W        W32378  16.444  12.701   2.177 -0.0679 -0.1305  0.1525
12099W        W32379  16.519  15.155  10.123 -0.2131 -0.0629 -0.2693
12100W        W32380  16.905  10.292  13.352 -0.1570  0.0321 -0.0650
12101W        W32381   9.028  18.971  12.466 -0.0954  0.0885  0.2790
12102W        W32382   6.054  11.745  12.702 -0.1456 -0.0216  0.0549
12103W        W32383  16.649  11.871   2.464  0.1463 -0.0319 -0.0202
12104W        W32384   4.628   7.036  13.712 -0.0389  0.0813 -0.1934
12105W        W32385  10.953   5.693  10.367  0.1583 -0.0224  0.0166
12106W        W32386   4.373   9.465  12.324  0.3345 -0.2797  0.1481
12107W        W32387   7.335  10.108  11.844 -0.0892  0.0088  0.0780
12108W        W32388   3.566  18.865   2.869 -0.0719  0.1743 -0.0878
12109W        W32389   2.424  15.135  10.868  0.2420  0.1275 -0.2200
12110W        W32390  16.164  11.341  11.207  0.0463  0.3010 -0.1840
12111W        W32391   4.362  14.680  11.189  0.0530 -0.0485  0.3690
12112W        W32392  14.083   7.803   1.250 -0.0548 -0.0252 -0.1471
12113W        W32393   6.848   8.259  13.690 -0.0203  0.0772 -0.2946
12114W        W32394  19.580   5.510   2.946 -0.0444  0.0325  0.2195
12115W        W32395   1.587  17.188  10.835  0.0578  0.1316 -0.1238
12116W        W32396   8.580  11.421  13.539 -0.0021 -0.1196 -0.0736
12117W        W32397   6.835  17.023  11.930  0.0154  0.0905 -0.0477
12118W        W32398  18.612   0.653  10.530 -0.0156 -0.2698 -0.3380
12119W        W32399   1.157   2.165   2.895 -0.0112 -0.1304 -0.3439
12120W        W32400   1.454  13.125  12.534  0.0070 -0.1077  0.0622
12121W        W32401  15.474  14.063  10.080  0.1696 -0.0446 -0.1937
12122W        W32402  13.498  10.450  11.276 -0.0482 -0.0186 -0.0748
12123W        W32403  18.404  11.411   2.668 -0.0357  0.0337 -0.1328
12124W        W32404   9.506  14.868   0.212  0.0083 -0.0618  0.1002
12125W        W32405  10.518  19.810  13.453 -0.2708  0.1741 -0.1154
12126W        W32406  15.021  14.955   1.435  0.0825  0.3668  0.1217
12127W        W32407   1.164   3.789   1.642  0.2023  0.0807  0.1413
12128W        W32408   9.034  10.586  12.778 -0.0789 -0.1018  0.2120
12129W        W32409   2.923   5.454   0.153  0.1074 -0.2938  0.2209
12130W        W32410   9.505   3.029   0.730 -0.3561 -0.0486 -0.1191
12131W        W32411  14.822  10.978   2.490  0.0534 -0.0294 -0.0121
12132W        W32412   7.986  15.059   1.285  0.2182 -0.0107  0.0783
12133W        W32413  19.426   8.554   3.428  0.3479 -0.0737  0.0572
12134W        W32414   9.259  12.703  11.609  0.2727  0.0186 -0.3110
12135W        W32415  13.625  19.185  10.194  0.4046  0.1032  0.0334
12136W        W32416   4.325   6.861  11.436 -0.0330 -0.1469 -0.2699
12137W        W32417   3.641   3.811   3.590 -0.1993  0.1245  0.0710
12138W        W32418  19.646  13.561  13.093  0.0247  0.1872 -0.0783
12139W        W32419   4.992   0.809  11.353 -0.3418  0.3698  0.1134
12140W        W32420  19.127   9.820  10.211  0.2560  0.0994  0.1961
12141W        W32421   9.609   5.055   2.699 -0.0051  0.3588 -0.0217
12142W        W32422   1.320  16.827   3.881  0.2806 -0.3907 -0.2828
12143W        W32423   8.887   5.521  11.609  0.0780  0.0514 -0.1301
12144W        W32424  16.589   3.820   1.666 -0.1009  0.0053 -0.0103
12145W        W32425   5.312  19.139  10.124 -0.2286  0.2935  0.4010
12146W        W32426   6.527  19.143  13.072  0.2422  0.1043 -0.1764
12147W        W32427  16.681  13.537  11.945  0.1451 -0.2578  0.2824
12148W        W32428   7.922   9.874  12.786  0.1375 -0.1256 -0.0741
12149W        W32429   0.557   3.511   1.069 -0.0196 -0.0595 -0.1658
12150W        W32430  13.824   0.494   9.949 -0.0683 -0.0742 -0.1102
12151W        W32431  19.005   6.320   0.070  0.2964 -0.0856  0.0880
12152W        W32432   5.912   5.269   1.672 -0.1112 -0.2627 -0.2799
12153W        W32433   9.778  14.240  12.679  0.0254 -0.0308  0.2019
12154W        W32434  15.820   1.562  12.555 -0.1229  0.3778  0.0224
12155W        W32435  17.871   5.059  11.767 -0.2453 -0.2890  0.1331
12156W        W32436   7.305  14.487   3.549  0.2974 -0.1644 -0.2087
12157W        W32437   7.398   3.326  12.487 -0.0553 -0.1480  0.2913
12158W        W32438  10.519  16.092  10.610 -0.0422 -0.1418  0.2364
12159W        W32439   8.895   3.118   1.425 -0.1691 -0.2223  0.1920
12160W        W32440  13.542   1.043  11.512 -0.2208  0.2151 -0.1754
12161W        W32441   4.984  10.287  13.818  0.1718 -0.1100  0.1827
12162W        W32442   8.352   9.603   2.003  0.0807  0.0221 -0.0862
12163W        W32443   4.285  19.555   9.666  0.1584 -0.0352 -0.3744
12164W        W32444  15.760   0.886   2.987  0.0935  0.3298 -0.1748
12165W        W32445   7.609  12.881  11.533  0.3232  0.0282 -0.2817
12166W        W32446  19.314   6.664   3.509  0.1254 -0.2147 -0.0953
12167W        W32447   1.186  19.621  10.423 -0.0684  0.0246  0.0393
12168W        W32448  16.634   7.142   2.947 -0.0027  0.0053  0.4537
12169W        W32449  19.405   1.949   9.854  0.1472 -0.1704 -0.1170
12170W        W32450  16.145   3.612   1.793  0.0541  0.2789  0.4291
12171W        W32451   8.281  17.295   2.222  0.1119  0.1976  0.2721
12172W        W32452  11.266   0.074   2.065 -0.3871 -0.0828 -0.0549
12173W        W32453  12.463  19.808  11.515  0.0883 -0.4281  0.1799
12174W        W32454   4.621   1.635   1.194 -0.1013 -0.0005  0.0912
12175W        W32455  12.781  10.768   1.196  0.1963 -0.2891  0.2182
12176W        W32456   0.918  10.521   1.324 -0.0686  0.0401 -0.4831
12177W        W32457   7.184  12.146   1.806 -0.0311 -0.1154  0.0041
12178W        W32458   1.836  16.723  13.475  0.0573 -0.2036  0.1379
12179W        W32459   6.685   9.905  10.481 -0.1510 -0.0042  0.0252
12180W        W32460   1.997  18.879  13.142  0.1078 -0.1045  0.3049
12181W        W32461  16.402   2.303  11.493  0.4025 -0.0607  0.2007
12182W        W32462  12.827  12.047  10.108 -0.2417  0.3065  0.3621
12183W        W32463  12.667  12.173  11.220  0.2091  0.1820 -0.4143
12184W        W32464  15.670   8.676   9.967  0.1188  0.1946  0.2575
12185W        W32465   5.890   4.113   2.172  0.0071 -0.2548 -0.0941
12186W        W32466   2.283  14.668   2.481 -0.2375 -0.2055  0.2254
12187W        W32467  12.620  12.255   0.980 -0.2792  0.0328 -0.1915
12188W        W32468  10.155   8.965   3.171 -0.2463  0.0049 -0.0755
12189W        W32469   1.735  10.328   2.914  0.2428 -0.0454 -0.0347
12190W        W32470   7.347   7.187   1.436  0.1086 -0.3433  0.2101
12191W        W32471  11.272   9.670   3.414  0.2315  0.2990  0.4945
12192W        W32472   0.812  14.112  11.876 -0.1991 -0.0905 -0.0544
12193W        W32473   7.237  14.992   0.498  0.2786 -0.1252  0.4263
12194W        W32474  12.138  14.413  13.597  0.0770 -0.4044 -0.0073
12195W        W32475   8.730   6.532  11.088 -0.0119 -0.0061  0.1990
12196W        W32476  14.076   8.653   8.602  0.0938  0.0087  0.0142
12197W        W32477   3.380  13.621   3.575  0.1397  0.1401  0.0790
12198W        W32478  10.031   8.614   2.215  0.1384  0.1490 -0.0990
12199W        W32479   9.933   2.130   3.190 -0.1780  0.0388 -0.2718
12200W        W32480   4.693  15.456   2.047 -0.0435  0.1699 -0.0758
12201W        W32481  19.448  17.026   2.662  0.2471 -0.3121  0.0005
12202W        W32482   9.990  12.815  13.184 -0.3298 -0.1931 -0.1372
12203W        W32483  15.439  17.997   9.818  0.2656  0.0327 -0.0011
12204W        W32484   6.323   5.153  10.446  0.3097  0.2481  0.5041
12205W        W32485  12.367  19.183   3.290 -0.2502  0.0132 -0.0105
12206W        W32486   3.258   0.775   3.639  0.0968 -0.0362 -0.2137
12207W        W32487  16.368   6.236   0.351 -0.1705 -0.2463  0.2433
12208W        W32488   4.407   0.902  10.630  0.1637 -0.1759 -0.2885
12209W        W32489   8.752   2.938  11.047  0.3062 -0.0536  0.0511
12210W        W32490  17.682   1.739  12.882 -0.3492 -0.1324  0.2333
12211W        W32491   4.056  13.049   1.966  0.0818 -0.1383 -0.0241
12212W        W32492   9.894  16.878   2.098  0.1542  0.0748 -0.4256
12213W        W32493   6.515  10.139   0.323  0.1326 -0.1416 -0.2719
12214W        W32494  12.940   7.883   3.833 -0.0171 -0.1162 -0.1887
12215W        W32495   0.192  19.929   4.601  0.0679 -0.0638  0.0708
12216W        W32496   4.769  14.725   2.901  0.3009  0.0377 -0.0657
12217W        W32497   9.403  12.442  13.502  0.2269 -0.1232 -0.0534
12218W        W32498  14.731   4.220  12.944  0.1257  0.0618  0.2734
12219W        W32499   2.213  13.546  12.349  0.2924  0.1291  0.1049
12220W        W32500   9.299   3.152  12.694 -0.1632  0.1488  0.2455
12221W        W32501   9.321   6.732  12.044 -0.1725 -0.0333  0.1712
12222W        W32502   3.252  10.899  13.015 -0.2858  0.1453 -0.1911
12223W        W32503   1.141   3.495  10.134  0.1263  0.2061  0.2881
12224W        W32504   6.912  11.799  12.150  0.0991 -0.0457  0.0051
12225W        W32505  14.368   6.773   9.483 -0.0842 -0.0572  0.3595
12226W        W32506   4.957  19.394   1.624 -0.0628  0.1617 -0.0881
12227W        W32507  11.476  17.122   3.862  0.0055 -0.0964  0.3438
12228W        W32508  14.644   0.956  10.046 -0.0503  0.1673 -0.3645
12229W        W32509   2.275  14.986   1.698  0.3001  0.0895  0.0544
12230W        W32510   7.447  12.525   2.732 -0.1031  0.3456  0.0305
12231W        W32511   1.852   8.441  10.036 -0.2227 -0.1084 -0.0251
12232W        W32512  13.286   3.484   3.016  0.2904  0.1481 -0.1247
12233W        W32513   9.179  11.443   1.513 -0.4036  0.1554  0.1638
12234W        W32514   3.030  15.336  10.768 -0.2746  0.1850  0.0536
12235W        W32515   1.217  12.218   4.909  0.1171  0.0584  0.3427
12236W        W32516  12.881  13.921   0.799 -0.0875 -0.2738  0.0505
12237W        W32517   5.851   3.121   4.158 -0.4105  0.0571 -0.0656
12238W        W32518   7.940   5.450  12.948  0.2417  0.1167 -0.0249
12239W        W32519  12.369   0.814  10.357  0.0613  0.1061  0.1170
12240W        W32520   1.858   9.100   1.748  0.1017 -0.0221 -0.0285
12241W        W32521  17.857  10.661   9.889 -0.0689  0.1446 -0.0962
12242W        W32522   5.001   5.837   3.855  0.4009  0.1777 -0.2137
12243W        W32523   0.242  14.210   2.724 -0.4774 -0.2256 -0.0546
12244W        W32524  13.016  11.751  11.404 -0.1338 -0.0503 -0.1984
12245W        W32525   5.914   2.798  12.022 -0.0776  0.1009 -0.0741
12246W        W32526   0.350  15.054   0.584  0.0134  0.0283  0.1946
12247W        W32527  14.689  15.647   0.599 -0.1940 -0.3509  0.0540
12248W        W32528   9.877  18.880  13.300 -0.0958 -0.0080  0.2491
12249W        W32529   5.767   8.139  12.896  0.0314 -0.3242  0.2379
12250W        W32530   8.591   0.478  11.574 -0.2088  0.1644 -0.1276
12251W        W32531   4.110  19.061  13.448 -0.4817 -0.0038 -0.0230
12252W        W32532   3.195  12.468   0.350 -0.3046  0.0894 -0.0538
12253W        W32533  12.227  14.023  12.271 -0.0277  0.1441  0.0896
12254W        W32534  15.198   8.690   2.752 -0.2927  0.0067 -0.1890
12255W        W32535  16.076  10.805  11.919 -0.2424  0.1388  0.0156
12256W        W32536  12.188  10.643   9.748 -0.0771  0.2301 -0.0500
12257W        W32537   3.353   0.035   3.148  0.1437 -0.2478 -0.2794
12258W        W32538  10.769   1.741  11.232  0.1783  0.0485  0.2499
12259W        W32539  15.968   5.043   1.746  0.2818  0.0983 -0.0565
12260W        W32540   4.631  17.848   9.473 -0.1667 -0.4054 -0.0768
12261W        W32541   0.720  16.950   5.008  0.0541 -0.0965  0.0394
12262W        W32542  15.038   3.514  12.774  0.1874 -0.2916 -0.1813
12263W        W32543   2.466  17.278   1.804  0.0892 -0.0748  0.2161
12264W        W32544   0.907   8.577  12.845 -0.0326  0.1568 -0.1578
12265W        W32545   1.314  14.124  10.482  0.0778  0.0626 -0.1594
12266W        W32546  18.360  17.527   0.591 -0.4814  0.0938  0.0346
12267W        W32547   8.346  18.598   1.960  0.0243  0.3161 -0.1043
12268W        W32548  15.415  16.061   2.353  0.3028  0.0618 -0.2679
12269W        W32549   9.664  15.205   4.320  0.1599  0.0934 -0.0628
12270W        W32550  14.581   0.171   0.682  0.2354 -0.0641  0.1609
12271W        W32551  11.040   8.750  13.627 -0.0419 -0.0952  0.1952
12272W        W32552  14.479   2.944  13.860  0.2100  0.0040  0.3736
12273W        W32553  18.490   6.058  13.718 -0.0575  0.4717  0.2484
12274W        W32554   7.179  14.960   1.071 -0.0820  0.1407  0.0587
12275W        W32555   3.653   5.452  10.673 -0.1455  0.1721  0.0008
12276W        W32556   8.864  13.499   1.925  0.1959 -0.0324 -0.1126
12277W        W32557  13.809   9.135  10.420 -0.1120  0.3208  0.0331
12278W        W32558  13.293   6.303   2.866  0.1177 -0.0325  0.0505
12279W        W32559  17.084   2.547   1.423  0.4268 -0.3495  0.0175
12280W        W32560  16.913  14.481   2.550 -0.1133  0.0189 -0.1921
12281W        W32561   7.637   5.634  10.326 -0.2189  0.0850 -0.1872
12282W        W32562  12.510  17.311  13.326 -0.1045  0.1307 -0.2909
12283W        W32563  11.623  10.769  12.637  0.0050  0.0614 -0.0328
12284W        W32564   3.473   4.155   3.053  0.1118 -0.4627  0.0772
12285W        W32565  19.097  15.079   1.133 -0.0519 -0.3585  0.1091
12286W        W32566  13.331   5.659   2.896  0.2169 -0.2182 -0.1323
12287W        W32567   4.598   2.949   2.045 -0.1721 -0.2163  0.1345
12288W        W32568  14.966   3.945  12.024 -0.1795  0.1486 -0.1659
12289W        W32569  15.170   8.146  11.599 -0.0724 -0.0639  0.2534
12290W        W32570  11.764  10.973   0.649 -0.3336  0.2211 -0.3287
12291W        W32571   6.702  14.819   3.706 -0.0815 -0.1828 -0.0464
12292W        W32572  11.653   2.931   8.947  0.3376  0.1151 -0.0885
12293W        W32573  14.898  14.846   0.330  0.1402  0.0387  0.1345
12294W        W32574   2.830  11.504   0.266  0.1985 -0.0130 -0.2797
12295W        W32575  13.893   4.828   8.950  0.0356  0.0719  0.0303
12296W        W32576  15.536  13.525  10.307 -0.2057  0.0939 -0.0540
12297W        W32577   6.802   5.513   3.401 -0.0547  0.2198  0.1060
12298W        W32578   2.696   3.223  10.247  0.3331 -0.2788  0.2632
12299W        W32579  16.037  10.159  12.703  0.1117  0.1725  0.0446
12300W        W32580   4.394   2.665  12.600  0.1256 -0.1668 -0.0207
12301W        W32581   8.206  12.171   0.277  0.4167 -0.1431 -0.0262
12302W        W32582  12.231   0.597  10.783 -0.1308  0.0409  0.2814
12303W        W32583  13.330  12.955  11.840 -0.3139 -0.2551  0.0942
12304W        W32584   3.287  18.093   0.242 -0.1548 -0.1201  0.0792
12305W        W32585   8.711   8.106   3.067 -0.3270 -0.0534  0.0398
12306W        W32586  11.922   4.873  11.816  0.0100 -0.0228 -0.1886
12307W        W32587  19.481   4.418   2.519  0.2099 -0.2623 -0.2223
12308W        W32588  16.481  10.731   9.946  0.1886 -0.1310  0.2168
12309W        W32589  16.236   5.079   3.631 -0.1044  0.1892 -0.0473
12310W        W32590   7.403  10.826   2.791  0.3744  0.0110  0.0612
12311W        W32591   0.257  15.885   3.443  0.0869  0.0760 -0.1381
12312W        W32592  18.694  15.600  12.287  0.0567 -0.1797 -0.0757
12313W        W32593   6.254   3.388  12.581  0.0461 -0.0142  0.1729
12314W        W32594  12.802   9.502   0.990 -0.1808 -0.0203 -0.1770
12315W        W32595   5.685  16.966   3.750  0.0658 -0.0655  0.2317
12316W        W32596  13.707   9.765  12.995 -0.0884  0.0307  0.0189
12317W        W32597  10.727  15.433   2.968  0.0224  0.1041 -0.0016
12318W        W32598  12.294  18.636   3.094  0.2124 -0.0893 -0.1616
12319W        W32599  14.019  12.262  10.580 -0.2333 -0.1457  0.0868
12320W        W32600  12.788  14.571  11.595 -0.1077  0.1163  0.2020
12321W        W32601   4.299  17.974   0.545 -0.4065  0.0072 -0.0766
12322W        W32602   1.159   8.588   0.759  0.0069 -0.0395 -0.1371
12323W        W32603   4.133   6.444   1.855 -0.0986  0.3770 -0.0293
12324W        W32604   8.572  16.446  12.999  0.0568 -0.1493 -0.0177
12325W        W32605   1.898   3.395   2.936  0.0518 -0.0677 -0.4657
12326W        W32606   2.589   2.435   9.370 -0.0111  0.1607  0.1360
12327W        W32607   5.841   0.767  10.818  0.2989 -0.2997  0.1699
12328W        W32608   7.435  19.888   1.276 -0.1081 -0.4003  0.3033
12329W        W32609  16.755  17.446   2.990  0.1352 -0.1467  0.1503
12330W        W32610  17.975   7.143   0.648  0.2646  0.2271 -0.3907
12331W        W32611   6.958   5.149   4.649 -0.0452 -0.3572 -0.1534
12332W        W32612   7.139   7.706   3.743 -0.1284  0.0273 -0.0170
12333W        W32613  18.889   9.195   1.201 -0.0333  0.1258  0.2916
12334W        W32614  16.686   1.997   0.496  0.0445 -0.3201  0.1255
12335W        W32615  14.587  16.825  10.571  0.0659  0.0233 -0.0003
12336W        W32616   7.850  13.959  12.939  0.4706  0.1221 -0.1450
12337W        W32617  18.568   4.139  10.183  0.2305  0.1615  0.0821
12338W        W32618  10.552  16.485  11.709  0.0999 -0.0482  0.4092
12339W        W32619   9.912  16.044  12.830  0.2003 -0.0461  0.0172
12340W        W32620  13.833   0.062   1.039 -0.0704  0.2618 -0.0517
12341W        W32621  19.345  17.826   1.966  0.0183  0.0150  0.1119
12342W        W32622   3.179   2.217   3.081 -0.0681 -0.2370 -0.0000
12343W        W32623   3.948  11.439  13.561  0.1171 -0.0720  0.1721
12344W        W32624   6.713  17.993  11.377 -0.0407 -0.1800 -0.0996
12345W        W32625   6.916   8.675  12.151 -0.1735 -0.2064  0.2430
12346W        W32626  14.732   1.930  10.639  0.1344  0.1258  0.1405
12347W        W32627   1.431   1.194   3.491  0.0126 -0.1567  0.1958
12348W        W32628   0.808  11.717   0.314 -0.0693 -0.0963  0.1499
12349W        W32629  11.775   2.274   4.002  0.4463  0.0654 -0.2057
12350W        W32630  17.299   2.478   2.511  0.3734  0.1426 -0.2723
12351W        W32631  15.327  15.013   0.471  0.0375 -0.1580 -0.2553
12352W        W32632   8.860  17.716   3.797  0.0093 -0.1396  0.0291
12353W        W32633   9.578  19.145   9.785  0.0122 -0.0518 -0.0660
12354W        W32634   8.306   8.641   1.711  0.3691  0.1847  0.1478
12355W        W32635  10.538  19.054   3.201 -0.0748 -0.1321 -0.0026
12356W        W32636  16.306   1.897   4.795  0.1273 -0.2111  0.0894
12357W        W32637   2.193   0.373  12.181 -0.0154  0.0309 -0.2219
12358W        W32638  10.849  19.763  10.942 -0.2659 -0.0031 -0.2439
12359W        W32639   8.079  14.626   0.274  0.1722 -0.2519  0.0260
12360W        W32640   0.750  10.054   2.112 -0.1302 -0.5706 -0.1880
12361W        W32641  10.212  15.209   2.445  0.1758  0.0005 -0.0839
12362W        W32642   8.003   4.289   2.478  0.0882  0.0377  0.0096
12363W        W32643   7.048   5.754   3.004 -0.1795 -0.0385  0.0660
12364W        W32644  10.688  17.706   3.954 -0.1191 -0.0459 -0.1851
12365W        W32645   5.060   1.448  12.402 -0.0730  0.0590 -0.1591
12366W        W32646   0.186  12.605   1.643 -0.0901 -0.5003  0.2473
12367W        W32647   3.027   8.618  13.241 -0.0331  0.1692  0.1005
12368W        W32648  12.825  12.887  11.910 -0.0685  0.1030 -0.2609
12369W        W32649  16.289   6.343  10.579  0.0788  0.0893 -0.0306
12370W        W32650  16.813   1.659  13.068  0.2859 -0.2485  0.1495
12371W        W32651  14.153  13.733   4.228  0.1662 -0.0401 -0.2910
12372W        W32652  15.888  14.712  13.596  0.0829  0.1967  0.1020
12373W        W32653  18.190   7.630   3.298 -0.0909 -0.1011  0.0735
12374W        W32654  18.944   8.422   4.156  0.1765 -0.1871  0.1415
12375W        W32655   9.627   2.107   2.455 -0.1903  0.0541  0.4836
12376W        W32656   7.020   8.074   3.412 -0.2876  0.1216 -0.1489
12377W        W32657   4.303  10.727   4.153 -0.1730 -0.0159  0.0964
12378W        W32658  19.867   8.602  12.405  0.0953  0.0022  0.2772
12379W        W32659  19.524  14.237   2.795  0.0016 -0.0034  0.5255
12380W        W32660   7.387  15.110   2.542  0.1208  0.1457  0.2753
12381W        W32661  13.987   7.529   2.112 -0.2445  0.0411  0.0015
12382W        W32662   1.770   7.505   2.491  0.1670  0.0469  0.1964
12383W        W32663  14.540   0.929   1.589  0.1467  0.0779  0.0615
12384W        W32664   0.543   1.268   0.191 -0.2517  0.0672  0.1345
12385W        W32665   7.612   3.058   3.775 -0.2827 -0.1503  0.0730
12386W        W32666  12.956  19.763  11.162 -0.1177  0.1938  0.0149
12387W        W32667  18.715  17.269   1.878 -0.1830  0.1619 -0.1026
12388W        W32668   2.878  12.501   4.131 -0.4484 -0.0473 -0.0474
12389W        W32669   5.006  11.003   1.233  0.3587  0.0226 -0.0112
12390W        W32670  10.003  17.020   9.370  0.0699 -0.3067  0.1301
12391W        W32671   0.278   8.264   0.941 -0.0263 -0.1574  0.2132
12392W        W32672  13.357   0.053  10.640 -0.2214  0.1982  0.2242
12393W        W32673  14.312   3.617   1.934  0.3595  0.1770  0.1960
12394W        W32674   6.198   9.726   0.193  0.0623 -0.3544  0.1881
12395W        W32675   8.614  16.072   0.215 -0.3571  0.2192 -0.0130
12396W        W32676  11.370  15.493   0.308  0.1683 -0.0189  0.3126
12397W        W32677   9.252  12.082  10.819 -0.3218 -0.1161 -0.2111
12398W        W32678   3.702  10.050  11.729 -0.4178 -0.1236  0.2136
12399W        W32679  10.308  10.683  13.156  0.1627 -0.1909 -0.3252
12400W        W32680   0.520   5.494   9.472 -0.1872 -0.1406  0.0563
12401W        W32681   1.338   3.047  12.401 -0.0689  0.1831 -0.1878
12402W        W32682   2.405   2.536  13.542 -0.3927  0.1109  0.0545
12403W        W32683  17.975  12.797   2.228 -0.0993 -0.1329 -0.0176
12404W        W32684  11.881   4.852   2.080 -0.1800 -0.1300  0.3969
12405W        W32685  19.734   1.771  12.903  0.3015 -0.0863  0.0858
12406W        W32686  15.840   4.717  10.510  0.1149  0.2148 -0.1760
12407W        W32687   4.914   3.163  12.077  0.0879 -0.0769 -0.0519
12408W        W32688  10.377  16.685   0.065 -0.2128  0.0209  0.3922
12409W        W32689   1.973   2.894   4.166  0.1902 -0.0254  0.0845
12410W        W32690   1.593   1.709  12.734  0.1727  0.1383  0.1609
12411W        W32691   8.399  18.698   3.684 -0.4776  0.3170  0.0930
12412W        W32692  11.289  10.528  12.397 -0.2602  0.7315  0.0825
12413W        W32693   4.200   4.418   3.802  0.1159 -0.1328 -0.0806
12414W        W32694   8.706  15.297   1.765  0.0500 -0.0735  0.1377
12415W        W32695  10.310   4.678  13.684  0.1769 -0.1354 -0.0317
12416W        W32696  13.777  17.271  10.233 -0.1133  0.2109 -0.0419
12417W        W32697   1.034  15.912  12.781 -0.2254 -0.3477  0.3864
12418W        W32698   8.778   9.793   1.793 -0.0829  0.3144  0.2356
12419W        W32699  13.214  15.292   3.335 -0.2282 -0.0580 -0.2922
12420W        W32700   6.286   6.152   2.306  0.0251  0.2297  0.0334
12421W        W32701   0.506  13.484  12.358  0.0762 -0.0258 -0.0809
12422W        W32702   6.577  19.308  11.839  0.1340 -0.2230  0.1432
12423W        W32703   6.042  15.524   4.005 -0.1019  0.0903 -0.3794
12424W        W32704   9.087  18.860  11.464  0.0754  0.4786  0.0341
12425W        W32705   2.252  13.406  13.273 -0.4111  0.0066  0.2103
12426W        W32706   0.130   2.862  13.318  0.1111  0.0009  0.1020
12427W        W32707  13.626  12.217  11.308 -0.2788 -0.0118 -0.3810
12428W        W32708   7.050  10.840   9.551 -0.1117 -0.1204  0.2172
12429W        W32709   1.593   8.074  13.420 -0.2219 -0.0407  0.0438
12430W        W32710   4.866  18.420   2.368 -0.1445  0.3214  0.1750
12431W        W32711  14.970   6.236  13.636 -0.0461 -0.0903 -0.0813
12432W        W32712   2.669   5.923   0.417  0.2650  0.1166 -0.2250
12433W        W32713  17.111   1.428   3.630 -0.0295  0.3307 -0.2061
12434W        W32714   9.296  10.515   0.312  0.0222 -0.2622  0.1911
12435W        W32715   4.218   9.384   0.486  0.2604 -0.0461  0.0778
12436W        W32716  17.555   3.720   1.971 -0.2167 -0.0288  0.1159
12437W        W32717   8.276  13.081   4.287 -0.2041  0.0524 -0.1541
12438W        W32718   7.079  12.130   2.852 -0.0525  0.1329  0.0978
12439W        W32719  12.571  11.835  11.618 -0.0299 -0.0364  0.0418
12440W        W32720  15.117   2.291   0.549 -0.0284  0.0670  0.1516
12441W        W32721   1.885   9.609  11.517 -0.0795  0.4145  0.2728
12442W        W32722   7.028   9.688  10.798 -0.0261 -0.1256 -0.0772
12443W        W32723  11.632   5.490  10.558  0.2595  0.0719  0.0616
12444W        W32724   0.442   8.502  12.918 -0.2026 -0.4240 -0.1180
12445W        W32725   4.188  16.469   4.024  0.3077  0.1214  0.0874
12446W        W32726  12.848  16.926   4.081 -0.2943  0.2163 -0.0484
12447W        W32727  12.903   3.262  12.179 -0.0569  0.0703  0.1198
12448W        W32728   1.191   3.965  11.973 -0.1443 -0.1983  0.0814
12449W        W32729   3.664   2.617  12.362 -0.3644 -0.0043  0.1684
12450W        W32730   3.903   1.408   4.012  0.4049 -0.0487 -0.2148
12451W        W32731   9.147  17.251   0.804 -0.2482 -0.0355 -0.0171
12452W        W32732   9.736   4.231  12.071  0.1131  0.2353  0.1329
12453W        W32733  18.799  14.348  13.049 -0.1284  0.1892  0.0015
12454W        W32734   6.794  16.710  10.700  0.3456 -0.2320  0.0463
12455W        W32735   4.464  13.518  11.614 -0.4508  0.2192  0.0790
12456W        W32736   6.587  15.953   2.782  0.1399  0.0179  0.1798
12457W        W32737   6.191  12.638  11.782 -0.5576 -0.1410  0.0043
12458W        W32738   1.839   0.184   2.358 -0.3910  0.0637 -0.0461
12459W        W32739  19.514  14.399  13.761  0.0027  0.0542 -0.0077
12460W        W32740  16.852  15.387  10.629 -0.0392 -0.1490 -0.0273
12461W        W32741  18.063  16.667  10.294  0.0558  0.4564 -0.1822
12462W        W32742  12.268  10.345   3.325 -0.1355  0.2305  0.0093
12463W        W32743   0.642  11.361  12.808  0.1607  0.1750 -0.0208
12464W        W32744   0.394  15.157  10.816 -0.1442  0.0296  0.1071
12465W        W32745   7.726   4.533  12.961  0.0462  0.3882 -0.0691
12466W        W32746  10.128  19.162   3.600 -0.5299 -0.2153 -0.1181
12467W        W32747  19.536   5.617   0.115 -0.2720  0.0507 -0.0684
12468W        W32748  19.316   0.153   0.199  0.1284  0.2287  0.2346
12469W        W32749  17.666   3.218   3.014 -0.0098  0.1428 -0.0798
12470W        W32750   2.808  11.689   2.596  0.1119  0.1094 -0.1713
12471W        W32751   3.055  16.698  12.673  0.3741  0.0685  0.0854
12472W        W32752  17.522   6.141   2.308 -0.1581 -0.1213  0.1047
12473W        W32753   6.889   3.112  11.267 -0.2382 -0.0515 -0.0263
12474W        W32754   5.985   5.007  11.332  0.3224 -0.1066 -0.0934
12475W        W32755  10.775  12.746  12.264  0.1867  0.2684 -0.1752
12476W        W32756   2.104  15.595   0.055  0.0281 -0.2008 -0.0459
12477W        W32757  10.190   3.573   4.069 -0.0832  0.0922 -0.1880
12478W        W32758  19.584  11.502   0.699  0.1576  0.0750 -0.0591
12479W        W32759  10.732  19.898  10.470 -0.0345 -0.0333  0.1963
12480W        W32760  12.757  15.287   0.664  0.2133  0.0813  0.1381
12481W        W32761   1.025   1.526  12.857 -0.0633 -0.1514  0.0597
12482W        W32762  12.002  18.478   0.097  0.1604  0.1273  0.0338
12483W        W32763  16.267  13.567   0.818  0.0469  0.2303  0.0055
12484W        W32764   0.349   2.574  10.279 -0.2522  0.3010 -0.1921
12485W        W32765   5.049   5.125  11.079  0.2679  0.2942 -0.1383
12486W        W32766   8.295  11.127  12.189 -0.1955  0.0018  0.0144
12487W        W32767   7.673  17.282   3.548 -0.1013 -0.0085 -0.3465
12488W        W32768   6.103   4.411   2.735  0.1669 -0.0805  0.0034
12489W        W32769  17.859  10.154   9.900  0.0169 -0.3614 -0.0183
12490W        W32770   5.778   6.499   3.599  0.2791  0.5122  0.0866
12491W        W32771  13.226   9.474  11.280 -0.2859 -0.2885 -0.1809
12492W        W32772   8.561  18.909  12.444 -0.1064  0.2718  0.0332
12493W        W32773  15.317   2.165   3.380  0.4733  0.1073 -0.0433
12494W        W32774   1.450  18.896  10.480 -0.4248  0.0964 -0.0261
12495W        W32775   1.762  10.253  12.245  0.0297  0.0719  0.1430
12496W        W32776  12.297  14.946  13.270 -0.1513 -0.3725 -0.0836
12497W        W32777  12.160  15.510  12.236 -0.1383 -0.1453 -0.4187
12498W        W32778   4.223   7.198   0.817 -0.1435 -0.0895 -0.0683
12499W        W32779  13.461   7.058  10.902 -0.1609  0.0288  0.0962
12500W        W32780   0.121   3.410  13.435  0.3597  0.1458 -0.0682
12501W        W32781  14.803   0.055   3.443  0.1865 -0.2564  0.0828
12502W        W32782   0.908  13.643   8.531  0.3578  0.3095  0.1282
12503W        W32783  10.284   3.986   1.281 -0.1541 -0.0059  0.2325
12504W        W32784   0.715  10.188   9.635  0.1285  0.0254  0.1383
12505W        W32785   9.196  15.715  11.985  0.3376  0.2603  0.0053
12506W        W32786   1.965  10.954  10.494 -0.1226 -0.2436  0.1319
12507W        W32787   5.044   3.860  12.475 -0.0464  0.1798 -0.0454
12508W        W32788  18.422   7.681  12.101  0.0669  0.2419  0.1507
12509W        W32789  19.396  10.464  11.535 -0.0902  0.0107 -0.1317
12510W        W32790  13.764   1.721  13.789 -0.1472  0.2180  0.0423
12511W        W32791  19.949   5.105  11.744  0.2885  0.2098 -0.0379
12512W        W32792   1.598  13.076   2.727  0.0623  0.0743  0.0036
12513W        W32793   3.851   8.804  13.355  0.3701 -0.2406  0.0573
12514W        W32794  17.458  19.581   1.050 -0.1559 -0.0041  0.2753
12515W        W32795  14.323  17.975  12.272  0.1387  0.1766  0.0266
12516W        W32796  15.253   0.977   1.716 -0.0941 -0.4008 -0.1592
12517W        W32797   1.519  14.650  11.511 -0.2314 -0.0036 -0.1210
12518W        W32798   9.285  16.183  12.315 -0.0134 -0.0806 -0.0456
12519W        W32799  15.800   7.176   1.135  0.0181 -0.1359  0.1456
12520W        W32800  16.883   2.849  10.806 -0.1336  0.0683  0.3584
12521W        W32801   9.828  18.560  12.412  0.0770  0.0341 -0.1697
12522W        W32802  16.955   2.638   4.583 -0.0770 -0.1104 -0.0681
12523W        W32803  18.850  19.270   4.437 -0.0887 -0.1911  0.0730
12524W        W32804  18.955   7.481   2.255  0.3445 -0.0393 -0.1294
12525W        W32805   5.321  11.557   9.853  0.0737 -0.0443 -0.2413
12526W        W32806  15.769   8.157  11.632  0.1796 -0.3852  0.3255
12527W        W32807  13.656   9.538   2.458  0.0392 -0.0831  0.2732
12528W        W32808  11.117  12.127  10.393  0.0373  0.1786 -0.3037
12529W        W32809  11.031   7.663  11.150 -0.1178 -0.1410 -0.2332
12530W        W32810   8.471  13.736  12.176  0.1540 -0.1276  0.3198
12531W        W32811   8.389   3.566   3.884  0.0667  0.1131 -0.2153
12532W        W32812   5.868   4.623   2.268 -0.3278  0.1580  0.0423
12533W        W32813   5.488   5.820   4.435  0.0607 -0.0797  0.0915
12534W        W32814   1.794   8.210  11.850 -0.3617  0.1459  0.0241
12535W        W32815   2.363   5.666   0.829 -0.3016  0.1953 -0.0131
12536W        W32816   9.405  14.327   2.820 -0.0224 -0.1114  0.1582
12537W        W32817   6.679  16.546   0.430 -0.0543  0.1034  0.2612
12538W        W32818   7.435   5.013  11.288 -0.0166  0.0859 -0.1348
12539W        W32819   6.932   6.892   4.035 -0.2758 -0.2165  0.0753
12540W        W32820  16.782  11.015   1.872 -0.2974 -0.1302 -0.1067
12541W        W32821   7.970  11.445   1.912  0.1349 -0.0395  0.0959
12542W        W32822  18.411   5.671  13.382  0.2762 -0.1340 -0.0173
12543W        W32823  18.862   4.786  12.348 -0.1791 -0.1808 -0.4983
12544W        W32824   3.805   0.517  13.295  0.2797 -0.1721 -0.0328
12545W        W32825  14.606   3.532  11.251  0.2255  0.0886 -0.4300
12546W        W32826   0.518  15.123   4.224 -0.1183  0.0038 -0.0924
12547W        W32827   1.443  12.261  11.435  0.0722 -0.0602 -0.0298
12548W        W32828   3.191  10.567   1.235  0.1454 -0.2774  0.0608
12549W        W32829  18.694   5.291   4.453  0.1852 -0.1502  0.1484
12550W        W32830  12.385   3.937  12.244 -0.0531 -0.1370  0.1095
12551W        W32831   5.495  19.149  12.942 -0.2137  0.0585  0.0756
12552W        W32832  12.440   8.139  13.597  0.1474 -0.1693  0.1804
12553W        W32833  11.341  17.099   0.440 -0.0056 -0.0615  0.1313
12554W        W32834  14.068   1.530   0.976  0.4119  0.0819 -0.2286
12555W        W32835   9.090  19.658   2.389  0.0525  0.2636  0.1176
12556W        W32836  14.680  15.206   1.953 -0.4068 -0.1257 -0.2535
12557W        W32837   3.947  18.861   3.672  0.2542  0.1709 -0.2426
12558W        W32838  17.972   6.834   0.227 -0.0535 -0.0069  0.0236
12559W        W32839  14.048   5.766   2.689  0.2261  0.2301 -0.2004
12560W        W32840   8.932  17.490   3.367  0.2489  0.1670 -0.1060
12561W        W32841  16.146   4.839  11.148 -0.1011  0.0944  0.0198
12562W        W32842   2.018  12.064  13.257 -0.0270  0.0046  0.0200
12563W        W32843  14.466   3.074   0.517  0.2237  0.1502 -0.1116
12564W        W32844  10.759   3.995   3.324  0.0166 -0.1192 -0.1486
12565W        W32845   2.171  12.309   0.358  0.0817 -0.0040  0.2316
12566W        W32846   1.598   7.527  10.235 -0.1355  0.0622 -0.1955
12567W        W32847   9.702   4.670  13.395  0.0003 -0.1421  0.0446
12568W        W32848   9.926  10.434  10.991 -0.1057 -0.0803  0.0889
12569W        W32849   0.040  14.415   3.206 -0.2226  0.1165 -0.2343
12570W        W32850   1.998   3.894   2.305  0.1279  0.0167 -0.0082
12571W        W32851   0.988   8.556   9.943  0.1446  0.2095 -0.0689
12572W        W32852   0.310  17.989  12.280 -0.0904 -0.1673  0.0220
12573W        W32853  10.744  18.110  11.895 -0.1696  0.0378 -0.0387
12574W        W32854   5.094   1.729   0.139  0.3617 -0.0977 -0.2489
12575W        W32855   9.728   3.478   1.648 -0.1130  0.2508  0.0786
12576W        W32856   1.436   8.485  12.780  0.0269 -0.2597 -0.0344
12577W        W32857   5.409  16.851  11.793 -0.0326 -0.0569 -0.2109
12578W        W32858  18.054   7.932   0.340  0.1659 -0.2151  0.0696
12579W        W32859   1.164  11.391   0.711 -0.2651  0.1774  0.1928
12580W        W32860  12.817   0.438  11.376  0.2923  0.0995 -0.1364
12581W        W32861   3.218   4.722   1.871  0.0170 -0.1460  0.1136
12582W        W32862  10.942   2.582   2.406  0.0409 -0.0979  0.0057
12583W        W32863   3.757  15.034  12.691  0.2355  0.3796  0.0885
12584W        W32864   5.369   9.686  11.353 -0.1265  0.1790  0.2716
12585W        W32865  14.351  10.479   3.358  0.2594 -0.1797  0.1112
12586W        W32866   7.954  16.296   2.176 -0.0649 -0.0079 -0.1639
12587W        W32867   7.010  17.984  10.898  0.3859  0.0773 -0.0479
12588W        W32868  14.502   4.952   2.893  0.0403 -0.1134 -0.2015
12589W        W32869  18.722  19.642  11.394  0.0086  0.0638 -0.0039
12590W        W32870  19.795  11.212  11.762 -0.0685  0.0688  0.0335
12591W        W32871  13.268  16.972   0.746  0.0058 -0.1108 -0.1725
12592W        W32872  12.099  15.642   2.762 -0.0123 -0.1028  0.5153
12593W        W32873  15.864  15.400   1.395 -0.0631 -0.1945 -0.2020
12594W        W32874  10.795  14.632  13.567  0.2656  0.2695 -0.0967
12595W        W32875   7.875  19.866  11.824  0.1552 -0.0128 -0.1976
12596W        W32876   5.475  13.006  13.596  0.3786 -0.3233  0.2352
12597W        W32877  10.266   1.002   2.187 -0.1329  0.0285  0.1336
12598W        W32878   8.633   0.445  10.643  0.0071 -0.3415  0.0932
12599W        W32879  10.036  11.757   3.075  0.0097  0.2401  0.0889
12600W        W32880   8.611   7.970  11.203  0.1350  0.0652  0.0500
12601W        W32881   9.707   1.853   0.379  0.1451  0.0465 -0.1669
12602W        W32882   3.252   4.505   1.029  0.0018  0.0095  0.1279
12603W        W32883   6.483   7.873  11.997  0.0463 -0.0171  0.0237
12604W        W32884   3.968  19.460   3.805  0.1523 -0.1341 -0.4033
12605W        W32885  18.219   3.272  11.376 -0.0014 -0.1887 -0.0530
12606W        W32886  11.546  12.541  13.515 -0.0467 -0.2610  0.2042
12607W        W32887   1.337  12.641   2.909  0.0180  0.2261  0.0694
12608W        W32888  17.717  13.124  10.139  0.0187 -0.3280  0.1606
12609W        W32889  17.014   0.151   1.594 -0.0975  0.1454 -0.0957
12610W        W32890  11.223  12.029   2.179 -0.0607  0.0880  0.1758
12611W        W32891   0.923  16.809  10.569 -0.0944 -0.3164  0.2150
12612W        W32892  15.866   2.681  12.942  0.0793 -0.0466  0.0279
12613W        W32893  12.411  15.537   1.478  0.0856 -0.2337 -0.2996
12614W        W32894  10.512   0.427   3.144  0.1748  0.2424  0.0053
12615W        W32895  14.903   6.844  13.473  0.3654  0.2364  0.0520
12616W        W32896   3.930  18.684   0.202  0.0953 -0.0040 -0.0679
12617W        W32897  16.886   3.572   1.338 -0.2781 -0.0740 -0.0103
12618W        W32898  12.241  12.412   1.869  0.1917 -0.1650 -0.0624
12619W        W32899   8.713  12.029   0.200 -0.0909 -0.0154  0.0206
12620W        W32900   4.282   1.171   9.758  0.4500 -0.2862  0.1031
12621W        W32901   2.832  10.295  11.545 -0.2104 -0.3496 -0.1173
12622W        W32902  10.311  18.957   1.480 -0.2013  0.0682 -0.0040
12623W        W32903   1.211  19.742  13.547 -0.1163 -0.1036  0.1103
12624W        W32904  17.447   2.816   1.627  0.0248 -0.2696 -0.3127
12625W        W32905   1.824   1.823  10.297 -0.0714  0.1257  0.1497
12626W        W32906   8.261  11.136   0.636  0.0263  0.1272 -0.0683
12627W        W32907  10.716  10.632  10.244  0.0575  0.2575  0.0525
12628W        W32908  18.923   6.042  13.466 -0.1200  0.1971  0.0096
12629W        W32909   7.255   4.335   0.250 -0.1249  0.0200  0.3242
12630W        W32910  11.720   8.760   2.363 -0.0124 -0.3170  0.0091
12631W        W32911  16.803   9.161   1.815 -0.0648  0.0773 -0.2943
12632W        W32912  12.666  12.640  12.282  0.1020 -0.0131  0.1605
12633W        W32913   8.593   9.684   2.386  0.2670  0.2926  0.2789
12634W        W32914  15.606   4.723   2.155  0.2136 -0.1232  0.1527
12635W        W32915   5.509  17.914   1.947 -0.0259  0.2524 -0.1560
12636W        W32916  18.523  19.455   1.114  0.1986  0.0134 -0.0967
12637W        W32917   8.270   0.744  13.529 -0.2086 -0.0453 -0.0691
12638W        W32918   8.759   5.573   0.722  0.1157 -0.0003 -0.1042
12639W        W32919  19.451   1.568  13.330  0.0213 -0.0758 -0.1452
12640W        W32920   9.758   4.649  11.432 -0.2991  0.2309  0.4008
12641W        W32921   1.163   1.992   1.103  0.0675  0.1293  0.0771
12642W        W32922   7.200   5.141  13.577 -0.0012  0.1345  0.0266
12643W        W32923   1.106   6.349  13.290 -0.1341 -0.2023  0.2362
12644W        W32924   8.207  18.997  11.109 -0.1550  0.0231  0.1171
12645W        W32925  19.573  10.227   2.831  0.2015  0.2797 -0.2977
12646W        W32926  16.639  10.351  11.273  0.0855  0.2599  0.0375
12647W        W32927   8.693   3.245  13.477 -0.2319  0.1191 -0.0963
12648W        W32928  10.272  13.952   0.058 -0.0439 -0.0889 -0.0696
12649W        W32929  18.575   6.766   3.136  0.0310 -0.2129 -0.0502
12650W        W32930   5.062  10.515   1.121  0.0628  0.1551  0.0327
12651W        W32931   0.815  17.795   5.060 -0.0656  0.0658 -0.0019
12652W        W32932  19.110   2.834  10.209 -0.0735  0.2020  0.1070
12653W        W32933   0.126   7.841   3.724 -0.0568  0.1251 -0.2851
12654W        W32934   3.075   6.726  10.438 -0.2186 -0.2507  0.5663
12655W        W32935  17.513  18.808   1.778  0.1392  0.0037 -0.0794
12656W        W32936   1.834   5.060  11.642 -0.0543 -0.0279 -0.2692
12657W        W32937  16.738   5.437  13.134  0.1435  0.1810  0.0863
12658W        W32938  11.371  16.878  11.436 -0.0662  0.2294  0.0098
12659W        W32939  14.132   6.277  12.475  0.0419 -0.1242  0.2100
12660W        W32940   3.551  17.328   0.790  0.0318 -0.0988 -0.1141
12661W        W32941   3.756   2.270   5.264  0.1612  0.2781 -0.0302
12662W        W32942   9.734   8.231   2.040  0.0775  0.5528 -0.2123
12663W        W32943  13.365  18.840  13.173 -0.2027  0.1827  0.1233
12664W        W32944   9.232  14.398   2.270  0.2153  0.0706  0.3450
12665W        W32945  11.853  11.573  11.117 -0.1029 -0.0074  0.0329
12666W        W32946  10.502   4.778   2.081  0.1164 -0.1271 -0.0773
12667W        W32947  10.515  15.750  11.961 -0.0284  0.0982  0.2626
12668W        W32948   4.440  13.266   3.652  0.1649  0.2575  0.1239
12669W        W32949   4.235  17.515   4.853 -0.2596  0.2532  0.0275
12670W        W32950  19.284   7.003   2.534 -0.1913  0.3127  0.1863
12671W        W32951   8.264   7.908  13.085 -0.0228 -0.4233 -0.1335
12672W        W32952   5.223   7.075   2.766  0.0205  0.3614 -0.1276
12673W        W32953  17.349  18.097   8.642  0.3977  0.1250 -0.1815
12674W        W32954  15.308   7.799   2.751  0.0173  0.0085 -0.2041
12675W        W32955  13.771  10.786   1.956 -0.0966  0.1998 -0.1100
12676W        W32956  19.458  10.164   4.146 -0.0131 -0.2277  0.1302
12677W        W32957   5.546   9.331   3.959  0.1397  0.0061 -0.1540
12678W        W32958   3.505  19.272   3.949  0.0460  0.1169  0.0384
12679W        W32959  15.557   3.815   1.709 -0.0349  0.1371  0.0451
12680W        W32960  15.992  19.664  10.914 -0.2627 -0.0287  0.0839
12681W        W32961   3.201   7.481  10.824  0.1001 -0.0150 -0.1524
12682W        W32962   2.820  17.894   0.279 -0.0402 -0.0069 -0.2415
12683W        W32963  10.449  19.248  12.362  0.1549 -0.1825  0.2299
12684W        W32964  17.662   2.216  12.161 -0.1467  0.3295 -0.2594
12685W        W32965   1.680  19.393   3.348 -0.1837  0.3678  0.2374
12686W        W32966   7.086   5.113  13.010  0.1595 -0.0228 -0.2860
12687W        W32967  12.881   6.071   0.536 -0.1452  0.0570 -0.3332
12688W        W32968   2.442   3.402  11.349  0.1668 -0.2574 -0.0197
12689W        W32969  10.817   1.429   0.566 -0.0871  0.1182 -0.0091
12690W        W32970   9.305   4.608   1.735 -0.1584  0.0682  0.1183
12691W        W32971   5.134  12.681  11.954  0.0489  0.0961 -0.1757
12692W        W32972  14.594   0.971  13.671  0.2333  0.0924 -0.1571
12693W        W32973   2.936  16.690   2.474 -0.1963  0.3359 -0.0014
12694W        W32974  13.327   1.523   0.156  0.2220 -0.2663  0.0910
12695W        W32975   2.008   2.309  12.129 -0.0472 -0.0591  0.2409
12696W        W32976   8.686  10.861   3.445 -0.1781  0.0043 -0.0890
12697W        W32977   8.166   6.156   1.847 -0.3502  0.0792 -0.2124
12698W        W32978  15.671   8.887   2.955 -0.3025 -0.1703  0.1099
12699W        W32979  11.563   4.499   1.292  0.0602 -0.0990 -0.0957
12700W        W32980   8.577   9.100   4.219  0.1462 -0.1746 -0.0168
12701W        W32981  16.123   5.673  13.455  0.1001  0.0084 -0.0350
12702W        W32982   8.823  18.840  12.024 -0.0782 -0.0441 -0.1762
12703W        W32983  19.444  16.193  10.804  0.2203 -0.2491  0.2328
12704W        W32984   0.665  11.456   1.176 -0.0298 -0.2879  0.2506
12705W        W32985   9.457   8.904   3.666 -0.3694  0.0266  0.0216
12706W        W32986   9.454  19.278  10.445 -0.3734  0.0670 -0.1089
12707W        W32987   7.721   4.176   3.372  0.4707  0.0230  0.3318
12708W        W32988   1.645  18.334   4.970 -0.1047  0.0645 -0.0171
12709W        W32989  19.637   5.040   9.466 -0.0798  0.1027 -0.3606
12710W        W32990  11.663  16.855   2.164  0.2551  0.2423 -0.1196
12711W        W32991   5.462   8.307   2.611 -0.0309  0.0139 -0.1073
12712W        W32992  10.442   3.532   0.761 -0.1361  0.1506  0.3833
12713W        W32993   0.695  16.250  11.942 -0.1778  0.1071 -0.0013
12714W        W32994   3.380   1.086  12.046 -0.0849  0.2059  0.2990
12715W        W32995  10.576  12.508  13.182  0.0099  0.0319 -0.0943
12716W        W32996  16.319   6.480  10.021 -0.2942  0.1571  0.0170
12717W        W32997   8.710   4.796   2.585 -0.0639 -0.1376 -0.0871
12718W        W32998  10.236  16.078   0.745  0.0553  0.0824  0.1361
12719W        W32999  13.936  19.421   3.134 -0.0204 -0.3809 -0.1179
12720W        W33000   4.114   0.709   2.833 -0.2625 -0.0528  0.1830
12721W        W33001   6.186  19.493   4.734  0.1612  0.1713 -0.2344
12722W        W33002   8.092  16.781  12.867 -0.3196  0.0416  0.1288
12723W        W33003  12.229  13.912   2.972 -0.1072  0.3459 -0.1879
12724W        W33004  12.438   9.308  10.619  0.4023 -0.1388  0.1374
12725W        W33005  17.392  12.997  12.981 -0.1533  0.0232  0.0061
12726W        W33006  15.654   0.238   0.989 -0.0319  0.1142  0.1217
12727W        W33007  10.007   9.210  13.548 -0.2156 -0.1520 -0.3356
12728W        W33008  19.758   3.675   3.070  0.1060 -0.2414 -0.1595
12729W        W33009  12.826   0.716  12.190  0.1164  0.0136 -0.0061
12730W        W33010  10.112   4.453   3.836  0.2867 -0.0368 -0.0679
12731W        W33011  11.764  17.018  11.024 -0.1524  0.1466 -0.1504
12732W        W33012   8.337  10.301  10.611  0.2569  0.0636 -0.0359
12733W        W33013   9.897   4.830  10.894  0.0634 -0.0079 -0.0396
12734W        W33014   7.399  11.454   4.052 -0.2946  0.3169  0.0841
12735W        W33015   6.500  11.509  13.550 -0.1306 -0.3137  0.4867
12736W        W33016  16.886  19.338   2.985 -0.1159  0.1064  0.2411
12737W        W33017  17.573   7.074  13.810  0.2819 -0.1356 -0.0987
12738W        W33018  11.095  12.884  11.216  0.2129  0.3398 -0.0790
12739W        W33019   1.328  14.638  10.507 -0.2443  0.0204  0.0167
12740W        W33020   6.701   8.986  11.273  0.1510 -0.1835 -0.1943
12741W        W33021   2.107  14.825  11.185 -0.0666 -0.0069  0.0693
12742W        W33022   7.379  17.663  12.383  0.2223 -0.1911 -0.2826
12743W        W33023  16.228  10.317  10.080  0.1994  0.0610 -0.0643
12744W        W33024   0.172  17.253  13.514 -0.0988 -0.0305  0.0537
12745W        W33025  10.900   1.488   1.848 -0.2388 -0.0252 -0.0469
12746W        W33026   0.540   2.950  12.404  0.3470 -0.1914 -0.0216
12747W        W33027  19.120  18.633   1.803  0.1538  0.0796 -0.1080
12748W        W33028  13.071  17.573   0.624  0.1209  0.0637  0.0712
12749W        W33029  10.381  16.606   3.809 -0.2093  0.0037  0.3120
12750W        W33030  17.073  16.975   1.300  0.0142 -0.0471 -0.0664
12751W        W33031   9.947  15.491  10.542 -0.0016  0.2478 -0.3778
12752W        W33032  12.813   2.794   0.521  0.1141 -0.0209  0.1265
12753W        W33033  14.886   0.819   1.107 -0.0415 -0.1712  0.1189
12754W        W33034   1.432   3.249   0.629  0.1933 -0.0460  0.0855
12755W        W33035  10.659   7.182   1.638 -0.3090 -0.2989 -0.0669
12756W        W33036   7.155  12.271   2.284 -0.1551  0.3662 -0.1611
12757W        W33037  11.862  10.100   2.204 -0.0588  0.1337  0.0363
12758W        W33038   8.150   9.748   9.216 -0.2706 -0.3259 -0.3862
12759W        W33039   5.928   7.354   1.040  0.1415  0.0403 -0.2501
12760W        W33040   4.003   7.849   2.116  0.0161 -0.0508 -0.3952
12761W        W33041   7.745  10.324   4.138 -0.0988 -0.1309  0.0998
12762W        W33042  15.766   6.155  13.337  0.0002  0.3458  0.0308
12763W        W33043  17.904   9.287  13.697 -0.0564  0.2016  0.0598
12764W        W33044  10.587  11.463  13.445  0.5024  0.0902 -0.0789
12765W        W33045  14.035  15.321  13.245 -0.2076  0.1504 -0.2835
12766W        W33046   3.698   4.453   1.690 -0.1507 -0.1095 -0.2263
12767W        W33047   6.571  13.958  10.394 -0.0685 -0.0487 -0.0482
12768W        W33048   8.782   8.630  13.850 -0.1130 -0.1112 -0.2999
12769W        W33049   3.304   0.237   2.665 -0.1557  0.0107  0.2139
12770W        W33050  11.444   7.049   1.083 -0.0229 -0.0071  0.0145
12771W        W33051  19.450   8.262  11.458  0.0670 -0.0373 -0.2400
12772W        W33052  19.525   0.169   0.909 -0.0425  0.0786 -0.0853
12773W        W33053  10.066  10.570   4.427 -0.4789 -0.2109  0.0720
12774W        W33054   9.781  18.707   0.762 -0.2274 -0.1035 -0.2355
12775W        W33055   5.062  13.127  12.192  0.1277 -0.0064  0.2079
12776W        W33056  15.678   6.846   1.642 -0.0056 -0.3552  0.3690
12777W        W33057   1.156   3.535   1.182  0.0879  0.0410  0.0290
12778W        W33058   1.142   6.735  12.905  0.0590 -0.0418 -0.0200
12779W        W33059   1.124   0.360   4.550 -0.1555 -0.0727  0.1771
12780W        W33060  13.537   5.280   1.516 -0.2275 -0.0776 -0.4414
12781W        W33061   3.566  18.927  12.150  0.0041 -0.0970  0.1358
12782W        W33062   3.024   5.303   1.197 -0.4096 -0.0519  0.0661
12783W        W33063   7.308   7.388  11.517  0.3033  0.1294  0.4928
12784W        W33064   6.232  17.412  11.943  0.3672  0.0680 -0.1322
12785W        W33065  14.952   8.101  12.004  0.2364  0.3615  0.0919
12786W        W33066   2.121  14.251  11.972 -0.0211 -0.0212  0.0565
12787W        W33067  16.285   9.701  10.811 -0.2929 -0.1314 -0.3795
12788W        W33068   7.800   0.859  12.768  0.1234  0.0619 -0.0890
12789W        W33069   5.760   5.148  10.357 -0.2335 -0.1317 -0.2045
12790W        W33070  10.307  12.644   0.177  0.2321  0.0845 -0.3306
12791W        W33071   0.301  15.013   2.393  0.5173 -0.2157  0.1073
12792W        W33072   1.457   2.595  13.262 -0.0226 -0.0106  0.1841
12793W        W33073   0.956  13.677  10.999 -0.0047 -0.0270  0.0606
12794W        W33074  16.657  19.926  13.573 -0.1924 -0.3007  0.2246
12795W        W33075   4.535   6.220  13.629 -0.1595  0.2034  0.0200
12796W        W33076  10.678  13.802   9.500 -0.1769  0.3292 -0.0156
12797W        W33077   7.054   1.643  13.678  0.1419  0.0909  0.2382
12798W        W33078  17.375   5.575   1.095  0.2817 -0.0605  0.1508
12799W        W33079  15.189  12.926   2.570  0.1071  0.0414 -0.0111
12800W        W33080  10.328  10.057  10.965  0.1851  0.0578  0.3217
12801W        W33081  11.905   1.745   9.674 -0.3506 -0.2901 -0.2156
12802W        W33082   0.969   4.253  10.418  0.0339 -0.0542 -0.0402
12803W        W33083  14.018   7.100  10.856  0.0273 -0.0339  0.0121
12804W        W33084  18.909  18.739  13.143  0.1809  0.0504  0.1549
12805W        W33085   0.895  14.423   2.180 -0.0984  0.2423  0.3217
12806W        W33086  19.841  18.805   2.080 -0.0900  0.0572 -0.0186
12807W        W33087  17.768  14.366  12.303  0.0168 -0.2296 -0.0801
12808W        W33088  16.153   1.684  10.910  0.0663 -0.0036  0.2949
12809W        W33089   3.296   8.897   9.955 -0.3277 -0.2913  0.1129
12810W        W33090   6.668  11.800  11.674  0.0382 -0.0640  0.0839
12811W        W33091   0.214   0.142  11.188  0.1724 -0.1892 -0.1123
12812W        W33092  11.629  13.948  12.095  0.1064  0.2614  0.1069
12813W        W33093  14.678  10.251  11.581 -0.1247 -0.1819  0.1666
12814W        W33094  13.010   3.766   0.464  0.1540 -0.1568 -0.0832
12815W        W33095  12.292   6.615   3.715 -0.0587 -0.1886 -0.0280
12816W        W33096   8.381  16.855  12.104  0.0011  0.3810 -0.3871
12817W        W33097  12.709  12.180   2.429 -0.2439 -0.1691  0.0651
12818W        W33098   8.057   9.001  10.969  0.1468  0.2247 -0.2207
12819W        W33099   3.096  18.674  11.255 -0.0825  0.0814 -0.3978
12820W        W33100  16.711  17.418   1.970  0.4458 -0.0837 -0.1808
12821W        W33101   5.992   0.628   0.928  0.0666 -0.0853 -0.3329
12822W        W33102   5.337  19.742   1.158  0.1407  0.2985 -0.0574
12823W        W33103   5.292  13.975  13.183  0.1589  0.0089  0.0805
12824W        W33104   8.414  19.195  11.950  0.3516 -0.0158 -0.1075
12825W        W33105   7.323   9.053  13.817  0.3129  0.0655  0.0616
12826W        W33106  18.386   6.447  11.590  0.2029  0.2392  0.1889
12827W        W33107  15.337  10.480   0.438  0.0839 -0.0813  0.0382
12828W        W33108   0.701   8.947   0.235 -0.0749 -0.0728 -0.2391
12829W        W33109   0.984   7.079   0.974  0.2451 -0.2269 -0.1422
12830W        W33110   4.852   4.005   1.021 -0.1649 -0.2970  0.0403
12831W        W33111   2.741   5.467  11.787 -0.0603 -0.2329  0.2585
12832W        W33112   3.587  18.693   3.360  0.2384 -0.2167 -0.2961
12833W        W33113  19.243   5.393  10.202 -0.1472  0.1410  0.3184
12834W        W33114   9.084  15.598  11.005  0.3071  0.0262 -0.0822
12835W        W33115  14.059  14.284  12.220 -0.0062  0.0621  0.2531
12836W        W33116  12.282   7.279  12.376 -0.2626  0.0935 -0.2335
12837W        W33117   5.223  10.246   2.866  0.0426 -0.0448  0.0331
12838W        W33118   9.377  13.442  13.256  0.4677 -0.2596 -0.3181
12839W        W33119  12.549  11.239   1.120  0.1378 -0.4001 -0.2344
12840W        W33120   7.329   7.485  13.839 -0.0820  0.1511  0.2199
12841W        W33121  19.921   5.158   3.731  0.1220  0.2385  0.2426
12842W        W33122  13.149   0.402  12.005  0.2556 -0.0840  0.2650
12843W        W33123  11.346   9.120  13.456  0.0382 -0.3849  0.2186
12844W        W33124   8.307   5.154   4.622 -0.0463  0.1486  0.2319
12845W        W33125  14.944   3.112   3.367  0.0440  0.1912 -0.1526
12846W        W33126   5.185   1.239   1.897 -0.0453 -0.0417  0.1712
12847W        W33127  14.099   8.878   2.160 -0.0286  0.2352  0.1232
12848W        W33128  17.060  11.292   3.112  0.0662 -0.1054 -0.1327
12849W        W33129  17.082   4.535   1.016 -0.3029  0.1286  0.1228
12850W        W33130   0.200  14.032   1.040 -0.0090  0.0025 -0.1507
12851W        W33131   3.560  16.379  10.495 -0.1805 -0.2833  0.2565
12852W        W33132   3.916   9.869   1.216 -0.2191  0.1611 -0.1580
12853W        W33133  14.698  19.244  12.900 -0.1685 -0.3974  0.0957
12854W        W33134   5.422   7.631  12.293 -0.1566 -0.1708 -0.0053
12855W        W33135  12.576  12.867  11.084  0.0465 -0.0826  0.4114
12856W        W33136   5.045  10.824   0.676 -0.2324  0.0380 -0.3709
12857W        W33137  13.840   4.311  13.411  0.0549 -0.4032 -0.1078
12858W        W33138  15.614  10.091   0.126 -0.1052 -0.1893 -0.4656
12859W        W33139   7.003   5.644  12.938 -0.3512  0.0510 -0.2563
12860W        W33140  12.994   3.478   4.513 -0.1885  0.0392 -0.3372
12861W        W33141  10.972  18.128  13.391  0.2815 -0.1024  0.1073
12862W        W33142  11.605  18.992   2.815 -0.0497  0.2424  0.2836
12863W        W33143   4.950  11.014  13.130  0.1732 -0.2151 -0.1720
12864W        W33144   4.966  10.643  10.703 -0.1681 -0.0744  0.2235
12865W        W33145   5.726  16.159   2.597 -0.2366  0.0815 -0.0195
12866W        W33146   1.997  16.360   1.751  0.1189 -0.1085  0.0053
12867W        W33147  13.583   6.201  12.308  0.1946  0.1398  0.0683
12868W        W33148   0.527   4.394  10.675 -0.0902  0.1950 -0.0608
12869W        W33149   4.742   5.678  12.992  0.3728  0.3710 -0.2389
12870W        W33150  11.201  15.353   2.598  0.1825 -0.0242  0.2140
12871W        W33151   5.935   4.104   0.517  0.0600 -0.4200  0.3817
12872W        W33152   5.598  19.139  12.040  0.1271 -0.1416 -0.0073
12873W        W33153   8.636  10.579   2.895 -0.1488 -0.0806 -0.1401
12874W        W33154   6.849  15.403  10.199  0.2544  0.0037  0.1625
12875W        W33155  17.456   7.622  12.003  0.0935 -0.2441  0.1407
12876W        W33156  18.998   5.366   0.312 -0.0268  0.0456  0.3442
12877W        W33157   6.367  16.287   1.640  0.2096  0.0526 -0.0553
12878W        W33158   7.257  18.173   3.563  0.1422 -0.0706 -0.2362
12879W        W33159  16.450   4.004   3.748 -0.3594 -0.2041  0.0606
12880W        W33160   2.679   6.753   2.849 -0.0022  0.1228 -0.2170
12881W        W33161   3.293  17.799  11.735 -0.1871 -0.0471 -0.1909
12882W        W33162  14.001  16.956   2.630 -0.2007 -0.4455 -0.1460
12883W        W33163   2.639  19.160   0.713 -0.2052 -0.1814  0.1954
12884W        W33164  16.898  11.718  13.272 -0.0894 -0.2019 -0.0389
12885W        W33165   1.162  13.286  10.447 -0.0701 -0.0420 -0.3727
12886W        W33166  10.787   6.440   3.619 -0.1004 -0.1338  0.0128
12887W        W33167   7.029  10.094   3.827 -0.1286 -0.2947 -0.0610
12888W        W33168  10.054  15.105  13.186  0.0109 -0.2120  0.0397
12889W        W33169   9.490   6.600  13.494  0.3844 -0.1349  0.1413
12890W        W33170   2.308  18.285  10.689 -0.0326  0.2896 -0.1556
12891W        W33171  18.190   2.813  10.825  0.0675 -0.0397 -0.1484
12892W        W33172   7.522  12.204   0.982 -0.1126  0.0755  0.0753
12893W        W33173   3.946   5.116  10.419  0.0010 -0.2457  0.0943
12894W        W33174   3.478   1.842  12.998 -0.1334 -0.2423 -0.0391
12895W        W33175  10.853   5.880   2.878  0.1187 -0.2255 -0.0086
12896W        W33176  14.064   6.297   2.490  0.2518 -0.1737  0.0905
12897W        W33177   9.653   3.994   0.749 -0.0253 -0.2036  0.4083
12898W        W33178  14.866   6.013   1.245  0.4385  0.2322 -0.0018
12899W        W33179   4.130  11.947   2.916  0.2225 -0.1099  0.1766
12900W        W33180   3.750   3.892  12.862 -0.1970  0.0282 -0.2270
12901W        W33181  17.881  18.941   4.521  0.3889 -0.2854 -0.1675
12902W        W33182  14.557   3.387  13.680  0.0180  0.1101 -0.2936
12903W        W33183   4.385   9.073   3.352  0.2369  0.0937 -0.0591
12904W        W33184   0.126   9.874  11.797 -0.1133  0.0891  0.3124
12905W        W33185   9.813   5.278  11.145 -0.0070  0.1348 -0.1811
12906W        W33186  17.501  15.625   2.968 -0.0519 -0.3066  0.2999
12907W        W33187   1.822  17.688  12.157  0.0153  0.2028 -0.2030
12908W        W33188  18.841  13.910  13.279  0.0388 -0.2714 -0.1552
12909W        W33189  11.192  16.788   1.308 -0.0389  0.0105 -0.0815
12910W        W33190  13.365   7.045   2.223  0.1550 -0.1551 -0.0842
12911W        W33191   0.889   3.652   0.712  0.1104 -0.0174 -0.2064
12912W        W33192  10.594  12.031   3.180  0.2130  0.4169 -0.0942
12913W        W33193  18.583   2.247  11.877 -0.3987  0.2249 -0.2646
12914W        W33194   7.815  11.371   0.626 -0.0603 -0.6342  0.0093
12915W        W33195  17.574  16.252   2.584 -0.1166 -0.1018  0.2398
12916W        W33196  18.876   2.162   3.856  0.1259 -0.3248  0.1234
12917W        W33197   0.498  15.376   1.543  0.0919  0.2079  0.0505
12918W        W33198  13.852  18.571  12.138 -0.3756 -0.1821  0.0595
12919W        W33199  18.243   4.407   2.699  0.0671  0.1042  0.2378
12920W        W33200  19.138  18.676  10.962 -0.0746 -0.2270  0.0895
12921W        W33201  16.998   0.637  11.430 -0.1138  0.0248 -0.1563
12922W        W33202   7.078   4.120   2.813 -0.1850 -0.0238  0.0141
12923W        W33203   4.169  12.175  12.067  0.0016 -0.4191  0.2350
12924W        W33204  10.526   8.575  13.504  0.3268 -0.1351 -0.0349
12925W        W33205   6.375  11.891  12.275 -0.1373  0.1399 -0.0879
12926W        W33206  19.241  16.828   1.227  0.0288 -0.1428  0.1777
12927W        W33207   2.271   5.636  12.097 -0.0150  0.1223  0.0928
12928W        W33208  12.662  10.521  10.750  0.2307 -0.0839  0.1473
12929W        W33209  12.721  13.061   3.366  0.2499 -0.1094 -0.1480
12930W        W33210   7.993   4.814   0.479 -0.0935  0.2780  0.0756
12931W        W33211   5.397   0.178   2.887  0.0523  0.2864 -0.1844
12932W        W33212  13.494  12.467  10.862  0.0223 -0.0298  0.0300
12933W        W33213   9.952  13.399  12.435  0.1980 -0.0443  0.1448
12934W        W33214   3.798   8.377   2.949 -0.0532 -0.0937  0.1734
12935W        W33215  18.388  18.397   0.411  0.1771 -0.2823 -0.1665
12936W        W33216  10.803  10.321  10.970 -0.0581  0.3514 -0.0345
12937W        W33217   6.952  15.402  11.222 -0.2575  0.1546 -0.0403
12938W        W33218   5.011   2.056  10.554  0.2634  0.1230 -0.2117
12939W        W33219   8.661  17.158  11.335 -0.0367 -0.4215 -0.0463
12940W        W33220  17.694  16.563  11.327 -0.0309  0.1801  0.3964
12941W        W33221   7.299   1.966  11.155 -0.2813 -0.0473 -0.1788
12942W        W33222   3.673   6.796   4.406 -0.1806 -0.0878  0.0513
12943W        W33223   5.018   9.276   9.745  0.1521  0.1906 -0.0663
12944W        W33224   0.809  10.119   1.624  0.0625  0.0955 -0.0102
12945W        W33225   0.543   3.508  12.563  0.0325  0.1962  0.0786
12946W        W33226   2.451   1.482   2.984 -0.0111  0.1909 -0.1545
12947W        W33227  15.635  11.055   0.189 -0.3582  0.1832 -0.3994
12948W        W33228   7.209  10.861  13.134  0.2111  0.2419 -0.0190
12949W        W33229  12.336  12.291  11.605  0.1059 -0.2262  0.0312
12950W        W33230  19.189   2.873   1.616  0.2183 -0.2313 -0.0761
12951W        W33231  19.270  12.393  12.504  0.0151 -0.0737  0.1103
12952W        W33232  11.745   7.040   2.563 -0.1157 -0.0256 -0.3315
12953W        W33233   6.319  12.791  10.782 -0.1552 -0.1886 -0.1264
12954W        W33234   4.125   2.110   1.381 -0.3546  0.3082 -0.1532
12955W        W33235  14.916  17.062  12.605 -0.2025 -0.0756 -0.1225
12956W        W33236  10.899   9.195   0.020  0.1626  0.1948  0.3422
12957W        W33237  14.607   5.639   9.464 -0.0574  0.1372 -0.1771
12958W        W33238  12.367  13.843  12.748  0.2290  0.1846  0.0039
12959W        W33239   0.312  15.063  13.562  0.1432 -0.0428 -0.0837
12960W        W33240   7.648   6.452  11.679 -0.0068 -0.1270  0.2458
12961W        W33241   7.199   5.654  12.001 -0.0221 -0.1459  0.0217
12962W        W33242  10.997  10.091  12.457  0.1449  0.1719 -0.2068
12963W        W33243  14.256  15.825   1.640 -0.1075 -0.0416  0.1907
12964W        W33244   6.765  14.782  13.440  0.1993  0.2529 -0.0660
12965W        W33245   2.997   9.529  10.819  0.3209  0.0619  0.3307
12966W        W33246  10.067   8.017   5.275 -0.2998 -0.1320 -0.0886
12967W        W33247   1.821  15.226   1.724 -0.1862 -0.0967 -0.2530
12968W        W33248  16.460  18.624  13.358  0.1325  0.0734  0.1274
12969W        W33249  18.900   0.821   3.668 -0.2193  0.1391  0.0627
12970W        W33250  14.646   1.087   8.657 -0.2429  0.1489 -0.2007
12971W        W33251  15.881   5.761   0.096 -0.1088 -0.1448  0.2814
12972W        W33252   5.423  16.699  10.437 -0.1243  0.1968  0.1209
12973W        W33253  17.723  11.629  11.045  0.1435 -0.1099 -0.1668
12974W        W33254   7.630  19.660   2.304 -0.0986 -0.1146 -0.0989
12975W        W33255   7.005   8.102   2.913  0.0349 -0.1653  0.1020
12976W        W33256  19.538   8.812   1.321  0.0752 -0.2705  0.0398
12977W        W33257   1.492  17.723   0.549 -0.0866  0.0807 -0.2276
12978W        W33258   3.933   2.537   1.266  0.0161  0.1211  0.3047
12979W        W33259  15.998  15.699   1.753 -0.1021 -0.1026 -0.2441
12980W        W33260   2.746  16.897  11.404  0.0146 -0.2194 -0.0565
12981W        W33261  17.561   8.061  12.252 -0.0996 -0.0343  0.2018
12982W        W33262  16.585   6.583  11.013  0.3482  0.3043 -0.1894
12983W        W33263  15.757  19.089  12.772  0.2676  0.4405  0.0414
12984W        W33264  15.917   6.409   2.965 -0.1199  0.1491 -0.1693
12985W        W33265  15.271   8.645  13.227 -0.0360  0.0932 -0.2219
12986W        W33266  15.300   0.768   0.767 -0.2904 -0.4036  0.2132
12987W        W33267  11.256   7.267   2.984 -0.0384  0.1521  0.2249
12988W        W33268  16.744  18.436  11.913  0.1185  0.1275 -0.2340
12989W        W33269  18.873   2.350  12.363  0.0812  0.3804 -0.0290
12990W        W33270   1.372   5.706  11.382  0.1048 -0.1047  0.0935
12991W        W33271  14.001  18.564  10.844 -0.0754 -0.2701  0.2255
12992W        W33272  19.899  12.948   2.570  0.1903 -0.2309 -0.0162
12993W        W33273  11.780   7.491  10.606 -0.0775  0.0658  0.1835
12994W        W33274  11.410   0.268  12.635  0.0626 -0.4165 -0.2112
12995W        W33275  17.816   3.148  11.042 -0.3709 -0.3385  0.1826
12996W        W33276   5.168  11.191  12.571 -0.2115  0.0480  0.0819
12997W        W33277   5.368   7.392   0.982 -0.0791 -0.1531 -0.0946
12998W        W33278  14.370   5.795   0.770  0.2073 -0.0950 -0.3657
12999W        W33279   8.535  18.982   0.930  0.0807 -0.0587 -0.2371
13000W        W33280  13.633  12.618   1.835  0.2696  0.0861  0.1205
13001W        W33281  18.071  18.309  12.624  0.1219  0.1777 -0.4618
13002W        W33282   3.439   5.436  11.137 -0.0055 -0.0996 -0.3815
13003W        W33283   6.427  19.712   3.780  0.3497 -0.0813 -0.2016
13004W        W33284   6.147   4.118   3.253 -0.2219 -0.1513 -0.0668
13005W        W33285   5.948  14.876  12.226  0.1298  0.0285  0.5393
13006W        W33286  19.444   2.837  11.496  0.2207  0.3551 -0.1785
13007W        W33287  13.296  16.794   9.852 -0.2985 -0.2376 -0.1234
13008W        W33288   3.716  13.982  13.315 -0.1656  0.2148  0.0352
13009W        W33289   5.157  11.280   1.611 -0.1541  0.0410 -0.1548
13010W        W33290  11.351  18.186  12.575 -0.4208 -0.0056 -0.0346
13011W        W33291  12.018  18.353   2.342  0.1446 -0.0751 -0.0449
13012W        W33292   0.579   6.849   1.095 -0.0152  0.1703 -0.0574
13013W        W33293  10.635  16.358  11.034 -0.3224  0.0718  0.3933
13014W        W33294   6.707   4.328   0.670 -0.0482  0.0164  0.2205
13015W        W33295   2.406  12.525   3.592  0.2448  0.2036 -0.3674
13016W        W33296  18.142   9.828  12.963 -0.2015  0.0360  0.0029
13017W        W33297  11.344  18.896  11.326  0.1476  0.0256  0.0565
13018W        W33298  13.867  14.756  12.885 -0.1736 -0.1234  0.0245
13019W        W33299   2.993   2.727  12.788  0.1245 -0.3721  0.1236
13020W        W33300  17.228  15.736  10.397 -0.1152 -0.0438  0.2441
13021W        W33301   6.789   3.987   1.042  0.0240  0.1441  0.0410
13022W        W33302   1.880   7.237  10.560  0.1916  0.0364 -0.1592
13023W        W33303   0.803  17.572  13.800 -0.1227  0.2772 -0.1384
13024W        W33304   7.352   0.370  12.606  0.0959  0.0082 -0.1968
13025W        W33305   8.307   6.292   0.121 -0.3524  0.1072 -0.1233
13026W        W33306  19.468   1.906   3.091  0.0808  0.2293  0.1198
13027W        W33307  15.275   3.994   2.046  0.2200 -0.0906 -0.3498
13028W        W33308   9.523  13.274  13.687  0.0890  0.0257 -0.0575
13029W        W33309  17.063  10.853   2.278 -0.0600 -0.1115 -0.1294
13030W        W33310  19.924  14.261  12.290  0.1777 -0.0417 -0.1688
13031W        W33311  15.106  12.204   3.034 -0.0550  0.2894  0.1429
13032W        W33312  18.306   3.865   3.122 -0.0415  0.2068  0.0721
13033W        W33313  18.056  18.109  10.642 -0.2294 -0.0586  0.1605
13034W        W33314  12.432  14.295  11.404  0.0108  0.1154  0.3975
13035W        W33315   5.298  15.161   2.007  0.2381 -0.2699 -0.0512
13036W        W33316  11.124   4.523  12.366  0.2434  0.2471  0.0296
13037W        W33317   9.417  17.981   2.708 -0.3051 -0.2656  0.4079
13038W        W33318   8.233  13.560   4.291 -0.2976 -0.0829 -0.1113
13039W        W33319   3.946   1.206   3.567  0.0355 -0.0568  0.1967
13040W        W33320   3.035   7.411  13.207 -0.0823 -0.3105  0.1827
13041W        W33321  17.648   7.164  10.199  0.0697 -0.3172  0.1466
13042W        W33322  19.394  11.625  13.098  0.1089  0.2301 -0.0669
13043W        W33323   6.497   5.356   1.926 -0.3111 -0.0003 -0.0167
13044W        W33324   8.639   2.299   3.438  0.2587  0.0675 -0.1910
13045W        W33325  17.406  12.569  10.548  0.0623 -0.0333  0.0373
13046W        W33326  16.454  14.050   3.242  0.2659 -0.0019 -0.1382
13047W        W33327  11.144  14.519  11.499  0.1641  0.3931 -0.1384
13048W        W33328  15.675   2.071  12.595  0.0672 -0.1461 -0.0734
13049W        W33329   1.866   1.183  12.461  0.2140 -0.2828 -0.0619
13050W        W33330   2.019  16.364  10.363  0.0177 -0.2219 -0.0560
13051W        W33331   9.207   3.216   9.726  0.0004  0.1378  0.2868
13052W        W33332   8.131  17.596   2.830  0.2179 -0.3417  0.0255
13053W        W33333  12.669   0.821   0.164 -0.1326 -0.1303  0.0291
13054W        W33334  16.317  19.873  12.988 -0.2768 -0.1784 -0.2013
13055W        W33335   6.321   0.236   3.852  0.4793  0.2964  0.0869
13056W        W33336   5.993   4.020  12.937  0.1110 -0.2599 -0.1181
13057W        W33337  19.266  12.212   2.694  0.5521 -0.0314 -0.0461
13058W        W33338   7.028   3.579  11.493 -0.1037 -0.0349 -0.4362
13059W        W33339   0.791   5.918  13.303 -0.0953 -0.1667 -0.2227
13060W        W33340  11.512   8.959   0.830  0.0828  0.1515 -0.0960
13061W        W33341   0.027   2.839  10.595  0.2123 -0.1092 -0.0406
13062W        W33342   6.455  12.704   3.314 -0.3138  0.0596  0.3481
13063W        W33343  13.053   2.633   3.622  0.0250 -0.1254  0.1063
13064W        W33344   6.194   8.144   3.735  0.0020  0.1823  0.1599
13065W        W33345   6.809  14.493   2.052  0.1033  0.2409 -0.0557
13066W        W33346   9.942   2.836   0.872 -0.0223 -0.0221 -0.2758
13067W        W33347   0.614  17.699  13.331 -0.0027 -0.0535  0.1532
13068W        W33348  16.554  12.371  10.909 -0.1197 -0.2210 -0.0098
13069W        W33349   3.506  13.484   2.625  0.0146 -0.0266 -0.2481
13070W        W33350   1.820   0.577   2.624 -0.4345 -0.0305 -0.0290
13071W        W33351   6.230   0.657  11.872  0.1415  0.2709 -0.0989
13072W        W33352   2.224   8.245  10.357 -0.0750 -0.0989  0.1308
13073W        W33353   6.535   8.125  11.527  0.2852 -0.0397  0.1989
13074W        W33354  14.527  19.136   9.895 -0.0875  0.0832 -0.0948
13075W        W33355  13.438   1.730  10.604  0.3295  0.0240 -0.3115
13076W        W33356   1.744  10.943   3.778 -0.1699  0.1694 -0.0903
13077W        W33357   8.375   6.660   9.834  0.0869 -0.1280 -0.2323
13078W        W33358  15.654  13.780  12.735 -0.1597  0.1977  0.1304
13079W        W33359  10.182   3.805  11.227  0.2313  0.0457 -0.1465
13080W        W33360   3.274  10.081  11.457  0.2186 -0.0450 -0.0011
13081W        W33361  15.299  14.534   1.200  0.1331  0.0820 -0.1307
13082W        W33362  11.154  19.927   1.571  0.2020  0.0861 -0.0461
13083W        W33363  10.376   3.017  12.030 -0.1951  0.0622  0.1196
13084W        W33364   6.504  13.552  10.718 -0.1645  0.1128  0.0480
13085W        W33365   8.462  16.914  10.314  0.4099  0.0880 -0.2138
13086W        W33366  16.912  16.437   0.028 -0.2617  0.1477  0.1497
13087W        W33367  19.575   2.724   3.456  0.2630 -0.3378  0.0895
13088W        W33368   6.715   1.247  11.375 -0.0567 -0.5148 -0.0248
13089W        W33369   8.822  10.079  13.077  0.0727  0.0648  0.0252
13090W        W33370   3.324   4.543  13.219  0.0061 -0.0790  0.2829
13091W        W33371  12.866   1.712   0.122  0.4630  0.1900  0.3070
13092W        W33372  19.384   7.451   2.485 -0.2329  0.2769  0.4241
13093W        W33373   0.344   0.667  12.577 -0.2538 -0.0150 -0.1159
13094W        W33374   4.233  15.431   1.794  0.1161 -0.0593 -0.0354
13095W        W33375  12.100  15.875  13.310 -0.2061  0.0781  0.1089
13096W        W33376   8.783   2.990   0.072  0.1729 -0.0838 -0.1822
13097W        W33377   6.005  14.389   0.473  0.0414  0.0157 -0.2270
13098W        W33378  18.202   7.967   2.361  0.2018  0.3262  0.3651
13099W        W33379  19.763  19.127   0.225 -0.2700 -0.1134 -0.2838
13100W        W33380  19.924  11.322   3.494 -0.1613 -0.0203 -0.1349
13101W        W33381  16.585  16.849  13.786  0.0926  0.0019 -0.0047
13102W        W33382  19.718  14.992  10.052 -0.1988  0.1227 -0.1456
13103W        W33383   8.538  15.538   3.734 -0.3338 -0.0246 -0.2950
13104W        W33384   1.505   8.938   2.031  0.1035  0.1619  0.0617
13105W        W33385  10.325   0.845   2.962  0.1388 -0.2245  0.1842
13106W        W33386   3.123   4.108   0.745 -0.1585 -0.1287  0.1248
13107W        W33387  16.609  16.858  11.573 -0.0989 -0.0452  0.0226
13108W        W33388   3.629   0.035  13.538  0.0321 -0.1460  0.0838
13109W        W33389   0.373  17.403   0.135 -0.0365 -0.1220 -0.2736
13110W        W33390  15.771   9.440  10.252  0.1761 -0.0008  0.0199
13111W        W33391  19.105   6.681   2.172  0.0407 -0.1538  0.1888
13112W        W33392   7.467   0.515   0.195 -0.0261 -0.2322  0.0997
13113W        W33393   2.742  13.706   1.522 -0.4760 -0.1474  0.3607
13114W        W33394   2.418  16.866   2.578  0.0783  0.1233 -0.2321
13115W        W33395  16.404   3.267  11.654 -0.3144  0.1433  0.0526
13116W        W33396  13.715  18.428   4.741 -0.2637  0.0057  0.0249
13117W        W33397  19.771  13.754  12.270  0.3012 -0.1403  0.2901
13118W        W33398  13.662   5.061  10.596 -0.3080 -0.1840  0.1102
13119W        W33399  17.480  14.986   0.173  0.1624 -0.2605 -0.0766
13120W        W33400   2.889  19.034   9.496  0.1007 -0.1347 -0.0249
13121W        W33401   1.551   2.481   9.092 -0.1519  0.1318  0.0221
13122W        W33402  17.669  15.737   2.507 -0.1223  0.0435 -0.1012
13123W        W33403   7.687   6.035   2.137  0.2598  0.0792 -0.2805
13124W        W33404   8.653  18.545  11.671  0.1790  0.1077  0.2657
13125W        W33405  18.631   2.199   2.417  0.0461  0.1737 -0.0828
13126W        W33406  16.213  15.317  11.948  0.2088  0.2368  0.0261
13127W        W33407   5.643   2.898   2.886  0.1356 -0.3022  0.2822
13128W        W33408   1.602   0.415  12.852 -0.1743  0.1171  0.0443
13129W        W33409   4.048  15.849  12.713  0.3099  0.0275 -0.0861
13130W        W33410   9.964   0.443  10.713 -0.0402  0.0808  0.2910
13131W        W33411   6.242   9.277  11.464 -0.1026  0.0873  0.0717
13132W        W33412   5.268   4.751   4.391  0.0165 -0.0666 -0.0373
13133W        W33413  14.224  15.703  11.012  0.2562 -0.1659 -0.0500
13134W        W33414  16.160   6.758  11.422  0.0282  0.2680  0.2927
13135W        W33415   8.283   6.423  10.906  0.0807  0.3402  0.2454
13136W        W33416  15.210   8.228   3.490  0.2622  0.0755  0.0976
13137W        W33417   7.813   9.693   3.579  0.0715  0.1107 -0.0195
13138W        W33418   6.334  17.777   2.219  0.0253  0.2367  0.0117
13139W        W33419   5.118  15.312   0.222 -0.1440 -0.1814 -0.1953
13140W        W33420   1.964   3.477  13.247  0.1073  0.2209  0.2755
13141W        W33421  16.164   9.924  10.401 -0.2631  0.1168 -0.0355
13142W        W33422  18.943   0.119  12.448  0.1081 -0.0717  0.1920
13143W        W33423  15.124   4.118  13.422  0.2106  0.0029  0.1983
13144W        W33424   2.435  15.350  13.622  0.1344  0.2660  0.1113
13145W        W33425   6.542   1.740   0.493 -0.0340 -0.1767  0.1098
13146W        W33426   0.109   7.130   1.357 -0.1073  0.0654 -0.0549
13147W        W33427   8.294   2.733  10.925 -0.1134 -0.1491  0.1350
13148W        W33428   6.698  16.475   4.041 -0.4423  0.1436  0.1252
13149W        W33429  18.965   1.965  11.629  0.2949  0.1761 -0.2054
13150W        W33430   5.526   4.100  13.687 -0.1156 -0.0748  0.2085
13151W        W33431  12.367  18.262   1.986  0.0592 -0.4387  0.1309
13152W        W33432   8.743   7.604   3.211 -0.1195  0.2290 -0.0767
13153W        W33433   0.394  13.854   0.581 -0.0360 -0.0875  0.3633
13154W        W33434   0.920  18.214  10.991  0.0057  0.1413  0.0915
13155W        W33435  17.640   2.998   1.127 -0.1855  0.3035 -0.2879
13156W        W33436  16.161   7.319  13.511  0.0366 -0.1623 -0.0820
13157W        W33437   9.343  13.443   0.787  0.3018 -0.1178  0.1318
13158W        W33438   0.224  11.302  12.574  0.1997 -0.2160 -0.1430
13159W        W33439   1.807   3.290   3.874 -0.1332 -0.3566  0.4819
13160W        W33440   2.709  11.281   1.549  0.0747  0.2589  0.1696
13161W        W33441   6.616   6.998   0.223  0.0779 -0.2260 -0.0581
13162W        W33442   8.847   7.214   1.734  0.2370 -0.0277  0.0948
13163W        W33443  16.743   5.043   3.771 -0.2161 -0.0893 -0.0854
13164W        W33444   2.906   5.189  12.797  0.1578 -0.0117 -0.1501
13165W        W33445   7.084  18.745  12.441  0.0047 -0.4285 -0.3703
13166W        W33446  19.470  19.429   3.257  0.1756 -0.3425  0.1503
13167W        W33447  17.076   7.858  10.227 -0.0393  0.1253 -0.1188
13168W        W33448  16.760   6.435   9.751 -0.0636  0.4253  0.1976
13169W        W33449  16.632   9.636   1.678 -0.0303 -0.0519  0.2432
13170W        W33450  17.293  10.854   0.003  0.1036 -0.2919  0.0812
13171W        W33451  15.458  15.242  11.319  0.0744 -0.0085 -0.0238
13172W        W33452   3.852   6.279  12.671 -0.1390  0.2475 -0.1776
13173W        W33453   4.459   5.573  12.014  0.0451  0.1254 -0.3261
13174W        W33454   9.117  18.778   2.348  0.0422  0.0883  0.0222
13175W        W33455   8.475   9.411  10.791  0.0786  0.1748 -0.0199
13176W        W33456   5.411  12.032   0.589 -0.0619 -0.2232  0.1926
13177W        W33457  17.359   0.617   3.619 -0.2940 -0.0664  0.1436
13178W        W33458  11.672  15.862  10.427  0.0092 -0.2936  0.2612
13179W        W33459   8.758  10.023  10.906 -0.1713  0.6695  0.1333
13180W        W33460  16.021   3.043  12.113  0.0183 -0.0396  0.3822
13181W        W33461   1.623   6.465   1.391 -0.0420  0.1145 -0.3871
13182W        W33462   6.020   9.698   3.317  0.0730  0.0103 -0.1373
13183W        W33463   4.953  11.985   4.232 -0.1003  0.2560 -0.1113
13184W        W33464  19.240   0.579   1.116 -0.1796 -0.2710 -0.0020
13185W        W33465   2.855   6.181   3.267  0.0449  0.1197 -0.1932
13186W        W33466   6.521   5.494   2.394 -0.1250 -0.1163  0.1008
13187W        W33467  16.906   3.960   2.081 -0.1725  0.2061 -0.1772
13188W        W33468   3.242   2.076  11.181  0.1004  0.1180 -0.3259
13189W        W33469  17.575  10.852  10.371  0.0455  0.2036 -0.0978
13190W        W33470   6.892   1.082   0.361  0.0894 -0.2291  0.1915
13191W        W33471  19.304  13.086  11.213  0.0442  0.0348  0.1832
13192W        W33472  10.697  11.023   3.036  0.0855  0.0252 -0.2223
13193W        W33473  12.200  17.615   0.787 -0.1197  0.0954  0.1054
13194W        W33474   9.320   8.584   1.844 -0.0871  0.0563 -0.1716
13195W        W33475   2.843  16.648   1.261  0.1345 -0.0563 -0.0779
13196W        W33476   1.385   7.467  11.305  0.0180  0.0659  0.2419
13197W        W33477  10.660  14.001   2.543 -0.0701 -0.1852 -0.4030
13198W        W33478   7.922   5.269  10.712  0.3269 -0.0432  0.0521
13199W        W33479   0.050   8.525   0.521 -0.1141  0.0010 -0.0249
13200W        W33480  17.859  10.207   2.072 -0.1798  0.1406  0.0696
13201W        W33481  19.802   4.258  13.237 -0.1622  0.2200  0.3406
13202W        W33482   0.748  18.802   3.624 -0.0441  0.5485 -0.0222
13203W        W33483   5.023   9.644   0.034 -0.2333 -0.0564 -0.1873
13204W        W33484   9.282   5.659  13.250 -0.0906 -0.1289  0.2017
13205W        W33485  11.105  12.801   1.034  0.0471 -0.1917  0.0930
13206W        W33486   2.625  17.901  10.698  0.2587  0.0041  0.1223
13207W        W33487   6.649  15.292   1.673  0.2645  0.2478 -0.0895
13208W        W33488  14.891   7.331   1.070 -0.0923  0.1943 -0.3324
13209W        W33489  14.257   2.341  13.082 -0.2226 -0.1757 -0.2011
13210W        W33490   8.375   9.531  12.505  0.0518 -0.2931  0.1125
13211W        W33491   1.521   9.422  13.115  0.0630  0.0630 -0.1079
13212W        W33492   3.887   9.459   0.039 -0.2053 -0.1726  0.0606
13213W        W33493   9.948   4.116  12.590  0.0838  0.2372  0.1462
13214W        W33494  16.144   4.797  12.449 -0.1751 -0.0827  0.0062
13215W        W33495  15.145   1.345  13.202 -0.2099  0.1421 -0.0729
13216W        W33496  11.777  18.379   3.315 -0.2636  0.0811  0.1633
13217W        W33497   7.536  13.186   3.811 -0.2182 -0.0358 -0.0272
13218W        W33498  13.033   6.188   1.335 -0.1026 -0.0415  0.0310
13219W        W33499   4.562   0.152   1.071 -0.2011 -0.2602  0.2877
13220W        W33500   7.349   1.275   2.559 -0.0038 -0.2254  0.2090
13221W        W33501   9.730  18.089  10.048  0.1037  0.0917 -0.2524
13222W        W33502   4.963   8.642   1.786 -0.1012 -0.1277 -0.1496
13223W        W33503  15.921   3.470  12.383 -0.1640 -0.1623 -0.1242
13224W        W33504  10.905   2.551   0.081 -0.0771 -0.0281 -0.1356
13225W        W33505  10.047   2.630   3.809 -0.1979  0.0796  0.2685
13226W        W33506  13.406  15.989  13.233 -0.1149 -0.1047 -0.2475
13227W        W33507  17.349   5.737   0.251  0.1677  0.0818 -0.0515
13228W        W33508  13.997   5.381   1.689 -0.2235 -0.1439  0.1003
13229W        W33509   7.272  12.574  13.162 -0.1881 -0.1256  0.1495
13230W        W33510  13.399   8.822  10.455 -0.3589 -0.0789 -0.0866
13231W        W33511  12.443   3.186   3.578  0.4017 -0.0691 -0.0561
13232W        W33512   1.798  17.318   1.507 -0.1048 -0.3351  0.1457
13233W        W33513   4.282   7.117  11.902 -0.1622  0.0047  0.1711
13234W        W33514  12.729   3.873   4.329 -0.1348  0.0074 -0.0101
13235W        W33515   5.019   3.827  12.972  0.0480  0.0854  0.2169
13236W        W33516   6.548  13.466   1.994  0.2006  0.1295  0.1471
13237W        W33517  12.255   3.120   4.064  0.0690  0.3115 -0.1949
13238W        W33518  14.165   1.727   2.135 -0.2410  0.0043  0.1200
13239W        W33519  12.364   6.006  10.121  0.0065  0.0723 -0.4047
13240W        W33520   6.306   5.915  13.535 -0.0337  0.3492 -0.1119
13241W        W33521  16.738   4.145  13.454  0.2153  0.2264 -0.1201
13242W        W33522   9.075   1.289   1.331 -0.1390  0.0488 -0.0745
13243W        W33523   6.103  19.553   2.415 -0.1626 -0.0190  0.1549
13244W        W33524   2.566  12.975   1.830 -0.0674 -0.1725 -0.3230
13245W        W33525   2.556   4.988   1.658 -0.1692  0.0200 -0.0727
13246W        W33526   9.062   1.733   1.661  0.2095  0.1523  0.1173
13247W        W33527   1.052   2.398   2.456  0.0527  0.3007  0.3239
13248W        W33528   0.144  13.470   2.145 -0.1808 -0.0396 -0.1100
13249W        W33529   1.951  18.034   4.014  0.3131 -0.1152 -0.0775
13250W        W33530   9.495   8.957   1.465 -0.0617 -0.1522  0.2213
13251W        W33531  13.382   3.023   9.775 -0.0254  0.1439  0.0681
13252W        W33532  11.368   5.939  11.856  0.0443  0.0126  0.2065
13253W        W33533  19.443  16.976  12.394 -0.0366  0.2077  0.1397
13254W        W33534   1.707  14.515  12.014  0.0918  0.2462  0.0357
13255W        W33535  16.782  19.448   1.862  0.3113 -0.0617  0.1884
13256W        W33536  15.928  18.103   1.124  0.1155 -0.0073  0.1359
13257W        W33537  17.319  16.182   2.987 -0.0225  0.1714 -0.0097
13258W        W33538   3.246  16.734   3.934 -0.2542  0.0776  0.2609
13259W        W33539   6.889   1.269  11.904  0.1031  0.2675 -0.0363
13260W        W33540   6.595   6.829  10.366  0.2170 -0.1063 -0.1649
13261W        W33541   0.180   7.379   1.749 -0.1296  0.0977  0.2075
13262W        W33542   0.076   7.541  13.055 -0.0622 -0.1127 -0.2217
13263W        W33543   7.172   6.354   2.326  0.2548  0.0532  0.0414
13264W        W33544   6.182  18.097   3.418  0.0074 -0.1407 -0.0578
13265W        W33545  10.244  12.757   2.855 -0.0231  0.0698 -0.4363
13266W        W33546  14.522   1.085  12.290 -0.0339  0.0867 -0.2923
13267W        W33547  14.381  17.157  10.966 -0.1610  0.4526 -0.0746
13268W        W33548   7.436  16.415   3.859  0.1322 -0.3417 -0.2542
13269W        W33549  19.117  12.435  11.624 -0.1108 -0.1083  0.0939
13270W        W33550  16.736  18.320  11.458  0.0709 -0.2704 -0.1230
13271W        W33551   1.918  18.547  12.445  0.0724  0.0304  0.0096
13272W        W33552  18.421   5.767   0.941 -0.0420  0.0152  0.2859
13273W        W33553   7.487   5.387  13.086  0.1255 -0.1027 -0.2271
13274W        W33554   3.741  13.454   1.265  0.0402  0.2933  0.0786
13275W        W33555   8.756   9.497   3.892 -0.1937 -0.1186  0.0243
13276W        W33556   3.250   4.096   0.278  0.1221  0.1521 -0.0601
13277W        W33557  18.031  12.378  12.846 -0.0281  0.1267  0.0909
13278W        W33558   1.305   5.966  10.906  0.0522  0.3407  0.0337
13279W        W33559  10.645  18.209   4.063  0.0665 -0.1261  0.1857
13280W        W33560  19.101  11.332  10.998 -0.2249 -0.3130 -0.1818
13281W        W33561  11.855   3.028  12.964  0.0763  0.2485  0.2052
13282W        W33562   7.788   5.237   1.612 -0.0484  0.2961 -0.2586
13283W        W33563   8.024   3.972   3.718 -0.0447  0.0298 -0.1500
13284W        W33564   5.350  18.123  11.873 -0.0689 -0.1494  0.0171
13285W        W33565  11.409   7.780   2.154  0.4289  0.1373 -0.0952
13286W        W33566   1.316   1.726   4.221 -0.1459 -0.0957 -0.3209
13287W        W33567   0.509  17.308   2.161 -0.0203  0.0765 -0.2739
13288W        W33568  10.095  10.022   2.391 -0.0831 -0.0316 -0.1260
13289W        W33569   2.928   2.375  12.129  0.2024 -0.0673 -0.2754
13290W        W33570  16.817  18.862   2.622 -0.0503  0.1479  0.1058
13291W        W33571   5.549   4.192   4.079 -0.1792 -0.1900 -0.1081
13292W        W33572   9.703   8.940   3.217  0.3012 -0.0514  0.0688
13293W        W33573   5.705   1.134   1.888 -0.2689 -0.4015 -0.3102
13294W        W33574  11.194   7.982   4.140 -0.0769 -0.2890 -0.2733
13295W        W33575  11.785   2.146   0.094  0.4294  0.1748 -0.2457
13296W        W33576   5.217  13.325  10.987 -0.2606  0.0602  0.0886
13297W        W33577  13.094  17.780   1.666 -0.0206  0.2749 -0.1349
13298W        W33578  18.186   3.275   0.891  0.2267 -0.0016  0.3430
13299W        W33579  18.410  18.295   1.594  0.3336  0.3707  0.1139
13300W        W33580  13.619   3.829  10.575  0.0362  0.1508  0.2036
13301W        W33581   2.833  16.371   3.971 -0.1676 -0.1942 -0.0482
13302W        W33582   8.521   0.645   0.399  0.2560 -0.1566 -0.6251
13303W        W33583  14.385  10.620   0.558  0.2142  0.0551 -0.0547
13304W        W33584  18.007  13.728  10.796 -0.0535 -0.1956  0.2341
13305W        W33585   2.179  12.907   1.436 -0.1506 -0.1918  0.2158
13306W        W33586   2.560  16.375  12.738  0.1748 -0.1027  0.0657
13307W        W33587   4.736  16.490  11.767  0.0037  0.1757 -0.2233
13308W        W33588  11.370   6.690   0.707  0.1849  0.1413  0.0304
13309W        W33589   8.168   9.729   2.819 -0.2958 -0.0952 -0.1047
13310W        W33590   2.302   5.292   1.978  0.1869  0.0517  0.3453
13311W        W33591   0.325  12.332  10.482 -0.1082  0.0566  0.1049
13312W        W33592  18.173  19.503  11.715  0.1670  0.3020  0.3507
13313W        W33593  18.647   1.070  11.268  0.2201  0.1113  0.0432
13314W        W33594  14.988   6.696   1.472  0.1183  0.0237 -0.0200
13315W        W33595   1.431  13.602  10.815  0.0168 -0.1719 -0.1925
13316W        W33596  10.954  10.630   0.687  0.1010  0.0470  0.1116
13317W        W33597  18.493   5.671  10.650  0.0387 -0.2488  0.1727
13318W        W33598   6.479  16.867   2.928 -0.0830 -0.0453 -0.2199
13319W        W33599  11.783  14.126   2.200 -0.0970 -0.1103 -0.0877
13320W        W33600  18.499   0.518   2.042  0.0251  0.1751  0.1409
13321W        W33601   0.545  11.084   1.838 -0.3689 -0.1439  0.2041
13322W        W33602  17.403  12.561   0.091  0.1791  0.0726  0.2443
13323W        W33603  14.561  12.699  12.322 -0.1629 -0.2306  0.1110
13324W        W33604   7.507  16.725  12.965 -0.0079 -0.0491  0.1287
13325W        W33605   8.230  16.529   1.217  0.1844  0.1550 -0.0650
13326W        W33606   6.174   7.100  12.446  0.0919  0.0111  0.0227
13327W        W33607   9.371  16.335   0.393 -0.4463  0.1513 -0.2111
13328W        W33608   4.804  13.188   3.285  0.0747 -0.3152 -0.0787
13329W        W33609  14.738  15.910  10.652 -0.1746  0.1600 -0.0240
13330W        W33610  10.949   4.522   9.178 -0.0936 -0.0095 -0.2704
13331W        W33611  13.244   1.074   9.686  0.1449  0.3405 -0.2357
13332W        W33612   6.259   2.431   1.408  0.1224  0.0648 -0.2705
13333W        W33613  13.677   1.030   3.273 -0.0231  0.5297  0.1207
13334W        W33614   6.247  17.819  11.676 -0.0412  0.1280  0.0831
13335W        W33615   2.989   8.354   4.260 -0.2410 -0.1685  0.1508
13336W        W33616   2.251  18.918   3.947  0.0238  0.2560  0.2316
13337W        W33617  13.754   0.547   3.655  0.1967 -0.0719 -0.1038
13338W        W33618  11.209  16.033   9.988  0.0458  0.1296  0.3669
13339W        W33619  17.990  19.228   1.935 -0.1114 -0.0338  0.3992
13340W        W33620  15.924  14.312   0.079  0.2281 -0.1164 -0.1156
13341W        W33621  10.782   0.628  12.365 -0.0228  0.0492 -0.3173
13342W        W33622   6.426  19.540  12.629 -0.0444 -0.2478  0.2755
13343W        W33623   3.552  17.465   3.511  0.0452 -0.2945  0.0202
13344W        W33624   3.626   6.877  10.651 -0.0282  0.3136 -0.0480
13345W        W33625   3.094  16.212  12.789 -0.0901 -0.1171 -0.1653
13346W        W33626  10.852  19.070   2.081 -0.1425  0.1641  0.0825
13347W        W33627  14.453   3.821  12.697 -0.0110  0.2583 -0.0790
13348W        W33628   4.840  15.514   1.137  0.0346 -0.2835  0.4083
13349W        W33629   6.337   6.448   1.727 -0.1622 -0.0949 -0.0587
13350W        W33630   4.913  14.210  13.232  0.2052  0.1919  0.2554
13351W        W33631   6.816   8.363   0.406 -0.0382 -0.0047  0.3510
13352W        W33632   1.455   9.093  11.865 -0.2524 -0.0960  0.4044
13353W        W33633   3.617   5.226   3.864 -0.1058  0.2379 -0.1443
13354W        W33634  16.996  14.409  13.527  0.0714 -0.1781 -0.1340
13355W        W33635   6.041  14.615  11.829 -0.3784 -0.2465 -0.0673
13356W        W33636   0.578   3.924  12.130 -0.0978  0.1091 -0.0024
13357W        W33637  11.639  19.955   3.218 -0.1242 -0.1666 -0.1638
13358W        W33638  12.428   1.000  12.396  0.0666 -0.0009  0.1535
13359W        W33639  12.430   7.702   3.948 -0.2256 -0.1534  0.0536
13360W        W33640   2.573  19.911   0.989  0.0176  0.3328 -0.1422
13361W        W33641   8.092  19.038   3.770  0.1118 -0.1139 -0.1966
13362W        W33642   9.979   3.954   3.863 -0.0491  0.1220  0.2312
13363W        W33643   1.264   7.745   2.875 -0.0225 -0.0956  0.2871
13364W        W33644  17.655   6.067   1.771  0.0072  0.1298  0.0842
13365W        W33645   4.985  16.240   9.416 -0.1394 -0.5106 -0.0392
13366W        W33646   7.617  16.279   1.247  0.4360 -0.1082  0.1954
13367W        W33647  10.414  16.616   0.572  0.0067 -0.1597 -0.2301
13368W        W33648  15.296  15.747  13.365 -0.1901  0.1185 -0.0726
13369W        W33649   7.468  17.947   3.164 -0.0053  0.1762 -0.1246
13370W        W33650   3.741  15.260   1.883  0.0275  0.0126 -0.0262
13371W        W33651   2.689  15.517  13.177  0.0865  0.3618  0.0784
13372W        W33652   4.563  10.264   2.392 -0.0283 -0.0167 -0.0960
13373W        W33653   8.358   1.951  12.810  0.2364 -0.1961  0.1154
13374W        W33654   8.105  11.513   3.282 -0.0539  0.3200  0.0928
13375W        W33655   9.752   2.367   0.138 -0.0154 -0.2025 -0.1047
13376W        W33656  17.345  15.577  12.923  0.0577 -0.1907  0.1394
13377W        W33657   7.857   7.619  13.782  0.1429  0.0887 -0.2078
13378W        W33658   7.783  10.186   3.556  0.0371  0.0195  0.3425
13379W        W33659  17.087   1.299  12.330  0.2024 -0.1631 -0.1804
13380W        W33660  11.980  14.117  11.791 -0.2786  0.1849 -0.2441
13381W        W33661  11.086  11.446   2.334  0.1409  0.2156 -0.0564
13382W        W33662  15.779  18.935  10.278  0.2341  0.2122  0.0198
13383W        W33663   7.474  13.101  11.122 -0.3992  0.0559 -0.0859
13384W        W33664   1.792  10.053  10.182 -0.1273  0.1001 -0.3640
13385W        W33665  12.906   8.489   0.696 -0.0627  0.0178  0.1404
13386W        W33666   8.491  12.923   9.500 -0.0975  0.2230 -0.1408
13387W        W33667  14.661   5.050  11.442  0.0850 -0.0001  0.2480
13388W        W33668  10.964  11.841   0.302 -0.0788  0.2516  0.0344
13389W        W33669   5.961   0.626   2.089 -0.0699  0.0904 -0.1123
13390W        W33670   8.778  18.609   0.621 -0.0477  0.2217 -0.1862
13391W        W33671  12.499  16.814  13.412  0.3681  0.0298 -0.0221
13392W        W33672  13.343   8.132   2.925  0.0700 -0.1080 -0.0993
13393W        W33673  10.392   6.137  11.841 -0.1260 -0.1991 -0.2485
13394W        W33674  10.072   8.174   3.007 -0.2961  0.1762 -0.0660
13395W        W33675  13.355   1.735   2.699  0.0001  0.2437  0.1340
13396W        W33676   5.249   9.338  11.759  0.2556  0.2283  0.0232
13397W        W33677  12.940   0.181  12.504  0.0860 -0.1463 -0.0605
13398W        W33678  11.489   7.672   9.080  0.0571 -0.1910  0.2877
13399W        W33679  14.486   9.461  11.046  0.1402 -0.1120 -0.3129
13400W        W33680   6.683   2.924  12.120 -0.1521  0.1836 -0.2911
13401W        W33681  14.344  11.723  12.270 -0.0575 -0.0665  0.2672
13402W        W33682   8.956   2.100   3.851  0.1297  0.1784  0.0519
13403W        W33683  14.473   6.465  11.554  0.0386  0.0625  0.1451
13404W        W33684  14.317  16.467   2.374 -0.0063 -0.0749  0.2689
13405W        W33685  14.958   4.444   3.723 -0.3719  0.1642  0.0352
13406W        W33686  12.713   2.654  10.971 -0.1894 -0.2145 -0.0185
13407W        W33687   2.524   5.733   4.234 -0.1471 -0.0569 -0.1263
13408W        W33688  11.602   7.277  13.842  0.0437  0.0729  0.1222
13409W        W33689  17.021  15.802   3.340 -0.0435 -0.1171 -0.1256
13410W        W33690   9.688  16.252   3.111  0.1822 -0.0723 -0.2141
13411W        W33691   3.606   7.792   3.530 -0.0513 -0.0648 -0.0463
13412W        W33692  14.209  12.976   0.628 -0.0247 -0.0824  0.2978
13413W        W33693  18.484  14.603  13.366  0.1048 -0.2240  0.1852
13414W        W33694  19.604  18.494  12.370 -0.2452 -0.4306 -0.0626
13415W        W33695  10.648  18.998  13.814 -0.1277  0.1163 -0.0670
13416W        W33696  11.104  10.044  13.001  0.3004 -0.1380 -0.0633
13417W        W33697   2.545  10.698  10.282  0.1760  0.0742  0.0387
13418W        W33698  16.799  18.858   3.183 -0.0537 -0.3023 -0.0934
13419W        W33699   2.968  14.357   2.741  0.1141  0.0099 -0.3380
13420W        W33700   5.477  10.576  13.745 -0.0609  0.1621 -0.0514
13421W        W33701  18.856  10.534  11.627  0.1480  0.2582 -0.1155
13422W        W33702  17.671  19.191   3.183  0.2806  0.1137  0.0533
13423W        W33703  11.686  15.077   0.606  0.2262  0.0290  0.3787
13424W        W33704  10.480   0.498  10.012  0.1850  0.0760 -0.0587
13425W        W33705  10.178  18.857   1.020 -0.0150  0.0332  0.1357
13426W        W33706   5.410   8.705  13.786  0.1016 -0.0066  0.0948
13427W        W33707   1.338   3.946  10.396  0.1620 -0.0774  0.0471
13428W        W33708  14.107   6.102   1.153  0.1365  0.2430  0.0199
13429W        W33709  14.759  14.461  10.852  0.1031 -0.1395  0.0827
13430W        W33710  16.893  14.375  12.742  0.1970  0.2703 -0.2381
13431W        W33711  11.707   8.358  11.114 -0.3273 -0.3289  0.4281
13432W        W33712   5.166  13.683   2.008 -0.1118 -0.1542  0.2822
13433W        W33713   7.443  10.415  10.865  0.1002 -0.2136  0.2693
13434W        W33714  17.916   2.370   3.174  0.3116  0.2490 -0.1132
13435W        W33715  17.002  12.736  13.759  0.0031 -0.1935  0.2868
13436W        W33716   9.855   1.751   3.514 -0.2333  0.1842  0.0022
13437W        W33717   7.587  12.281  11.647  0.1370 -0.1275  0.1052
13438W        W33718   4.022  18.351  11.664 -0.1163  0.1276  0.1861
13439W        W33719   5.354   9.513  12.734  0.2311 -0.1804 -0.1690
13440W        W33720  16.698   6.181   0.749  0.0500 -0.0131  0.0406
13441W        W33721   2.203   0.985  13.135  0.1384 -0.1322 -0.0146
13442W        W33722   0.291   2.134   1.458  0.2145 -0.1707  0.0962
13443W        W33723   0.957  12.303   1.077  0.1474 -0.0535  0.1859
13444W        W33724  19.585  19.693  11.761  0.1413  0.0307  0.1230
13445W        W33725  15.032  19.860   0.396  0.0613 -0.1933 -0.0958
13446W        W33726  12.929   2.394  10.178 -0.1444 -0.0965 -0.2175
13447W        W33727  11.921  15.062   3.080 -0.0212  0.2918 -0.0539
13448W        W33728   9.877   6.083  11.944 -0.0173 -0.1131 -0.0556
13449W        W33729  19.441   4.758   3.488 -0.0218  0.2250 -0.2945
13450W        W33730   1.524   4.249  12.234 -0.0228  0.1256 -0.1363
13451W        W33731  19.139  11.891   9.917 -0.0102 -0.1654  0.0346
13452W        W33732   5.074   4.715  13.205 -0.2606  0.0037 -0.0356
13453W        W33733   2.768   0.341  11.461 -0.2332  0.0204  0.0586
13454W        W33734   6.764  12.519   3.744 -0.0672 -0.2372  0.1331
13455W        W33735   5.298   5.360   4.380 -0.1137  0.1376  0.0926
13456W        W33736  10.125   3.351   3.225 -0.5399 -0.0639  0.1356
13457W        W33737   3.843   4.651  10.666 -0.1088 -0.0260 -0.3499
13458W        W33738  19.375  17.621  10.326  0.2068 -0.1316  0.1976
13459W        W33739  13.945   9.874   0.735 -0.1904  0.1954  0.2002
13460W        W33740   8.660   8.102   0.131 -0.2054 -0.0147 -0.2576
13461W        W33741   8.720  10.803   0.846  0.3391 -0.1225  0.0657
13462W        W33742  16.320   6.947  13.147 -0.0680  0.0187  0.2323
13463W        W33743  14.029  14.270   3.197 -0.1739 -0.1595 -0.0878
13464W        W33744   6.475  14.552   5.262  0.5624  0.0735  0.1036
13465W        W33745   9.319   8.156  10.990 -0.1322  0.2352  0.2275
13466W        W33746  15.473   7.222   1.839  0.1472 -0.4200 -0.0549
13467W        W33747  18.630   6.392   3.736 -0.0783 -0.0009 -0.1935
13468W        W33748   7.384   0.563   2.076 -0.2243  0.1141 -0.0384
13469W        W33749  16.468  12.012  13.288 -0.3971 -0.0134 -0.3010
13470W        W33750   1.598  11.895  13.542 -0.0660  0.2272 -0.2897
13471W        W33751  12.805   4.665   0.751  0.0914 -0.0526 -0.2012
13472W        W33752  12.815   6.906  13.289 -0.0169 -0.1233  0.0075
13473W        W33753  12.045   4.722   0.373 -0.0220 -0.3279 -0.0536
13474W        W33754  13.283   3.849   3.533  0.0781  0.1690 -0.0913
13475W        W33755  13.116  14.369  13.734  0.2467 -0.1031 -0.0025
13476W        W33756   2.766   1.327  12.854 -0.1958  0.2606 -0.1596
13477W        W33757   8.369  10.515   1.189  0.0986 -0.0518 -0.1939
13478W        W33758  15.913  19.173   0.342  0.0135  0.2257 -0.1734
13479W        W33759  15.349  12.698  13.673  0.4910 -0.1072  0.0792
13480W        W33760  18.000   8.241   9.689  0.3329  0.0224 -0.0301
13481W        W33761  16.749  17.638  13.535  0.0790 -0.2629 -0.0813
13482W        W33762  16.019   3.458   2.229  0.2298 -0.0850  0.2031
13483W        W33763  18.787  14.876   0.682 -0.1634 -0.0390  0.0783
13484W        W33764  17.276   8.355  13.201  0.0631 -0.0364 -0.1177
13485W        W33765  11.386   9.391  12.597  0.1567  0.2402 -0.3137
13486W        W33766  19.867  16.335   3.668 -0.1326  0.0007 -0.1908
13487W        W33767  16.010   1.333   0.522  0.5138 -0.3717 -0.1821
13488W        W33768  18.257   8.130  13.025 -0.1315 -0.1188  0.0142
13489W        W33769   3.001  15.659   0.701 -0.0343 -0.1909  0.3781
13490W        W33770   6.264   4.695  13.142 -0.0108  0.1870  0.4475
13491W        W33771   3.912  15.933   3.941  0.1188 -0.2090 -0.2879
13492W        W33772  13.313  14.044  10.314  0.5395  0.2125 -0.1167
13493W        W33773   5.105   0.927   2.251 -0.0490  0.1825  0.0660
13494W        W33774  15.619   4.588  12.547 -0.2756 -0.0036 -0.0777
13495W        W33775  12.630  12.023   1.982  0.3408  0.1386 -0.0739
13496W        W33776   6.189   3.965   1.719 -0.0788  0.1001  0.0310
13497W        W33777   8.368   7.920   3.365 -0.2943  0.1793 -0.0481
13498W        W33778   5.680  18.223  10.084 -0.1871  0.2089 -0.1547
13499W        W33779  18.795  11.691   0.027 -0.2278 -0.1907 -0.2162
13500W        W33780  10.909  13.251  12.880  0.0368 -0.0331  0.0857
13501W        W33781  12.754   0.381   2.244  0.1962 -0.1045 -0.2469
13502W        W33782  19.740   1.414  12.049  0.2592  0.5020  0.0119
13503W        W33783  14.262   0.274   1.025 -0.0054  0.1803  0.1366
13504W        W33784   2.597   1.669   3.438 -0.0266 -0.5261  0.0509
13505W        W33785  11.710  15.550   4.343  0.0341  0.0372  0.3120
13506W        W33786  13.759   4.066   3.536 -0.0395 -0.2242 -0.2031
13507W        W33787  15.262  15.753  10.513 -0.1876  0.0786  0.0623
13508W        W33788   1.051  14.138   1.733 -0.2834 -0.2525 -0.2033
13509W        W33789   1.909  16.421   2.872  0.1040 -0.2345  0.3829
13510W        W33790  15.508   5.321   9.286 -0.0063 -0.0659 -0.4292
13511W        W33791  15.485   6.841   3.532 -0.0001  0.0198  0.1685
13512W        W33792  16.023   5.689  11.736 -0.2480  0.0244 -0.1355
13513W        W33793   9.684   5.139  12.574  0.2267 -0.0074 -0.2125
13514W        W33794   9.368   4.399   9.293 -0.1578  0.2134 -0.0675
13515W        W33795   2.120  12.479   1.140  0.3611  0.2461  0.0943
13516W        W33796   0.180   7.319  13.526  0.0187 -0.3089 -0.1903
13517W        W33797  10.360   7.953   2.028  0.0928 -0.1213  0.1034
13518W        W33798  16.500   7.901   1.474 -0.3076 -0.3424  0.0472
13519W        W33799   6.702  17.305   0.573  0.0238  0.3133  0.2694
13520W        W33800   5.522   4.158   3.570 -0.0838  0.2949  0.0398
13521W        W33801   1.313   4.829  11.608  0.3688 -0.1390 -0.1095
13522W        W33802   3.998  10.054  10.566  0.1539 -0.0476  0.1444
13523W        W33803  12.373  10.959  10.676  0.2214 -0.0008  0.1886
13524W        W33804  16.442  16.782   2.690  0.0455  0.0619 -0.0799
13525W        W33805   4.858  16.872   0.247  0.2594 -0.1246 -0.1045
13526W        W33806  11.471  15.917   3.397  0.1087 -0.0207  0.0751
13527W        W33807   2.108  17.563   1.972 -0.1280  0.0666  0.1498
13528W        W33808  17.723   9.537   0.620 -0.1051 -0.3029 -0.0736
13529W        W33809   0.125   7.120  12.682  0.0269  0.1746 -0.2020
13530W        W33810   5.745   9.262  11.793 -0.1146  0.0640 -0.0710
13531W        W33811  11.343   5.988  12.745  0.0613  0.0942  0.1381
13532W        W33812   8.711  10.335   3.429  0.0497 -0.2497  0.1543
13533W        W33813   6.478  18.800  11.906  0.2425 -0.3533 -0.0773
13534W        W33814  11.472   3.868  11.188 -0.1190 -0.2251 -0.1227
13535W        W33815  14.381  17.963  11.268  0.0095  0.0330 -0.3539
13536W        W33816  10.869   9.385  11.832  0.4788 -0.0281 -0.2010
13537W        W33817  10.376   4.225  11.518 -0.5190 -0.2455  0.2039
13538W        W33818   2.659  11.525  13.127 -0.4012  0.3256 -0.0161
13539W        W33819  15.447  11.701  13.691  0.1664 -0.1870  0.0949
13540W        W33820  15.991   0.255  12.083 -0.4062 -0.3316 -0.0255
13541W        W33821  11.614   3.770   0.303 -0.1758 -0.0459  0.3007
13542W        W33822  15.007   0.668  10.969 -0.0721 -0.0420 -0.0541
13543W        W33823   6.061  14.581  13.561  0.3646 -0.0067  0.3380
13544W        W33824  14.110   2.425  10.854 -0.0399  0.1275 -0.2299
13545W        W33825  17.812  19.037   1.458 -0.0205  0.1520 -0.2130
13546W        W33826  12.810   2.004   2.342 -0.1095 -0.1277 -0.0433
13547W        W33827  19.138  14.510   3.102  0.0357 -0.1151  0.2422
13548W        W33828   4.215   8.488  12.572  0.1393  0.1604  0.2463
13549W        W33829   0.103  15.543   3.010 -0.1187 -0.0719 -0.1203
13550W        W33830  16.190   2.515  10.014  0.3247 -0.2131  0.0324
13551W        W33831  17.963   4.870   2.806 -0.1616 -0.2991 -0.0036
13552W        W33832   3.100  11.011  12.429 -0.0298  0.1900 -0.1642
13553W        W33833  11.161  18.609   1.386 -0.3688  0.0955  0.2324
13554W        W33834  11.753   2.825   4.080  0.1389 -0.2626  0.0035
13555W        W33835   5.743   8.873   3.776 -0.0694  0.1287  0.2940
13556W        W33836   4.013   7.122   1.319 -0.2638 -0.3317  0.2383
13557W        W33837   6.568  14.091   3.318 -0.3225 -0.2298  0.2717
13558W        W33838   8.427  12.402  13.796  0.1076  0.1095 -0.2069
13559W        W33839  14.429  19.296  13.600  0.1726  0.1463  0.1526
13560W        W33840  14.219   5.641   1.315  0.4917  0.1046  0.1449
13561W        W33841   7.897  15.437  10.544  0.3199  0.1755 -0.2346
13562W        W33842   3.294  19.654  11.010  0.1165  0.0197 -0.2792
13563W        W33843   8.455  10.500  12.273 -0.0066 -0.0426 -0.3240
13564W        W33844   1.029   1.504   1.819  0.2428 -0.0730 -0.2939
13565W        W33845   7.841   1.981  13.477  0.0773  0.1869  0.0206
13566W        W33846   9.194   1.622  10.715 -0.0405 -0.1451 -0.1425
13567W        W33847  11.784  16.703  11.813 -0.1908  0.0054 -0.1477
13568W        W33848  11.166  11.373   1.854  0.4990  0.1991  0.2208
13569W        W33849   7.718   4.360   0.281 -0.1767 -0.3145 -0.1894
13570W        W33850  18.633   2.732  12.062  0.1882 -0.0011  0.1526
13571W        W33851  10.389  19.410  10.940  0.1468 -0.0196  0.0443
13572W        W33852   8.029   1.572  10.077 -0.0117  0.1169  0.3206
13573W        W33853   6.404   3.717   3.437  0.1685  0.0259 -0.2229
13574W        W33854   4.190  15.480   3.824 -0.0692 -0.0357  0.2218
13575W        W33855   4.399   3.881  11.885  0.1964 -0.0536 -0.0033
13576W        W33856   1.920  11.744   1.708  0.2620  0.1261 -0.1286
13577W        W33857  18.178   6.310  12.837  0.1770 -0.0957 -0.2256
13578W        W33858  12.825  13.993   3.826  0.1905 -0.1629  0.0904
13579W        W33859   6.704   0.135  11.160 -0.3285 -0.0126  0.1470
13580W        W33860  15.550   7.881   3.243 -0.0137 -0.2708 -0.1720
13581W        W33861  10.104  16.879  12.503 -0.4863  0.0750 -0.2988
13582W        W33862  17.308  11.333  13.046  0.1041 -0.1392 -0.1353
13583W        W33863   7.636   9.330  10.081  0.0747 -0.2477  0.0459
13584W        W33864  12.219  18.194   1.497 -0.0991  0.1415  0.1401
13585W        W33865   2.153  18.496   2.120  0.2784 -0.1299 -0.2922
13586W        W33866   3.781   3.257  13.499 -0.2859 -0.2141 -0.0432
13587W        W33867   2.921   8.223   2.504 -0.4087  0.0824  0.1342
13588W        W33868  19.809  11.188   9.657  0.3214 -0.2200 -0.3065
13589W        W33869   9.762   0.391   0.867  0.1356 -0.0836  0.4603
13590W        W33870  16.754  16.261   3.046 -0.1226 -0.2366  0.0616
13591W        W33871   5.349   0.541  12.903 -0.2653  0.0986  0.0979
13592W        W33872  13.264   3.521   4.004 -0.0640  0.0680  0.5497
13593W        W33873   3.751   0.974   1.965 -0.0408  0.1643  0.1191
13594W        W33874   0.794  18.933  13.102 -0.2365 -0.2519 -0.0659
13595W        W33875   9.999  15.143   1.407  0.1274  0.0755 -0.2038
13596W        W33876   6.355  17.424   0.283  0.0190 -0.1577  0.1822
13597W        W33877  19.442   0.923   2.436  0.3015  0.0032 -0.1311
13598W        W33878  15.924  10.417   3.737  0.2090 -0.2588 -0.2836
13599W        W33879  11.784   9.667   0.087 -0.1964  0.0473 -0.0256
13600W        W33880  16.457  10.980   1.123 -0.0531  0.0498 -0.1568
13601W        W33881  17.335  17.582   0.546  0.1969  0.2306 -0.0612
13602W        W33882  12.630   1.343  10.722 -0.1090  0.1118  0.2287
13603W        W33883   5.561   2.447  11.884 -0.0731  0.0189 -0.0988
13604W        W33884   5.592  14.199  12.845 -0.7653 -0.3486 -0.1555
13605W        W33885  18.968  14.124  11.234 -0.0774  0.4061 -0.1509
13606W        W33886  14.629   0.487   3.171  0.0761  0.0777  0.1206
13607W        W33887  10.508  15.621   2.486  0.1167 -0.0163 -0.1972
13608W        W33888   1.087  16.226  12.374  0.1575 -0.1488 -0.0755
13609W        W33889   9.458  18.813  12.667 -0.1974 -0.0721 -0.3424
13610W        W33890   4.809  10.002   0.895  0.1180  0.0047  0.0026
13611W        W33891  14.409  17.993   2.454  0.1161  0.0867  0.3081
13612W        W33892   0.399   6.762  10.012 -0.0062  0.1151 -0.0541
13613W        W33893   4.340  16.994   3.858  0.2405  0.2204  0.1746
13614W        W33894   5.148   5.251  13.476  0.1706 -0.2237  0.2414
13615W        W33895  11.161   1.887  12.237 -0.1030  0.0356 -0.0794
13616W        W33896  11.617  17.314  10.656 -0.2036  0.1170  0.1004
13617W        W33897  15.590   2.529  13.827  0.2471  0.0204 -0.0686
13618W        W33898  16.774   1.731   0.039 -0.4126  0.1009 -0.0797
13619W        W33899  19.331  16.318  12.830  0.1033  0.1745 -0.1816
13620W        W33900  15.772  17.388  11.326  0.1054 -0.0913 -0.0353
13621W        W33901   8.655   5.681  10.546 -0.1698 -0.0697  0.0735
13622W        W33902   4.002   3.610  13.794  0.1519  0.2036  0.3037
13623W        W33903  18.296   9.717  11.512 -0.0173  0.4573 -0.0262
13624W        W33904   5.196   0.539   2.586  0.1199  0.1179 -0.0810
13625W        W33905  16.105   2.730  10.829  0.0678  0.0689 -0.2159
13626W        W33906   6.192  18.566   9.184 -0.2717  0.1938  0.1551
13627W        W33907   0.906   0.323   2.209 -0.3455  0.0686 -0.1808
13628W        W33908  19.404  15.385   0.714  0.0625 -0.2598 -0.1660
13629W        W33909  11.238   8.752   2.520  0.1549  0.0807 -0.0724
13630W        W33910  18.405  10.899  13.443  0.0314  0.3542  0.1506
13631W        W33911   6.865  18.322  12.209 -0.2489  0.0220 -0.2670
13632W        W33912  16.034   6.037   1.360  0.2831 -0.0881  0.1553
13633W        W33913   1.484   4.680  13.181 -0.3247  0.1580  0.2706
13634W        W33914   9.108   4.631  12.614  0.1066 -0.3454  0.0895
13635W        W33915   1.898  12.675  11.485 -0.0787 -0.0918  0.0371
13636W        W33916  10.301  13.400  11.763  0.0809  0.4114 -0.1175
13637W        W33917  15.171  10.300   1.363  0.0163  0.0512  0.1003
13638W        W33918   4.514   0.455   1.914  0.3004 -0.1141 -0.2363
13639W        W33919  19.851   1.955  12.057 -0.3176 -0.0370  0.2710
13640W        W33920  14.383  16.592   0.716  0.1945 -0.4258  0.2276
13641W        W33921  18.776   3.581  11.780 -0.2144 -0.0769  0.0545
13642W        W33922  11.856  19.588  13.262  0.2641 -0.1921  0.1975
13643W        W33923   1.150   4.044  10.930  0.0777  0.0593  0.2931
13644W        W33924   3.285   0.175   1.700 -0.1182 -0.2758  0.1286
13645W        W33925   1.190  15.048  12.617  0.0401  0.2712  0.2050
13646W        W33926   5.956  13.444  11.317  0.1434 -0.1224 -0.0929
13647W        W33927  16.582   4.095   0.798  0.0643 -0.0247 -0.1164
13648W        W33928  15.015  19.364   2.067  0.1200  0.5143  0.0020
13649W        W33929   5.901  18.184  11.909  0.0455  0.2026 -0.1441
13650W        W33930   0.584   4.706  13.647 -0.3757  0.0232 -0.1840
13651W        W33931   8.185  14.603  11.011  0.0227 -0.0692 -0.1593
13652W        W33932  16.291   3.323   3.002 -0.2255  0.0015 -0.3977
13653W        W33933   3.757  10.362  13.226  0.1013 -0.4440 -0.2967
13654W        W33934  13.666   6.733   3.767 -0.1559 -0.1139 -0.0828
13655W        W33935   9.243  13.707   3.918 -0.1916  0.0888  0.0826
13656W        W33936   0.607  17.073  11.540 -0.0160 -0.2443 -0.1015
13657W        W33937  19.852  12.312   0.411 -0.1294 -0.0664  0.1076
13658W        W33938  14.644   1.548   1.872  0.0002  0.1363 -0.2394
13659W        W33939   9.081  19.123  12.979  0.0791 -0.1265 -0.2421
13660W        W33940   7.964   0.190   0.419 -0.1132  0.2067  0.0155
13661W        W33941   5.436  14.743  12.645 -0.0256  0.0408  0.0569
13662W        W33942  17.230  18.414   3.865 -0.3404  0.1553 -0.5546
13663W        W33943   5.344   5.563  11.958  0.0408  0.1564  0.2177
13664W        W33944   1.410  12.406   2.430 -0.0101  0.0011 -0.1759
13665W        W33945  16.911  16.930   2.804 -0.0854 -0.0790 -0.1575
13666W        W33946  19.760  17.429  11.219  0.0863 -0.2389 -0.0411
13667W        W33947  14.438  19.365  11.266 -0.2168  0.2490 -0.2842
13668W        W33948  15.707   5.673   2.927  0.0410  0.0184 -0.0819
13669W        W33949   1.681  13.517  12.761 -0.0968 -0.1130 -0.2800
13670W        W33950   2.010  12.174   2.452  0.3645 -0.0326 -0.1661
13671W        W33951   2.508  10.492  12.963 -0.2190 -0.2867  0.1423
13672W        W33952  15.512   6.366   2.003  0.2896 -0.3617  0.1999
13673W        W33953  12.281  15.244   3.311  0.2373 -0.0105 -0.3447
13674W        W33954   3.053  16.522   3.505  0.1257 -0.0207  0.4355
13675W        W33955  18.070   7.092   3.262  0.1434 -0.0290 -0.1239
13676W        W33956  16.325  12.442   0.468 -0.1926  0.1512 -0.2624
13677W        W33957   9.624  19.617   1.592 -0.0806  0.2349 -0.0113
13678W        W33958   4.733   6.284  13.161  0.0881 -0.3004 -0.1344
13679W        W33959  18.783  14.010   2.203 -0.0295 -0.2341 -0.0464
13680W        W33960   4.491  15.356  13.603 -0.0350  0.3819 -0.0622
13681W        W33961  15.443  15.985  10.083  0.0910  0.0937 -0.0041
13682W        W33962  14.438  12.503   2.483  0.2503  0.2142 -0.0252
13683W        W33963  18.295  17.217  11.962 -0.0459 -0.0440  0.1862
13684W        W33964   4.160  12.887   2.766  0.2602 -0.3002 -0.3396
13685W        W33965   6.344   0.428   1.230  0.0664 -0.0336 -0.2327
13686W        W33966   1.518  16.014   3.220  0.0555 -0.1244  0.0030
13687W        W33967   5.640   7.347   1.481  0.2130 -0.1539 -0.0797
13688W        W33968   7.053  15.540   3.504  0.1851  0.1599  0.0316
13689W        W33969   8.385   6.943   3.929 -0.2301 -0.0490 -0.4906
13690W        W33970  15.759  19.194  11.177 -0.0155  0.0289 -0.2496
13691W        W33971   6.424   9.026  13.294 -0.0821 -0.2964  0.0307
13692W        W33972   6.478   0.784   2.195  0.0527  0.0787 -0.0906
13693W        W33973  19.785   1.382   2.424 -0.3551 -0.5156 -0.0851
13694W        W33974   0.766   5.697  13.775 -0.1629 -0.0545 -0.0208
13695W        W33975  13.102  12.365   1.781 -0.0583  0.1660 -0.0205
13696W        W33976   3.126  19.848  12.272 -0.2169  0.0154  0.2423
13697W        W33977  11.800  11.022  13.528 -0.0413 -0.2720 -0.0386
13698W        W33978  13.553  18.355  13.123  0.1497 -0.2186 -0.1233
13699W        W33979   1.423   1.574  10.559 -0.0604  0.1392 -0.3132
13700W        W33980  10.512  12.431   3.797 -0.4199  0.0161 -0.4503
13701W        W33981  13.019  13.058  13.207  0.2216 -0.0096  0.0681
13702W        W33982  10.776   3.960  12.064  0.1847  0.2083  0.0385
13703W        W33983   7.134  12.235  10.937 -0.0412  0.0336  0.0348
13704W        W33984  18.387   3.605  12.628  0.1123 -0.0428  0.3485
13705W        W33985  10.588  18.632   2.012 -0.0687 -0.0155 -0.1714
13706W        W33986   1.115  11.584   9.354  0.1991 -0.1844 -0.1625
13707W        W33987   1.378   8.403   0.352  0.2820  0.3419 -0.0263
13708W        W33988   3.337  10.048  13.135 -0.0157 -0.0447 -0.0078
13709W        W33989  15.249  17.135  13.000  0.0203  0.0325  0.2260
13710W        W33990  18.002   3.818  10.889  0.0902  0.1003 -0.0805
13711W        W33991  14.936  14.376  12.418  0.4079  0.1798  0.2656
13712W        W33992  17.729   1.478   2.947 -0.1434  0.0362 -0.1594
13713W        W33993   1.041   4.999  11.117  0.0019  0.2418  0.2531
13714W        W33994   9.324  14.561   1.229  0.0610 -0.0641  0.2465
13715W        W33995  12.989   8.175  10.643  0.4229 -0.1045  0.0789
13716W        W33996  14.923  14.577  11.364  0.2272  0.0263 -0.1115
13717W        W33997  17.935   0.011  12.552 -0.2238  0.0194 -0.1546
13718W        W33998   9.579  13.621   4.316 -0.1216 -0.1496 -0.0661
13719W        W33999  19.597  18.202   2.910  0.2438  0.0938  0.4233
13720W        W34000   9.676   7.710   0.926 -0.0236 -0.1447 -0.1917
13721W        W34001   9.164   3.900  11.988  0.1617  0.1987 -0.5906
13722W        W34002  15.301  15.284  10.468 -0.2305 -0.0593  0.1067
13723W        W34003   1.706  10.607   0.684 -0.1141 -0.0801  0.1574
13724W        W34004  13.663   2.447  11.132 -0.0812  0.1313 -0.0963
13725W        W34005  12.189  15.018   1.438  0.3045  0.0968  0.2492
13726W        W34006  10.708   1.611  10.292  0.1379  0.2037  0.2256
13727W        W34007  18.308  11.209   8.726  0.1644  0.1316  0.1301
13728W        W34008  18.101   3.467   2.765  0.2253  0.1595 -0.3810
13729W        W34009   7.500   4.316  12.550 -0.2437  0.0601 -0.1559
13730W        W34010   7.592   5.698   2.581 -0.1515 -0.1797  0.5433
13731W        W34011   5.016  19.329  12.094  0.0464 -0.0649  0.3327
13732W        W34012  10.702  10.293  12.823  0.4332  0.0710  0.0971
13733W        W34013  17.518   0.009   9.083  0.3961 -0.4149 -0.1680
13734W        W34014  19.801   1.001   2.904 -0.2112  0.1651 -0.0644
13735W        W34015   6.682   8.014  12.790 -0.5395 -0.1187  0.0544
13736W        W34016  18.113   3.150   1.345 -0.3632  0.3619 -0.0434
13737W        W34017   9.524  15.007   1.507 -0.3580  0.2364 -0.0435
13738W        W34018   8.809   8.677  13.334 -0.1137 -0.3998  0.0473
13739W        W34019  15.754   4.630  13.808  0.0960  0.3040  0.0244
13740W        W34020  10.979   8.571  12.229 -0.1130 -0.3942 -0.0478
13741W        W34021   3.027   9.671  12.199  0.0095 -0.3199 -0.1207
13742W        W34022  14.322  19.682   0.101  0.2121 -0.2698 -0.1892
13743W        W34023   8.024   5.711   9.933 -0.0692 -0.0221  0.0113
13744W        W34024  18.853   9.020  11.075  0.0464  0.2832  0.1830
13745W        W34025  14.111  14.640  11.188  0.1804  0.0370  0.1860
13746W        W34026   0.399  14.495   2.347  0.2202  0.1803 -0.2261
13747W        W34027   8.064  17.818  11.618 -0.2092 -0.3061 -0.1320
13748W        W34028   5.661   3.740  11.904  0.0103 -0.3144  0.0514
13749W        W34029   5.648   8.508  12.078 -0.0201  0.0311  0.2261
13750W        W34030  12.157   6.563  11.841 -0.2282 -0.0516 -0.1999
13751W        W34031  11.053   8.438  10.508 -0.1509 -0.0634 -0.1807
13752W        W34032  11.339  10.269   0.429  0.3734 -0.1248 -0.0036
13753W        W34033  18.446   7.311   1.486 -0.0871  0.1679  0.4032
13754W        W34034  19.885  10.451  13.049  0.3031  0.0189  0.0279
13755W        W34035  11.461  19.623   2.353 -0.1037 -0.0507  0.2577
13756W        W34036  10.326   1.952   9.965 -0.3057 -0.0682  0.1729
13757W        W34037  17.993   1.896   0.409  0.0999 -0.0447 -0.1216
13758W        W34038   8.745   1.988  12.337 -0.0878  0.0157 -0.0451
13759W        W34039  15.974  13.607   2.570  0.1787 -0.0557 -0.0396
13760W        W34040  11.531   0.703   1.549  0.0763  0.1024  0.0383
13761W        W34041   9.487   0.793   2.338  0.2366  0.0239  0.2649
13762W        W34042   9.783   6.646  12.296 -0.1420 -0.1145 -0.0651
13763W        W34043  10.169  11.134  13.453  0.0186 -0.0127  0.1743
13764W        W34044   4.496  13.170  13.111  0.0484  0.1708 -0.1898
13765W        W34045   3.061  17.452   0.026 -0.0810  0.1387 -0.2972
13766W        W34046  19.094  12.702  12.989 -0.1170 -0.1053 -0.2189
13767W        W34047  16.518  10.220   1.682 -0.2989  0.2055  0.2615
13768W        W34048  18.440  13.054  13.096 -0.0251 -0.4406  0.2978
13769W        W34049   4.275   0.907   2.385 -0.0766  0.1416  0.0581
13770W        W34050  11.390  14.988   0.205  0.0649 -0.1152 -0.1481
13771W        W34051   6.541  12.316   2.976  0.0150 -0.0424  0.0124
13772W        W34052  13.286  16.441   0.006 -0.1066  0.1668 -0.1377
13773W        W34053   9.336  18.858  10.104 -0.0057 -0.0056 -0.2790
13774W        W34054  15.465   6.090  11.251 -0.0401 -0.1295  0.4317
13775W        W34055   4.848   9.661  10.929  0.2072 -0.2085 -0.0837
13776W        W34056  14.508   3.125   3.669  0.3285  0.0772 -0.0107
13777W        W34057  17.752   1.290   2.488  0.0070  0.0562  0.3992
13778W        W34058   4.393   0.212  12.360 -0.0624  0.1257  0.0421
13779W        W34059  13.395   6.246   1.797 -0.2508 -0.0020 -0.0836
13780W        W34060  15.106   6.400  11.531  0.2690 -0.0383  0.0631
13781W        W34061  19.634  10.042  13.380  0.2478 -0.1874 -0.0795
13782W        W34062  15.131  11.461  12.531 -0.1421 -0.1595  0.1283
13783W        W34063   4.599  11.231  12.432 -0.2393 -0.1151  0.0688
13784W        W34064  11.649   1.543  11.445 -0.1539 -0.1210 -0.3571
13785W        W34065   8.738   9.641   0.910 -0.1246  0.3472  0.0681
13786W        W34066   2.492   9.313   1.590 -0.1492  0.0203 -0.0595
13787W        W34067   8.491   9.020   3.610  0.2805  0.0130  0.0911
13788W        W34068  18.628  14.612  12.252  0.0081  0.2877 -0.2168
13789W        W34069   1.810  19.379  11.272  0.1059 -0.1520 -0.0271
13790W        W34070  19.305  15.604  13.050  0.4706  0.0874 -0.0001
13791W        W34071  15.563  13.999  13.720 -0.0753  0.1264  0.1137
13792W        W34072   1.359  10.133   2.664  0.1552 -0.0831 -0.1275
13793W        W34073  12.934  18.298  11.618 -0.0806 -0.2517 -0.0583
13794W        W34074  12.160   4.210  13.004  0.1970 -0.1382  0.0208
13795W        W34075   0.761   5.160  13.807  0.2408  0.1496 -0.0020
13796W        W34076   4.363   7.902  13.429  0.0759 -0.4307 -0.4082
13797W        W34077   7.077  11.074  11.239  0.0505 -0.2172  0.0748
13798W        W34078  16.240  13.636   1.696 -0.2486  0.0691 -0.1853
13799W        W34079  17.482   8.613   3.679  0.0395  0.0339  0.0541
13800W        W34080  16.023  12.060   0.227 -0.4318 -0.1026  0.2035
13801W        W34081  13.976   5.244   0.601 -0.0191 -0.0417 -0.2223
13802W        W34082   4.988  16.741   4.317 -0.0491  0.1500  0.1309
13803W        W34083   1.378   5.293  11.767  0.0088 -0.0374  0.1409
13804W        W34084   5.438   4.339  13.087 -0.2525 -0.0459 -0.0110
13805W        W34085   9.357  15.562   3.480  0.1980 -0.0630  0.0713
13806W        W34086   6.175   6.660  12.175  0.1276 -0.0358 -0.1624
13807W        W34087   0.872   2.440   1.336 -0.0081  0.2527  0.0792
13808W        W34088  13.166  12.996   2.434  0.0191  0.2024  0.1914
13809W        W34089   7.825   4.671  10.357 -0.2259  0.1574  0.0009
13810W        W34090  13.468   5.120  13.379  0.0708  0.0893 -0.1499
13811W        W34091  15.071  15.892  12.021  0.2368  0.2146  0.3606
13812W        W34092   4.230   4.003  10.505  0.0914 -0.4715 -0.1526
13813W        W34093  13.878  19.016   0.094 -0.1546 -0.2392  0.0750
13814W        W34094  15.206   7.735  12.232 -0.1932 -0.2244  0.0089
13815W        W34095   2.113   5.016   0.120 -0.0841  0.1915 -0.1266
13816W        W34096  15.425  11.766   0.797  0.3055 -0.1898 -0.2363
13817W        W34097   6.736   0.937   3.356 -0.0112  0.0852  0.0321
13818W        W34098   9.968  19.545   0.332 -0.2281 -0.2818  0.2195
13819W        W34099  10.492   9.708  13.627 -0.1983  0.0638 -0.3376
13820W        W34100   4.364  16.788  11.486  0.2234 -0.1100 -0.3083
13821W        W34101  11.542  19.550  10.133 -0.2091 -0.0695  0.1391
13822W        W34102  16.999   0.441  12.766 -0.0608 -0.0695 -0.0889
13823W        W34103  18.917   6.438   4.673 -0.1933  0.0889 -0.0552
13824W        W34104  16.617  11.814   1.741  0.4133 -0.1126  0.0313
13825W        W34105  17.169   3.267   3.268 -0.2519 -0.1550  0.0340
13826W        W34106  14.728  18.387   2.483 -0.1810 -0.2325 -0.2287
13827W        W34107  17.357   6.626   2.272 -0.2355 -0.1559  0.1008
13828W        W34108   9.109  19.642   1.729 -0.0504 -0.1887  0.1859
13829W        W34109   2.968  10.821   3.796 -0.1614 -0.5295  0.2608
13830W        W34110  19.392  15.032   1.561  0.1601  0.2123  0.0502
13831W        W34111   1.131   1.044   9.617 -0.0157  0.1466 -0.1262
13832W        W34112  12.299   2.022   9.519 -0.2548 -0.0021  0.2846
13833W        W34113  19.777  13.613   3.405  0.0741 -0.2463  0.1053
13834W        W34114   0.003   4.153  11.419  0.2314 -0.4522 -0.0678
13835W        W34115   4.070   4.354  11.579 -0.1362 -0.1259  0.2517
13836W        W34116   7.478   1.578   9.041  0.1170 -0.1264  0.2260
13837W        W34117   3.787  16.123   1.697  0.2540  0.2838  0.3350
13838W        W34118  16.077  17.468  12.106 -0.3822  0.2154  0.1270
13839W        W34119  11.320   8.884   1.901 -0.2861  0.2336 -0.2457
13840W        W34120   3.727   0.427   3.092 -0.0568  0.0309  0.1464
13841W        W34121   7.452  11.461   0.969 -0.1962  0.0974 -0.2701
13842W        W34122  15.836   7.945  12.875  0.3754 -0.1171  0.1991
13843W        W34123   5.338   8.342  11.626 -0.3576 -0.2013 -0.0610
13844W        W34124   1.043  14.836  11.569 -0.0030  0.0642 -0.1309
13845W        W34125   9.154  10.180   2.605  0.1074  0.2564  0.1490
13846W        W34126  11.060   0.847   2.214 -0.0291 -0.2993 -0.2888
13847W        W34127   6.999  16.974   1.782  0.2528  0.0724 -0.2124
13848W        W34128  14.308   8.171  13.767  0.0967 -0.1393 -0.3493
13849W        W34129   7.915  11.718   0.278 -0.3142  0.2664 -0.0994
13850W        W34130  19.869  10.141   3.811 -0.0344 -0.1624 -0.0020
13851W        W34131   1.339   0.186  13.298  0.2914 -0.2620 -0.0028
13852W        W34132  19.191  16.686  12.066 -0.1457 -0.4008 -0.0490
13853W        W34133   1.919   1.231   0.553 -0.0619  0.0404 -0.3099
13854W        W34134   0.128   7.498   0.998 -0.6371 -0.1580 -0.1131
13855W        W34135  14.673   2.381   3.008 -0.0528 -0.0518  0.0682
13856W        W34136  15.231   0.122   2.696  0.0883  0.0546 -0.0368
13857W        W34137  12.581  18.564  10.213 -0.0983  0.0305  0.2088
13858W        W34138   2.070  12.954  10.629  0.2143  0.2540 -0.3075
13859W        W34139   3.440   9.248   4.160 -0.1265  0.1187 -0.2613
13860W        W34140  13.997  17.725   0.946  0.0860  0.0670  0.0631
13861W        W34141   8.982   9.389   2.169  0.2823  0.0026 -0.0235
13862W        W34142   4.717  12.187  10.107  0.0984 -0.0140 -0.3040
13863W        W34143  14.059   2.845   0.759  0.2666  0.3208 -0.2050
13864W        W34144   0.307   3.134   1.337 -0.1844 -0.0487 -0.0920
13865W        W34145   3.977  13.099  13.397 -0.0758 -0.1262  0.0868
13866W        W34146  18.067  19.917   1.275  0.5937 -0.2216 -0.0184
13867W        W34147   8.120   6.742  12.649 -0.0472  0.0490 -0.3308
13868W        W34148   1.662  15.477  13.196  0.3473 -0.0478  0.2111
13869W        W34149  11.385  17.268   1.481  0.0501  0.2668  0.0708
13870W        W34150   6.653   7.385  13.204 -0.0644 -0.1170 -0.0284
13871W        W34151  16.353  18.352   0.456 -0.0514 -0.1692 -0.0726
13872W        W34152  12.034  11.910  13.040  0.2552 -0.0308  0.0674
13873W        W34153  12.074   4.826   1.328  0.1521 -0.2016 -0.1576
13874W        W34154  12.900  17.918  13.692  0.0354 -0.0878  0.0401
13875W        W34155  15.151   0.261   3.200 -0.1621 -0.3542 -0.2918
13876W        W34156   7.560  14.093  11.603 -0.0391 -0.1871 -0.0783
13877W        W34157   5.541  13.054  12.109 -0.3104  0.3284 -0.0240
13878W        W34158  16.492   4.299   3.327  0.2125 -0.1108 -0.0489
13879W        W34159  11.449  16.582   4.566  0.2952 -0.1001  0.2296
13880W        W34160  10.522   0.673  10.496 -0.2919  0.2693  0.0525
13881W        W34161  17.229   0.790  10.926  0.2172  0.0415  0.0317
13882W        W34162  19.019  17.613  10.670  0.1345 -0.2563  0.1843
13883W        W34163   8.272   9.531   5.437  0.0325  0.1715  0.0347
13884W        W34164  16.226   8.624   1.200  0.0064 -0.1252  0.0542
13885W        W34165  19.929  13.938   3.034  0.1901 -0.1896 -0.0554
13886W        W34166   0.956  16.102  13.259  0.0881 -0.0730 -0.2114
13887W        W34167  12.997   9.988   1.167 -0.0427  0.1113 -0.3175
13888W        W34168  14.292   6.447   1.478 -0.2293  0.0558  0.2328
13889W        W34169  12.380  12.941   3.016  0.2212 -0.0807  0.0763
13890W        W34170  10.028  19.728   0.769 -0.3994  0.2889  0.0654
13891W        W34171  11.492  13.649  10.766  0.0984  0.0473 -0.1924
13892W        W34172  10.941  14.647  12.789 -0.0015  0.1969  0.1381
13893W        W34173  17.377  19.047  11.806 -0.1656  0.1474 -0.0587
13894W        W34174   7.110   8.768   0.366 -0.0677 -0.3834 -0.0343
13895W        W34175   0.174  15.474   1.905  0.0675 -0.0129  0.1571
13896W        W34176   1.938  10.555  13.675 -0.2203  0.2089  0.1776
13897W        W34177  18.749  13.261   9.423 -0.0847  0.1001 -0.0367
13898W        W34178   4.990  11.029   2.529  0.0354 -0.0962  0.1864
13899W        W34179   6.157  11.371   3.367 -0.1637 -0.2310 -0.0075
13900W        W34180   8.908  16.368   2.824 -0.3200 -0.0103 -0.0338
13901W        W34181  13.075  18.386   2.614  0.2223  0.0437  0.0261
13902W        W34182  12.500  15.255   9.904  0.3637 -0.0116 -0.1085
13903W        W34183   2.556  16.897   0.346 -0.1753 -0.2405 -0.2155
13904W        W34184   2.502   4.888  12.956 -0.1430 -0.1800 -0.0765
13905W        W34185  17.692   8.361   1.510  0.2560 -0.1228 -0.0820
13906W        W34186  12.197   2.983   3.179 -0.1550  0.1651  0.3001
13907W        W34187  17.024  11.885   2.125 -0.3213 -0.2413 -0.0294
13908W        W34188  10.854   4.616   4.984  0.0154  0.1732 -0.1064
13909W        W34189   0.695  13.250   1.753  0.0638 -0.1195  0.3666
13910W        W34190  19.446   1.118  10.011 -0.0927 -0.5093 -0.1212
13911W        W34191   5.697  13.341   4.294  0.3988  0.1987  0.1892
13912W        W34192  11.856   5.140   0.591  0.2631 -0.1666 -0.2804
13913W        W34193  13.387  18.743  13.651  0.1805 -0.0744 -0.0397
13914W        W34194   4.573  10.727   4.574 -0.0645 -0.1709  0.1183
13915W        W34195   0.122  16.161  12.214  0.2476 -0.1726  0.2600
13916W        W34196  11.671  15.458   2.858 -0.0150  0.1901  0.0421
13917W        W34197  11.345  13.376  11.284  0.1634  0.2010  0.0176
13918W        W34198   1.932  18.491   3.277 -0.1514  0.1436 -0.3088
13919W        W34199  14.000  12.090   1.053  0.2449 -0.1952 -0.1231
13920W        W34200  13.491  14.545   0.325  0.1712 -0.0671  0.2447
13921W        W34201   2.516   5.547   2.648  0.1203 -0.0541  0.1386
13922W        W34202   0.470   3.922  11.360 -0.1361  0.4289  0.2970
13923W        W34203   0.489  15.367  13.187 -0.0861 -0.0820  0.2065
13924W        W34204  14.447   5.458   2.875  0.1753  0.0004 -0.2711
13925W        W34205   9.205   4.490  13.254 -0.1042  0.0100  0.3465
13926W        W34206  11.395   8.629   3.336 -0.3213 -0.2571  0.1346
13927W        W34207  15.562  10.292   0.963  0.3361  0.0934 -0.2226
13928W        W34208   3.830  15.435   4.155 -0.2007  0.0438 -0.0633
13929W        W34209   6.275  15.847  12.267 -0.0117 -0.0065 -0.0335
13930W        W34210  16.963  14.413   4.271 -0.0011 -0.2555 -0.1347
13931W        W34211   4.867  10.229   9.790  0.1520  0.2982  0.1785
13932W        W34212  14.542   6.458   1.078 -0.1152  0.1141  0.1397
13933W        W34213  10.507  17.891  13.307  0.0876 -0.1156 -0.0670
13934W        W34214   2.646  11.391  10.762  0.0992  0.0849 -0.1507
13935W        W34215  12.821   6.460   2.884  0.2313  0.0641 -0.1953
13936W        W34216   9.106   1.054   2.424  0.3515 -0.0658 -0.1704
13937W        W34217   9.824  11.458  12.123  0.1420 -0.0071 -0.0947
13938W        W34218  13.686  10.652  10.779 -0.1955 -0.1030 -0.0318
13939W        W34219  11.181   3.170  10.802 -0.1042  0.0768 -0.0995
13940W        W34220   6.543  14.218   2.370 -0.2304 -0.2418  0.2212
13941W        W34221   6.827   2.950  13.828  0.0094 -0.1037 -0.2504
13942W        W34222   8.751   6.825  12.516 -0.0254 -0.1777  0.0103
13943W        W34223   4.503   8.889  12.529  0.3913  0.0182 -0.3169
13944W        W34224   9.490  16.997   1.738 -0.2107 -0.0701  0.1282
13945W        W34225   4.741   3.294   2.569 -0.1250 -0.1460 -0.0518
13946W        W34226  13.406  19.407  13.183 -0.0087  0.1156 -0.0307
13947W        W34227  15.124   5.393   0.410 -0.0481  0.0362 -0.0488
13948W        W34228   8.851  14.733   2.628 -0.0241 -0.2542 -0.0161
13949W        W34229  18.985  19.429   0.577 -0.2002  0.2210  0.0269
13950W        W34230   1.442   5.098  10.464 -0.0208 -0.2145  0.0212
13951W        W34231   6.671  12.300   1.561 -0.3337 -0.0359  0.0932
13952W        W34232  14.002  17.774  11.667 -0.2452 -0.1183 -0.1586
13953W        W34233   6.603  17.539  11.233 -0.0719  0.0516  0.2377
13954W        W34234  10.083  19.101   9.743  0.2476 -0.2584  0.0863
13955W        W34235   2.445   8.824   2.918  0.0262 -0.0663  0.0984
13956W        W34236  16.542  12.173   2.989 -0.0461  0.0777  0.1866
13957W        W34237   9.565   2.477  13.402 -0.0834 -0.0729  0.2611
13958W        W34238  17.313   3.663   0.633 -0.3817  0.0587  0.1328
13959W        W34239   0.011  11.710   1.465 -0.1123 -0.1329 -0.6310
13960W        W34240  15.866   3.194  11.612 -0.1074 -0.0336 -0.0909
13961W        W34241  11.370  13.918   1.851 -0.1938  0.3567 -0.0550
13962W        W34242   0.601  15.045   0.116  0.0089 -0.2046 -0.0191
13963W        W34243   2.998  18.716  10.738 -0.1898  0.0283  0.2566
13964W        W34244  12.748  19.544   3.426 -0.1494  0.1201  0.0586
13965W        W34245  18.049  14.159  10.401  0.1885  0.1921  0.1678
13966W        W34246   7.850   3.649  12.653 -0.1237 -0.0984 -0.1359
13967W        W34247  19.742  16.139   9.944  0.1053  0.0048  0.2048
13968W        W34248  13.987  14.510   9.632  0.2110 -0.2514 -0.1394
13969W        W34249  11.202  13.041  12.174 -0.0058  0.1725 -0.3007
13970W        W34250   2.663   8.498  12.281 -0.4628 -0.0502  0.2333
13971W        W34251  10.954  13.560   5.349 -0.0110  0.2179 -0.0779
13972W        W34252   4.431  19.175   2.553 -0.3478 -0.2363  0.2664
13973W        W34253  14.134   3.609  13.632  0.5637 -0.3437 -0.1811
13974W        W34254   5.389  14.080   2.234 -0.2567  0.0015 -0.0162
13975W        W34255   4.082   0.779   4.232  0.2402  0.1313 -0.0752
13976W        W34256  11.200  14.419  13.189 -0.0008 -0.0180  0.0861
13977W        W34257  18.250   2.397   2.689  0.0832  0.1433  0.3409
13978W        W34258   1.791   2.218   0.126  0.3371  0.0796  0.1368
13979W        W34259  12.547  17.028   1.231  0.2228 -0.1958  0.2059
13980W        W34260   7.799   6.295  13.344  0.1124  0.1613  0.0122
13981W        W34261  12.061  14.796   9.303  0.1126 -0.0819 -0.1875
13982W        W34262  19.706   6.953  11.738  0.0499 -0.1794 -0.3954
13983W        W34263  10.413  15.657  10.699  0.0583 -0.1738 -0.2526
13984W        W34264  13.771  10.291   0.009 -0.2016 -0.1953  0.0973
13985W        W34265  15.804   7.821   1.148 -0.2627  0.0300  0.2328
13986W        W34266  16.270   7.822  13.115  0.1913  0.2487  0.3378
13987W        W34267   6.853  11.169  13.391 -0.1619 -0.0511  0.1723
13988W        W34268  12.181   3.671  11.807  0.0278  0.1449 -0.0722
13989W        W34269  19.025   2.227  10.901  0.1046 -0.2535  0.2537
13990W        W34270   9.233  14.019   0.006 -0.0318 -0.0482 -0.0769
13991W        W34271  13.317  11.217  12.807  0.3252  0.1952  0.1844
13992W        W34272   3.225  18.847   1.314 -0.1864 -0.0609 -0.2846
13993W        W34273   3.698  13.635  12.966  0.0184 -0.0801 -0.1289
13994W        W34274   2.881   8.490   1.692 -0.0573  0.2277  0.0551
13995W        W34275  19.158  18.240   2.134 -0.1425 -0.3132  0.0184
13996W        W34276   3.652  19.954   0.638 -0.1089  0.0096  0.0812
13997W        W34277   6.761   1.948  13.367 -0.3032  0.1205  0.2738
13998W        W34278  11.161   5.109  10.611  0.1117  0.1187 -0.1138
13999W        W34279  19.827   9.227   1.114  0.0039 -0.0909 -0.0758
14000W        W34280   5.679  12.765   1.944 -0.1263  0.0434  0.1385
14001W        W34281  19.308  14.069  13.437 -0.0615 -0.1639  0.1577
14002W        W34282  14.490  10.754  13.367  0.0523  0.1638 -0.2408
14003W        W34283   5.984   7.814   1.287  0.1418 -0.1944 -0.1140
14004W        W34284   0.128   9.143  10.233  0.0539  0.1405  0.3007
14005W        W34285  16.906   3.703   0.870  0.0994 -0.0167  0.1366
14006W        W34286   3.538  14.805   2.696 -0.0885 -0.1006 -0.1699
14007W        W34287   6.363   8.801  12.251 -0.0255 -0.0471 -0.0597
14008W        W34288   6.377  11.175   0.082  0.2973 -0.2260 -0.0966
14009W        W34289   9.261  10.785   4.052  0.2884 -0.0917 -0.1962
14010W        W34290  12.364   3.406   0.795  0.1513  0.1642  0.1776
14011W        W34291   6.159   6.697   3.878 -0.1524  0.1983  0.0299
14012W        W34292  12.196   8.903  11.712 -0.0068  0.0341 -0.0529
14013W        W34293   9.781  15.252  12.444 -0.1027 -0.1856 -0.1896
14014W        W34294  14.605   0.744  11.408  0.1673 -0.1220  0.0076
14015W        W34295   0.314  19.782   3.734  0.1232  0.3589  0.0143
14016W        W34296  19.156   6.296  10.170 -0.4064 -0.1918 -0.2803
14017W        W34297  13.413  19.941  13.088 -0.1099  0.0153  0.1693
14018W        W34298   0.521   8.943   3.398  0.0789 -0.0053  0.0677
14019W        W34299   4.128   9.226  11.293  0.1050 -0.1674  0.0842
14020W        W34300   2.931  14.283   0.201 -0.0628  0.0561  0.1718
14021W        W34301   5.303  19.055   1.755 -0.0377 -0.0061 -0.2481
14022W        W34302  12.016   3.237   1.098 -0.3921 -0.1435 -0.0401
14023W        W34303  12.208   1.362   9.722 -0.0492  0.1513 -0.3702
14024W        W34304  14.638  16.639  12.983 -0.0549  0.2595  0.3620
14025W        W34305   8.263   0.604   1.294 -0.1742 -0.0234  0.1728
14026W        W34306   2.681   9.479  13.624  0.0216 -0.1475 -0.2788
14027W        W34307  11.104  14.044  10.665 -0.2362  0.1626  0.3185
14028W        W34308   5.199   8.397   3.376  0.1043 -0.0096  0.1365
14029W        W34309   3.798  16.016  13.700 -0.4068  0.0040 -0.0752
14030W        W34310  16.937  11.010   1.389 -0.1168  0.0184  0.0650
14031W        W34311   2.758  17.962   9.318  0.1613 -0.1776 -0.1858
14032W        W34312   4.525   8.749   2.441 -0.1018 -0.0369  0.0057
14033W        W34313  16.186  10.604  12.762 -0.1744 -0.3041  0.1330
14034W        W34314  18.361   6.148  10.871  0.2083 -0.0612  0.1553
14035W        W34315   8.471  11.376  12.655  0.1677  0.1468 -0.0583
14036W        W34316  10.752  10.054   1.444 -0.2189 -0.1482 -0.0715
14037W        W34317   6.725  13.095  10.858 -0.3062  0.1242  0.1058
14038W        W34318   9.844  14.818   1.905  0.1107 -0.2648 -0.0452
14039W        W34319   9.061  15.563   2.991 -0.1357  0.1698 -0.0659
14040W        W34320   3.791   3.065   1.574  0.1211 -0.1062  0.0791
14041W        W34321  14.431   6.998  11.796  0.5000 -0.3142 -0.3255
14042W        W34322  17.175   3.491   2.203  0.2565  0.1216 -0.3839
14043W        W34323  14.259  16.509  12.031  0.0842  0.3983 -0.0661
14044W        W34324  19.556  14.056   1.841  0.0304  0.1852  0.0974
14045W        W34325  11.544  14.824   3.828  0.1572  0.0388 -0.0297
14046W        W34326   3.281   3.446   3.582 -0.1057  0.0515 -0.0616
14047W        W34327  14.666   8.525  10.908 -0.0737 -0.0370  0.1450
14048W        W34328  17.248   1.988  13.063  0.3242  0.0564 -0.1593
14049W        W34329   9.302   3.604  12.897  0.3578  0.0703  0.0254
14050W        W34330   1.437  10.570   2.093 -0.0217 -0.1744  0.0372
14051W        W34331  15.000  15.367  12.142 -0.0215  0.2327 -0.0008
14052W        W34332   4.727  12.447  10.658 -0.0204  0.0525  0.0866
14053W        W34333   4.860   3.731   3.317 -0.1052 -0.1747  0.3447
14054W        W34334  16.173   7.506   1.157 -0.1187  0.0807  0.2323
14055W        W34335   3.108  19.702  10.594  0.1188 -0.5227  0.0983
14056W        W34336   5.821   7.583  13.363  0.2564 -0.0428 -0.2984
14057W        W34337   7.989  18.863  10.508  0.0886  0.0747 -0.0690
14058W        W34338   8.036  12.903  10.160 -0.0530  0.4999 -0.2538
14059W        W34339  11.196  17.541  10.759  0.0323  0.2667 -0.0268
14060W        W34340  12.597   0.342   0.042  0.0220  0.1358  0.2164
14061W        W34341  13.078  15.382  13.110  0.0651 -0.2255 -0.1667
14062W        W34342   6.659  10.463   3.945  0.0869 -0.1007 -0.0549
14063W        W34343  18.997  16.544   0.326  0.1729  0.0086 -0.2367
14064W        W34344  11.470   2.307   3.589 -0.2942  0.3984  0.0294
14065W        W34345  17.488   7.407   2.704 -0.1505  0.0801  0.2474
14066W        W34346   8.256   3.087   1.912  0.1188  0.1830 -0.1888
14067W        W34347  10.896  14.873  10.495 -0.1015 -0.1174 -0.1568
14068W        W34348   2.281   4.440  11.191  0.1209 -0.0984  0.0534
14069W        W34349  14.393   5.075   3.382 -0.0382  0.1314  0.0327
14070W        W34350   1.205  19.887   0.189 -0.0241  0.0131  0.4479
14071W        W34351   8.828   5.641  12.656 -0.1666 -0.3080  0.2143
14072W        W34352   9.115   3.740   2.118  0.2722  0.0076  0.2978
14073W        W34353  10.760  12.789   2.848 -0.1833  0.1367 -0.0018
14074W        W34354   6.941  10.545   1.643 -0.0700  0.3312  0.2034
14075W        W34355   4.227   3.775   0.334  0.0069 -0.0546 -0.1708
14076W        W34356  12.377  18.906   0.966  0.0169 -0.1999 -0.0281
14077W        W34357  18.999  14.220  12.133  0.1485 -0.1841 -0.0919
14078W        W34358  11.825   1.510   2.105 -0.1302 -0.0807  0.1699
14079W        W34359   1.039  13.573   1.893 -0.0257  0.0967 -0.1619
14080W        W34360   7.434   9.442  10.501  0.1952 -0.0260 -0.2167
14081W        W34361  13.257  16.785  12.743  0.4179  0.0067 -0.0951
14082W        W34362  10.930   6.685   2.574 -0.2294  0.0437 -0.1753
14083W        W34363   1.519   8.064   2.459 -0.2928 -0.2735  0.1862
14084W        W34364   0.882   3.172   9.838  0.1169  0.2513  0.1269
14085W        W34365  10.875  18.223  11.203 -0.0575  0.0077 -0.0752
14086W        W34366  18.698   2.994  10.947  0.2217  0.0231 -0.0397
14087W        W34367   2.649  16.571   3.185  0.1168  0.0300 -0.0414
14088W        W34368  16.699   8.136   3.170 -0.1737  0.1853  0.2410
14089W        W34369   8.250   0.759   2.185 -0.2694  0.1359 -0.0726
14090W        W34370   8.536  19.248   3.808  0.0355 -0.1314  0.3235
14091W        W34371  15.114   8.609  11.180  0.1040 -0.2310 -0.0353
14092W        W34372   3.477   3.472   0.155  0.1768 -0.0784 -0.4516
14093W        W34373  16.733   3.109   3.315 -0.3563 -0.0040 -0.0723
14094W        W34374   4.171  10.293   1.477  0.1471 -0.1667  0.0440
14095W        W34375   1.263  19.297   2.957  0.1216  0.2437 -0.1246
14096W        W34376   6.623  12.003  10.713  0.1407 -0.0499 -0.1641
14097W        W34377   7.602   8.632   2.309 -0.0556 -0.1188 -0.1659
14098W        W34378   7.358  13.606   3.490 -0.4155  0.1131 -0.4096
14099W        W34379   9.332  12.333   0.982 -0.3235  0.1533 -0.2069
14100W        W34380  18.755   6.974  13.466  0.2062 -0.2043 -0.0023
14101W        W34381  16.567  17.932   2.257 -0.0805 -0.0170  0.0036
14102W        W34382   2.825  13.929  10.520  0.0141  0.1437 -0.3711
14103W        W34383  11.933  10.402   0.817  0.3733 -0.2353  0.2099
14104W        W34384   6.822   2.854  13.215  0.1271 -0.0072  0.4043
14105W        W34385  13.794  12.695   3.118  0.2093  0.4061 -0.0322
14106W        W34386   8.678   3.211   2.912  0.3943 -0.3011 -0.0028
14107W        W34387   6.034  15.595  11.427 -0.1265 -0.1489 -0.0616
14108W        W34388  14.928   9.281   2.202  0.0516  0.3005 -0.1624
14109W        W34389   0.562   7.679   3.612 -0.1243  0.1724 -0.2539
14110W        W34390  10.605   9.257   0.604 -0.1610 -0.3285 -0.0932
14111W        W34391  14.186  13.431   2.773  0.2920 -0.1474  0.0963
14112W        W34392   7.235   5.384  11.546  0.0374  0.1595 -0.1441
14113W        W34393  12.522  11.101   1.622 -0.2592  0.3008 -0.0707
14114W        W34394   2.937  19.211  11.929 -0.1487  0.1186 -0.5236
14115W        W34395   8.701  14.532   5.157  0.0598 -0.3717 -0.0321
14116W        W34396   1.285   6.720   1.837 -0.0057 -0.2159 -0.1485
14117W        W34397   3.475  15.516  11.002 -0.2453 -0.1972  0.1630
14118W        W34398  13.559  18.248  12.592 -0.0802  0.3207 -0.0405
14119W        W34399  10.138   1.985  10.424 -0.3409  0.1450  0.0385
14120W        W34400  12.342  16.396  11.562  0.2059  0.1396 -0.1470
14121W        W34401   7.659   1.161  11.246  0.2476  0.4279 -0.1853
14122W        W34402   3.166   1.642   3.713 -0.3010  0.1199 -0.1189
14123W        W34403   9.526  11.059  13.342 -0.1092 -0.1305  0.1144
14124W        W34404  13.123  18.005   0.308 -0.0491  0.1669 -0.0137
14125W        W34405  19.922   0.071   3.473  0.0945 -0.2532  0.1982
14126W        W34406   4.521  17.907   2.628  0.1445  0.0795  0.2275
14127W        W34407   6.011  19.119  13.059 -0.0475  0.0320 -0.0089
14128W        W34408  13.117  14.709  13.415 -0.1386 -0.1564  0.2959
14129W        W34409  17.692   7.726   3.196  0.3381 -0.1937 -0.0784
14130W        W34410  10.456  17.920   0.602 -0.1581  0.3244  0.2843
14131W        W34411  18.955   0.689   1.746  0.1830  0.1797  0.0527
14132W        W34412  17.253   2.679   0.809 -0.0374 -0.1883 -0.0886
14133W        W34413   7.296   9.092   2.012 -0.0968 -0.0738 -0.1495
14134W        W34414  13.477  19.709   4.071  0.0018  0.3512 -0.2055
14135W        W34415   5.448  19.516  13.333  0.0743  0.0705  0.2015
14136W        W34416   0.627   3.078  11.826 -0.0205  0.0421  0.1035
14137W        W34417   3.583   9.604  12.044 -0.0542 -0.0133 -0.3626
14138W        W34418  19.479  11.437   2.171 -0.3171  0.0706 -0.1037
14139W        W34419   8.030  14.092  11.895  0.0520  0.2280  0.1085
14140W        W34420  17.743   0.193  13.137 -0.0713 -0.1533  0.2761
14141W        W34421   6.249   7.672  13.553 -0.0686  0.3165 -0.1051
14142W        W34422   2.868   4.856   2.721 -0.2207 -0.0651 -0.0628
14143W        W34423   9.749   1.237   3.512  0.0395 -0.0314  0.2139
14144W        W34424   2.346   0.434  13.191  0.1354 -0.2200  0.0621
14145W        W34425  14.762  18.438  13.479  0.0892 -0.1946 -0.0976
14146W        W34426   9.132   9.329   3.520 -0.1552  0.0058  0.1194
14147W        W34427   0.023  13.173   3.581 -0.1636  0.0765  0.0462
14148W        W34428  18.685  11.839   1.106  0.1091 -0.1512 -0.1162
14149W        W34429  18.106   4.853   2.325  0.1134  0.1132 -0.1135
14150W        W34430   0.166   9.954   9.930  0.1039 -0.2949 -0.3887
14151W        W34431   8.190  19.469   2.443 -0.0272 -0.1305  0.0933
14152W        W34432  14.929   2.541   3.378 -0.1792  0.0367 -0.0784
14153W        W34433  10.973  17.696   1.099 -0.2935 -0.0674  0.2087
14154W        W34434   9.140   3.375  11.928  0.0030  0.0497  0.0153
14155W        W34435   8.294   7.256   1.564  0.2125  0.2603 -0.1005
14156W        W34436  17.079   5.312  12.733 -0.2968 -0.0997 -0.0558
14157W        W34437   4.944   3.820  11.951 -0.1458 -0.3942  0.2972
14158W        W34438   9.490  15.486  10.176  0.1353  0.1476  0.1530
14159W        W34439  19.389   4.399   0.004 -0.1004  0.0301  0.0531
14160W        W34440   5.798   7.943  13.700  0.3349  0.4455  0.0865
14161W        W34441   5.983   6.241   4.104 -0.1985 -0.1505  0.0403
14162W        W34442   5.782   6.731  11.857  0.4185  0.2038 -0.0089
14163W        W34443   5.427  18.983   9.584 -0.2741  0.1028  0.0298
14164W        W34444  18.822   6.144   0.514  0.0180 -0.1842 -0.0414
14165W        W34445  17.510   4.686  13.208 -0.1232  0.2163 -0.1450
14166W        W34446  13.111   4.351   9.992  0.2128 -0.0624  0.2331
14167W        W34447   7.459  14.042  12.145 -0.0060  0.2318  0.1187
14168W        W34448   7.251  16.612   1.472 -0.0325 -0.0448 -0.0446
14169W        W34449   1.175   5.288   2.172 -0.0787  0.2222 -0.1201
14170W        W34450   6.408   0.728   3.014 -0.1378 -0.1197  0.1166
14171W        W34451  11.499   1.914   2.898  0.0468 -0.0995 -0.0936
14172W        W34452  17.209  12.633   2.707 -0.1510 -0.0993  0.1174
14173W        W34453  12.452   1.782  10.564  0.0419 -0.1602  0.2869
14174W        W34454  10.361  15.892   2.974 -0.0480 -0.0233  0.2468
14175W        W34455   2.914   4.163  11.804  0.3696  0.0416 -0.0475
14176W        W34456   2.274   8.891  11.004  0.1934  0.1295  0.2153
14177W        W34457   2.729   7.677  12.821 -0.0702  0.2546  0.0474
14178W        W34458   1.504  14.924   1.285  0.0686  0.1378  0.0277
14179W        W34459  10.281   8.930   1.812  0.2519  0.2047 -0.3245
14180W        W34460   3.194  10.248   2.122 -0.0303  0.2060 -0.2633
14181W        W34461   0.888  15.415  12.688  0.0619  0.4898 -0.3007
14182W        W34462   1.862  16.175   4.294  0.0845 -0.0474 -0.3568
14183W        W34463  12.232   1.139   1.730 -0.1361  0.0823  0.3124
14184W        W34464   9.985   8.971   3.698  0.0593  0.1177 -0.0768
14185W        W34465  17.508  10.528   4.596  0.3198  0.1955 -0.1178
14186W        W34466   4.467   6.508  11.799 -0.1419 -0.1737 -0.0932
14187W        W34467  16.013   8.250   1.439 -0.4003  0.0204  0.2784
14188W        W34468   7.204   9.388  13.422  0.0525  0.0490  0.0363
14189W        W34469  14.714   2.975  13.419  0.0053 -0.0240 -0.1016
14190W        W34470  16.599  18.097  13.507 -0.0803  0.0655 -0.2047
14191W        W34471   5.913   7.559  11.214 -0.0307 -0.3473 -0.1685
14192W        W34472  11.900  19.758   3.609  0.2824  0.0890  0.0781
14193W        W34473  17.764   8.567   4.102  0.0882 -0.0710  0.0887
14194W        W34474   9.090   0.652   2.781 -0.1957 -0.0582  0.0166
14195W        W34475   6.507  14.902   3.062 -0.1264  0.3929 -0.0808
14196W        W34476   0.273  16.793  13.381 -0.1057 -0.2204 -0.2255
14197W        W34477  16.899  13.383   9.850 -0.1574 -0.2379  0.3545
14198W        W34478  13.114  11.251  11.236 -0.0989  0.1064 -0.0650
14199W        W34479   3.080   8.561  11.321 -0.2043  0.0513  0.2356
14200W        W34480   2.608   1.273  13.300  0.0348 -0.0068 -0.1367
14201W        W34481   4.718  12.691  10.200  0.1110  0.3572  0.1177
14202W        W34482  19.219   4.137  11.246  0.0006 -0.0747 -0.3563
14203W        W34483  16.231  12.793  13.062 -0.0890  0.0150 -0.0538
14204W        W34484  19.475   3.578  12.592  0.1359 -0.2525 -0.1618
14205W        W34485   4.209   8.912  10.137 -0.2048 -0.1643  0.3978
14206W        W34486   2.111   8.399  11.381  0.2281 -0.0955 -0.0582
14207W        W34487   7.874  12.269  12.475 -0.1873  0.0495 -0.2451
14208W        W34488   9.287   4.696  11.285 -0.1072 -0.0083 -0.2906
14209W        W34489  14.508   0.729  11.883  0.2075  0.0685 -0.2478
14210W        W34490  17.977  10.490   0.136 -0.2286 -0.1912  0.0301
14211W        W34491   3.840   1.245   0.045  0.2904  0.1946 -0.0933
14212W        W34492   4.099   6.360   0.110  0.3724  0.1877  0.0217
14213W        W34493   9.001   2.682   1.701  0.0397 -0.0707 -0.0661
14214W        W34494  15.805   8.349   0.958  0.1788  0.0609 -0.1946
14215W        W34495  12.152   5.780  11.289  0.0956 -0.2989  0.1233
14216W        W34496  14.861  12.611   2.733  0.0730 -0.3017  0.0114
14217W        W34497  11.202   2.189   2.555  0.1637  0.2849  0.3138
14218W        W34498   6.659   3.332  10.271 -0.1269 -0.0722 -0.1668
14219W        W34499   2.284   7.114  13.319 -0.0648 -0.0814  0.0736
14220W        W34500   7.163   8.827  11.147  0.2952 -0.2916  0.0527
14221W        W34501   9.112   1.652   3.064  0.1045  0.0891 -0.1325
14222W        W34502  19.436  16.487   1.976 -0.0435 -0.1780  0.2611
14223W        W34503  16.096   1.404  10.386  0.4729  0.0098 -0.0331
14224W        W34504  18.817   8.689   2.648 -0.0684 -0.0126  0.0517
14225W        W34505   5.591   2.965  12.862 -0.0419  0.0076  0.1699
14226W        W34506  17.623   4.019   4.639 -0.2147 -0.2868 -0.1466
14227W        W34507  17.842  13.926   3.259  0.1045  0.0878  0.2624
14228W        W34508   4.804  17.754   0.636  0.1106  0.0161 -0.1743
14229W        W34509   8.223  18.238  11.836 -0.1481  0.1354  0.0814
14230W        W34510   6.701  14.924   1.259 -0.1561  0.1262  0.0608
14231W        W34511  19.403   9.950   0.039  0.2108 -0.1139  0.0602
14232W        W34512  15.932  14.155   1.685  0.0047  0.2377 -0.1858
14233W        W34513   0.182  13.804  13.084  0.1109 -0.1641  0.1072
14234W        W34514  15.555   3.848   0.625 -0.0301  0.1092  0.4681
14235W        W34515   9.226  11.789   3.079  0.1087 -0.0724 -0.0400
14236W        W34516   3.621   1.566  13.554  0.1688  0.0941 -0.1699
14237W        W34517   0.820   6.584   1.890  0.2596  0.0378  0.0762
14238W        W34518  15.117   4.894  12.190  0.0455  0.1002 -0.1426
14239W        W34519   5.819   0.519   1.397 -0.0009 -0.2821  0.0879
14240W        W34520  18.263  15.095  10.623 -0.1225 -0.1245 -0.2191
14241W        W34521  12.321   9.801  11.771  0.2712  0.1529  0.0815
14242W        W34522   8.635   1.078  12.897 -0.1623  0.0114  0.3376
14243W        W34523  14.950   9.581   0.359  0.3603 -0.0183 -0.1749
14244W        W34524   3.962   3.825   0.752 -0.2533 -0.0596 -0.2344
14245W        W34525   3.995   3.020  12.403 -0.1606  0.0958 -0.0323
14246W        W34526  14.227   0.454  11.453  0.0652 -0.1805  0.5515
14247W        W34527   1.830   9.988   3.347  0.3043 -0.1359  0.0829
14248W        W34528   1.904  19.200   0.164  0.2690  0.1090  0.1021
14249W        W34529   0.568  18.360   1.191 -0.2302 -0.1047 -0.1936
14250W        W34530  18.369   2.245  11.411  0.3420 -0.0248  0.1123
14251W        W34531  15.275  10.654   2.412 -0.2662 -0.1386  0.0681
14252W        W34532  10.781  18.913   1.594  0.2475 -0.1564 -0.1167
14253W        W34533  14.476   3.909   0.868  0.2657  0.1164  0.0442
14254W        W34534   2.089   4.001  13.615 -0.1950 -0.0662  0.1674
14255W        W34535  15.074  17.086   0.028 -0.0595  0.2928 -0.1136
14256W        W34536  11.234   2.282   2.071  0.0502 -0.0991 -0.0338
14257W        W34537   5.077   2.619  13.774  0.3693  0.0900 -0.0951
14258W        W34538  14.608  12.135   2.820  0.2661  0.0465 -0.2624
14259W        W34539   8.315  15.168   3.432 -0.1405 -0.1373 -0.0930
14260W        W34540   8.941   1.457   2.076 -0.3052  0.0199 -0.2232
14261W        W34541   2.214  11.125  11.378  0.1480  0.2017 -0.2400
14262W        W34542  17.053   5.854  13.060  0.0537  0.2548 -0.2132
14263W        W34543   2.298  13.993  10.346 -0.1183 -0.0502 -0.0713
14264W        W34544  18.110  15.730   0.415  0.2487  0.1214  0.1390
14265W        W34545   2.062  18.800   2.924  0.0946  0.1233  0.0726
14266W        W34546   0.340   1.156   3.020  0.1564 -0.2390 -0.2995
14267W        W34547   2.417   1.733   1.660 -0.0617 -0.0717  0.3358
14268W        W34548   7.336  13.656   1.365 -0.1089 -0.2570  0.2456
14269W        W34549  16.029   6.820   2.622 -0.0843 -0.1809  0.3607
14270W        W34550  12.218  18.491  12.401 -0.0023  0.3110  0.0577
14271W        W34551   4.154  19.879   4.410  0.1593  0.1238  0.0924
14272W        W34552  12.824   0.609   2.694  0.0871 -0.2777 -0.0610
14273W        W34553   2.687   0.758  10.590 -0.0033  0.0514 -0.1364
14274W        W34554  14.316  17.873  12.720 -0.0392  0.1798 -0.1374
14275W        W34555   8.306   0.444   2.588 -0.0492  0.1322 -0.0839
14276W        W34556  15.986  10.765  10.246  0.3403 -0.0145 -0.0760
14277W        W34557   9.661  15.339   1.101 -0.1638 -0.1797 -0.0969
14278W        W34558   4.229   0.315   1.522  0.2182 -0.0974  0.0335
14279W        W34559  14.087   9.430  10.680 -0.0303  0.0174 -0.4806
14280W        W34560  14.007  10.152   9.949  0.4060 -0.0768  0.0033
14281W        W34561  10.981  15.151  12.743 -0.0033  0.0028 -0.0048
14282W        W34562   6.570  16.832   9.638  0.0384 -0.0140  0.1643
14283W        W34563   6.108  17.756  12.945  0.0918 -0.2156  0.0795
14284W        W34564   0.795  12.162  12.423 -0.0633 -0.0386  0.0428
14285W        W34565   0.213   9.736   3.112  0.0374  0.3155 -0.0189
14286W        W34566  19.293   1.424  12.815 -0.0150 -0.3167 -0.0651
14287W        W34567   2.340   6.109  12.204  0.1257  0.2799  0.0527
14288W        W34568   5.725  17.690   2.321  0.1696 -0.2690  0.0860
14289W        W34569  11.894   4.310   2.308 -0.1492  0.0528 -0.1300
14290W        W34570   0.407   0.265  13.304  0.1404 -0.1502  0.1591
14291W        W34571  12.764   9.374  12.957 -0.2531  0.0099 -0.1880
14292W        W34572  11.954  12.447  12.781 -0.1741  0.0235  0.3671
14293W        W34573   0.609  10.930   1.402  0.2718 -0.2041 -0.0443
14294W        W34574  15.597  16.748  10.746 -0.0045 -0.1291 -0.2938
14295W        W34575  15.300  19.063  11.313 -0.0868  0.0917 -0.1733
14296W        W34576  12.871  16.531   2.110  0.3003 -0.0876  0.1132
14297W        W34577  11.903  16.210   1.253  0.2466  0.1082 -0.4295
14298W        W34578  15.717  17.408   1.856 -0.0080  0.0601  0.2170
14299W        W34579   6.134  10.545  12.508 -0.0945  0.2769 -0.0194
14300W        W34580   8.506   5.826  11.781 -0.2627  0.0910  0.0761
14301W        W34581  12.430  14.925   9.010  0.0336 -0.0639  0.0695
14302W        W34582  12.225   5.323   3.714 -0.0198  0.0338 -0.0508
14303W        W34583  12.577   5.788  12.303  0.1364 -0.2645  0.0108
14304W        W34584  14.630  19.525  10.208  0.3060  0.0332 -0.0696
14305W        W34585  18.677  17.652  10.310  0.2511  0.0703  0.0752
14306W        W34586   8.506  17.759   2.029  0.2268  0.0988  0.1207
14307W        W34587  16.394  10.032  12.327 -0.1772 -0.2725 -0.0327
14308W        W34588   6.023   7.416   3.300 -0.0710  0.1302  0.1526
14309W        W34589  14.285  14.222   1.115  0.2903 -0.0119  0.2973
14310W        W34590  18.900   3.486  10.812 -0.0668 -0.2819  0.0213
14311W        W34591  11.561  15.992   0.973  0.1284  0.1169  0.3043
14312W        W34592  15.077  12.898   0.812 -0.3423 -0.0434  0.0414
14313W        W34593   5.175  13.109   0.857  0.4791  0.1429  0.1059
14314W        W34594  18.387   4.561   1.413  0.1012 -0.3048  0.1063
14315W        W34595  16.572   4.887   4.419  0.3504  0.1568  0.1129
14316W        W34596   6.769   8.883   2.068 -0.1324 -0.2815  0.2393
14317W        W34597   9.980   3.181   0.546 -0.0140  0.0383 -0.0461
14318W        W34598  18.533   1.910   0.493 -0.1387  0.3480 -0.0653
14319W        W34599   5.481   1.883  13.069 -0.0665  0.1535  0.1114
14320W        W34600  17.679  16.403  12.264 -0.2115 -0.1124  0.2111
14321W        W34601   3.419  12.595   2.293  0.1129 -0.1206 -0.0005
14322W        W34602   8.505   5.079  10.971  0.0215 -0.2173 -0.1474
14323W        W34603   9.804   6.680   3.197 -0.5838  0.0362 -0.0398
14324W        W34604  13.475   8.344  10.606 -0.2746  0.0358  0.1928
14325W        W34605   0.933   0.332  13.033  0.3144 -0.3525  0.1197
14326W        W34606  12.766  12.699   2.685 -0.0134 -0.0260  0.3047
14327W        W34607   2.138   5.256   3.546 -0.1653 -0.0570  0.2163
14328W        W34608   7.460   4.049  11.366  0.1722 -0.0320 -0.0396
14329W        W34609   5.783   9.525  13.358  0.1804 -0.0566 -0.1978
14330W        W34610   2.847  17.451  13.355 -0.2427  0.0435  0.0432
14331W        W34611   7.123  13.275   0.784  0.0773  0.1739  0.2943
14332W        W34612   6.898  13.957   2.078  0.3237  0.2106 -0.2470
14333W        W34613  15.112   5.135   1.528 -0.4229 -0.1801  0.1413
14334W        W34614  15.966  11.689   4.123  0.0151 -0.3486 -0.3191
14335W        W34615   3.318  17.874  10.576 -0.5280 -0.0330 -0.1476
14336W        W34616  10.321   5.371   8.931 -0.1979 -0.1216  0.0733
14337W        W34617   4.561  16.030  13.372 -0.0254 -0.0654 -0.0929
14338W        W34618   9.409  10.444   1.824  0.2680 -0.0448  0.0212
14339W        W34619  16.254   1.363  12.620  0.0840 -0.2775 -0.1377
14340W        W34620  19.538   8.600   9.229 -0.0608 -0.0930 -0.2778
14341W        W34621   6.083   6.973   1.531 -0.2644 -0.2937  0.1790
14342W        W34622   1.373  14.980   1.756  0.1471  0.0051 -0.3163
14343W        W34623   0.513   9.446  10.185 -0.0512 -0.1266  0.0354
14344W        W34624   3.921   0.754   3.752 -0.0875 -0.0751 -0.1935
14345W        W34625  14.392   5.300   2.384  0.2230  0.1338 -0.4470
14346W        W34626   9.819  10.506  13.109  0.1650 -0.1618  0.1672
14347W        W34627  11.502   6.718  13.236 -0.1181 -0.5065 -0.0819
14348W        W34628   5.451  13.946   0.338 -0.1646  0.0488 -0.1392
14349W        W34629  14.586   9.472   2.532  0.0651 -0.0980  0.2121
14350W        W34630   5.665  19.320   0.564  0.1415 -0.3541 -0.1687
14351W        W34631   1.289  14.522   3.530  0.3445 -0.1337  0.3426
14352W        W34632   8.368   0.901  10.561  0.0609 -0.1723  0.2778
14353W        W34633  13.700  11.311  13.176 -0.0296  0.1328 -0.1312
14354W        W34634   8.194   5.247   1.938 -0.0263  0.1300  0.0909
14355W        W34635  14.210  19.246   4.377  0.1618  0.0831 -0.0458
14356W        W34636   7.719   1.640   2.290  0.3954 -0.0108 -0.3257
14357W        W34637  17.826   5.998  10.868  0.0814 -0.1604 -0.2598
14358W        W34638  15.212  18.852   1.912  0.1407  0.1082 -0.0756
14359W        W34639  14.768   6.105   0.755  0.3600 -0.3261  0.1600
14360W        W34640   5.924  14.478  12.543 -0.2640  0.1520 -0.1497
14361W        W34641  13.756  16.517  12.558 -0.0611 -0.1934 -0.0462
14362W        W34642  13.502   4.953  11.435 -0.2133  0.3206 -0.2151
14363W        W34643  14.797   2.745   1.335 -0.0653  0.1455  0.1284
14364W        W34644   6.338  12.621   2.195 -0.1842  0.0364  0.1589
14365W        W34645   9.385  18.900   9.051  0.0222 -0.0264  0.3632
14366W        W34646  11.703   7.114   0.547 -0.0838  0.0280  0.0186
14367W        W34647   5.422   9.984  12.554 -0.0691 -0.0797 -0.0141
14368W        W34648   2.621  19.895   3.960 -0.2521 -0.1833 -0.0361
14369W        W34649   3.851   7.719   1.217 -0.1549 -0.0431 -0.0070
14370W        W34650  15.368   9.458  11.171  0.0466  0.4352  0.0142
14371W        W34651   1.001   7.325   2.993 -0.3163 -0.0748  0.0774
14372W        W34652  19.337   4.842  10.507  0.1104 -0.1432  0.2163
14373W        W34653  17.530  14.313   1.213 -0.1635  0.0512  0.1072
14374W        W34654  10.856  15.382   0.175 -0.1689 -0.1287  0.2551
14375W        W34655   7.134  11.163   3.363 -0.1715 -0.2962 -0.1126
14376W        W34656   3.753  10.995  12.907  0.1191  0.0282  0.0563
14377W        W34657   1.809   4.549  11.879  0.0760  0.1394 -0.0538
14378W        W34658   0.461  12.087   1.692 -0.0447 -0.3109  0.1615
14379W        W34659   7.927   1.577  13.845  0.1901  0.1083  0.0558
14380W        W34660   6.594   3.161  12.889  0.1750  0.1615 -0.3077
14381W        W34661  18.053   5.817   3.204 -0.2989  0.1803 -0.3533
14382W        W34662  16.054  16.141   0.755  0.1186  0.2270  0.0073
14383W        W34663   9.463   3.997  12.478  0.0012  0.1592 -0.0448
14384W        W34664  15.512  12.983  10.354  0.1211  0.5032 -0.0294
14385W        W34665  17.336   7.201  11.760  0.0029  0.0133 -0.4153
14386W        W34666   0.905  11.374  13.781  0.1209  0.0068  0.1476
14387W        W34667   1.383  11.264   9.605  0.0589 -0.2277  0.0763
14388W        W34668  16.103   6.020  10.202 -0.2610 -0.0516 -0.3220
14389W        W34669  19.546  12.865  10.036 -0.1420  0.1259 -0.1660
14390W        W34670   9.805  17.380   0.187  0.0590 -0.2636  0.2242
14391W        W34671  17.640  15.570  13.316 -0.0933  0.0482 -0.0945
14392W        W34672  17.438   9.931   9.684 -0.0751  0.0289  0.2605
14393W        W34673  15.708  11.112   9.961 -0.4061  0.3371  0.2183
14394W        W34674   8.093   5.934   1.334  0.2789 -0.2365  0.5182
14395W        W34675   0.493   4.489  12.271 -0.0189  0.0594 -0.0735
14396W        W34676  11.844  12.116   3.349  0.1518  0.2833 -0.0189
14397W        W34677   1.852  10.993  11.003 -0.2216 -0.0479  0.2244
14398W        W34678  11.916   6.877  10.704  0.0276  0.1237 -0.0840
14399W        W34679   7.320  16.652  10.674  0.0411 -0.1156  0.0304
14400W        W34680   9.441  17.492  13.731  0.2157 -0.2127 -0.1588
14401W        W34681   2.069   0.945   1.848  0.1945  0.2493 -0.0297
14402W        W34682   4.898   7.402   0.535 -0.0293 -0.3284 -0.2361
14403W        W34683   4.836  12.675  11.496 -0.0504 -0.1188 -0.1286
14404W        W34684  14.147   4.617   2.989  0.0938  0.0085  0.2156
14405W        W34685  12.786  15.101   3.171 -0.1849  0.1032  0.2731
14406W        W34686  19.864   1.675   1.652 -0.1710  0.1272 -0.0539
14407W        W34687  17.504  14.972   2.246 -0.0022 -0.1702 -0.0710
14408W        W34688   3.071  18.189  10.933 -0.0864  0.1161  0.0034
14409W        W34689  10.995  19.896  13.364  0.1419  0.3527 -0.0402
14410W        W34690  18.581  11.389   0.936 -0.0221  0.1729 -0.1508
14411W        W34691   0.277  10.108   0.895  0.0358  0.2693 -0.1869
14412W        W34692  10.801  18.127  12.910  0.0682  0.1471 -0.1799
14413W        W34693  12.390  14.234   1.609 -0.0022  0.1606  0.1298
14414W        W34694   7.889   3.893  11.094 -0.0374 -0.1420  0.4535
14415W        W34695   7.094   6.789  12.275 -0.0401  0.0653 -0.2843
14416W        W34696  13.787  15.472  13.707  0.0348 -0.1410  0.0371
14417W        W34697   3.584  13.295   1.704  0.0254 -0.3271 -0.3251
14418W        W34698   3.824   4.163   3.985  0.2494 -0.2702 -0.2877
14419W        W34699   9.781   5.688  12.266 -0.0645  0.0039  0.1507
14420W        W34700  13.780   6.669   2.080  0.0751 -0.1853  0.0603
14421W        W34701  18.603   4.510   9.329 -0.1026  0.1283  0.2076
14422W        W34702   4.509  14.271  12.759  0.0142 -0.1000 -0.2749
14423W        W34703   8.970   9.491  10.815  0.3699  0.1266  0.0627
14424W        W34704   4.562  14.784   3.952  0.0886  0.2930 -0.1185
14425W        W34705  12.263  14.616   2.782 -0.1355 -0.0046  0.1055
14426W        W34706   5.651   2.499   2.467 -0.0513  0.2046  0.1914
14427W        W34707   3.146   4.977   0.808  0.2390  0.0348 -0.0090
14428W        W34708   4.674  14.961  11.557 -0.3961  0.2096 -0.3826
14429W        W34709  18.098   7.305  12.047 -0.4215  0.1512  0.4729
14430W        W34710  17.206   1.439   0.174 -0.0191 -0.5687 -0.1544
14431W        W34711   4.919  16.043   0.980 -0.1574  0.4156 -0.1835
14432W        W34712  15.207   5.373   1.072  0.2922 -0.1316 -0.0803
14433W        W34713  16.284  11.735  13.671 -0.1961 -0.0546  0.1048
14434W        W34714  18.736   6.915  11.467  0.0082 -0.1187  0.0230
14435W        W34715   4.506  14.945   0.492  0.1155  0.0571  0.1870
14436W        W34716  15.838   7.709  12.448  0.0027 -0.0817 -0.0337
14437W        W34717   8.423   4.995  12.339  0.1088  0.2463 -0.2747
14438W        W34718   2.852   7.110  10.773  0.0428  0.2348 -0.0510
14439W        W34719  12.293   7.165   2.082 -0.1589 -0.2373  0.1425
14440W        W34720  17.321   9.606  12.479 -0.0172  0.3139  0.0960
14441W        W34721   8.756  10.082  11.882 -0.1104  0.3135  0.1920
14442W        W34722   5.269   9.397  10.892 -0.0783 -0.1320 -0.0716
14443W        W34723   9.666  19.292   3.407 -0.1929 -0.2174 -0.0199
14444W        W34724  13.863   1.329  10.527  0.1199  0.0719 -0.0027
14445W        W34725  17.409   8.457   1.099  0.0877 -0.4604  0.0782
14446W        W34726   3.274  15.719  10.509 -0.3280 -0.0091  0.0573
14447W        W34727  16.296   4.560   4.149  0.2533  0.1536  0.3839
14448W        W34728  18.374  14.948  11.137 -0.0486 -0.1003 -0.1918
14449W        W34729   7.379   8.727  11.909  0.0736 -0.0989  0.0824
14450W        W34730   6.836  17.224   3.162 -0.1697  0.1415  0.2220
14451W        W34731   5.328   6.540  10.843 -0.0945  0.3210 -0.0069
14452W        W34732   3.841   1.593  12.682 -0.1448  0.0100  0.3148
14453W        W34733   1.161   8.179  13.707 -0.0172 -0.1204 -0.1148
14454W        W34734  10.808   2.944  11.211  0.0748  0.1212  0.1234
14455W        W34735  14.192   6.456   0.083  0.2357 -0.1330  0.0318
14456W        W34736   8.759   9.117   0.928  0.1078 -0.3488 -0.3555
14457W        W34737   1.688   5.949  10.588  0.6393 -0.0068  0.0994
14458W        W34738  17.538   0.017   1.417  0.1492  0.0941  0.1801
14459W        W34739   2.558   7.282  13.747  0.0983 -0.3185  0.1314
14460W        W34740  13.930  18.680   1.477  0.2804 -0.1149 -0.1610
14461W        W34741  17.938  17.168   3.400 -0.0286 -0.4003 -0.0974
14462W        W34742  14.904   2.016  13.138  0.2146 -0.0342 -0.0160
14463W        W34743  16.910   3.117  11.410 -0.0086 -0.1986  0.0610
14464W        W34744   7.157   6.374  11.844 -0.4396 -0.2634 -0.3870
14465W        W34745   9.390  18.668  13.242  0.2884 -0.1855 -0.0187
14466W        W34746   0.358   7.210   0.115 -0.0644  0.0855  0.1542
14467W        W34747   0.813  19.835   1.223 -0.2009 -0.0935 -0.0924
14468W        W34748   3.278  14.352   1.028  0.0039  0.0084  0.0908
14469W        W34749   4.788   2.656  11.683 -0.4075 -0.2772 -0.2972
14470W        W34750  10.583  10.201   1.882  0.0337  0.1265  0.3013
14471W        W34751   1.797  18.537  13.472  0.0485  0.0293 -0.1344
14472W        W34752  13.664  16.619   1.841  0.0289  0.2862 -0.1408
14473W        W34753  19.440   3.096   0.891 -0.2850 -0.2079 -0.2901
14474W        W34754  10.467  19.261   0.785 -0.0608 -0.0798 -0.0526
14475W        W34755   3.811   9.672  10.298  0.1868 -0.2342  0.3113
14476W        W34756   1.775  17.760  11.689 -0.2213 -0.0156  0.0597
14477W        W34757   3.254   8.450   0.797  0.0483 -0.3983 -0.0446
14478W        W34758   7.754   2.706  10.782 -0.1361 -0.1516 -0.0135
14479W        W34759   0.786  17.803  10.743  0.1167 -0.0808  0.1951
14480W        W34760  13.517  12.107   1.907 -0.2089 -0.1859  0.3768
14481W        W34761  18.499  11.104  12.134  0.0233  0.2526  0.0034
14482W        W34762   3.443  19.034  13.618  0.2634  0.1118 -0.1051
14483W        W34763   8.336  13.036  10.768  0.1716 -0.1239 -0.1910
14484W        W34764   6.578   3.943   9.387 -0.3615 -0.0607  0.3384
14485W        W34765  11.832  18.628  13.490  0.0534  0.2150  0.1323
14486W        W34766  19.768  12.968   0.861 -0.0343  0.1551 -0.0201
14487W        W34767   4.899  12.432   0.065 -0.1990  0.1609  0.1947
14488W        W34768   3.635   5.834   1.420  0.0745  0.1758  0.0232
14489W        W34769  10.599  14.393  13.120  0.0663  0.1020  0.0175
14490W        W34770  16.463  13.842  11.527 -0.2720 -0.0561 -0.0355
14491W        W34771  14.428   6.562  13.411 -0.1731 -0.1242 -0.0125
14492W        W34772  15.703  10.002  11.606 -0.1470  0.1656  0.0029
14493W        W34773  14.634   3.089  11.088 -0.1342  0.1399  0.0839
14494W        W34774  17.859  14.048  12.659  0.0109  0.0179 -0.2328
14495W        W34775   0.367  19.056  10.350  0.0036  0.3244 -0.0934
14496W        W34776  18.090  16.008   1.225 -0.1779  0.2846 -0.0934
14497W        W34777  17.955   0.977   0.578 -0.3269  0.1311 -0.4269
14498W        W34778  16.595   9.821   3.496  0.1914 -0.1141  0.1491
14499W        W34779   8.033   9.488   2.419 -0.0223  0.1023  0.1477
14500W        W34780   4.830   5.737   3.361  0.0180 -0.0524 -0.3066
14501W        W34781   4.779   1.267   1.552  0.4138  0.0179  0.0911
14502W        W34782  16.830   2.911  13.071 -0.1794  0.1191  0.1310
14503W        W34783   2.305   4.670   2.234 -0.2767  0.1276  0.0131
14504W        W34784   8.892  18.911   9.192 -0.0271 -0.1216 -0.1229
14505W        W34785  15.940   1.949   8.888 -0.1336 -0.0006  0.1369
14506W        W34786   9.442  13.510  12.051 -0.0734  0.1828  0.4060
14507W        W34787  15.193  16.209   3.192  0.2815 -0.0772 -0.1788
14508W        W34788  14.940  16.346   0.104 -0.0427  0.0264  0.0713
14509W        W34789  19.535  16.839   1.636  0.0937  0.0117  0.0890
14510W        W34790   9.576   8.526  11.955  0.0717  0.2530  0.3573
14511W        W34791   6.686  17.730   3.123  0.0390  0.0132 -0.3520
14512W        W34792  14.430  17.415   1.258 -0.0351 -0.0407  0.3849
14513W        W34793  11.037   4.900   2.590  0.0950  0.0684 -0.2910
14514W        W34794   1.616   6.762  13.816  0.3743 -0.0010 -0.2530
14515W        W34795  12.829   6.201   1.846 -0.0537 -0.0315 -0.1100
14516W        W34796  16.985   4.880   0.207 -0.0004  0.0331 -0.0222
14517W        W34797  18.178   4.064   1.441 -0.1984 -0.2397  0.5034
14518W        W34798  15.845   9.265  12.494 -0.0152  0.2570  0.1021
14519W        W34799  16.458   8.659  10.476  0.0193  0.2564  0.0693
14520W        W34800   1.865  16.203   9.345  0.2913 -0.0575  0.0494
14521W        W34801   0.400   2.822   3.016 -0.1459 -0.1808  0.1449
14522W        W34802   8.248  12.950   1.578 -0.1602  0.0280 -0.0837
14523W        W34803  10.819   7.519   0.435  0.0012 -0.1448  0.0054
14524W        W34804  12.839  17.255   2.957  0.1199  0.0016 -0.2035
14525W        W34805  17.005  16.408   2.633  0.0052 -0.2263  0.0208
14526W        W34806   1.119  15.197   3.007 -0.0239 -0.1744  0.1531
14527W        W34807   9.919  19.828   2.172 -0.3528  0.0878  0.0401
14528W        W34808  15.762  12.961   1.338 -0.0457  0.2004  0.2408
14529W        W34809   4.820   0.148   5.059  0.0262  0.1507 -0.4104
14530W        W34810  10.268   6.934   1.037  0.2052  0.0750  0.1679
14531W        W34811   4.193  11.435   0.177 -0.2677  0.0645  0.0845
14532W        W34812   2.198  10.814   0.259 -0.2266  0.2951 -0.3075
14533W        W34813   8.575  19.055  12.987 -0.2408 -0.0945 -0.0075
14534W        W34814   5.870   3.796   0.045  0.1712  0.3068 -0.0008
14535W        W34815  10.282  10.631   3.969 -0.1646  0.0942  0.2775
14536W        W34816  17.268  16.971  10.091 -0.0395  0.0423 -0.0902
14537W        W34817   6.224   3.834   3.894  0.2442  0.0897 -0.0613
14538W        W34818  16.640  12.001  12.567 -0.0797 -0.0115  0.0836
14539W        W34819   3.218  19.497   3.221 -0.1110 -0.3062  0.3419
14540W        W34820   7.349  10.379   2.472  0.1430  0.1417  0.3362
14541W        W34821   5.695   3.714   5.122 -0.1646 -0.0452  0.3267
14542W        W34822  15.481  10.187  13.453  0.0832 -0.2428  0.1880
14543W        W34823  13.314  18.217  13.727  0.0275 -0.3044  0.0347
14544W        W34824   9.295   9.927   1.765  0.0214  0.0554  0.2395
14545W        W34825   5.869   5.931  13.803 -0.4871  0.0600  0.0157
14546W        W34826   8.639  11.382   3.223  0.4863 -0.0076  0.0912
14547W        W34827  15.711   8.543  13.628 -0.0111  0.2036 -0.0684
14548W        W34828  17.148   1.869  11.314 -0.2362 -0.1439 -0.0520
14549W        W34829   8.332   5.570   1.533  0.0368 -0.0231  0.0259
14550W        W34830  11.983   3.379   1.579 -0.1843 -0.4353  0.0051
14551W        W34831   0.850  12.112   3.689 -0.0162 -0.0900 -0.2899
14552W        W34832  16.718  19.294  12.147 -0.1793 -0.1112 -0.1199
14553W        W34833  15.743   8.112   0.002 -0.3555  0.1119 -0.2410
14554W        W34834  19.142  16.432   1.543  0.0337  0.2562  0.0114
14555W        W34835   0.307  10.289  12.544 -0.3824 -0.0255  0.2458
14556W        W34836   1.715  16.832   1.420 -0.0680  0.1639 -0.1542
14557W        W34837   1.617   5.662   4.109  0.0904 -0.0459 -0.1307
14558W        W34838  11.140  14.927  13.193 -0.2080  0.1613  0.0364
14559W        W34839   3.622   1.941   0.054  0.0657 -0.0587 -0.1147
14560W        W34840   7.000  11.595  12.983 -0.2889 -0.2511 -0.0005
14561W        W34841  13.078   9.000  13.056  0.3473 -0.2649 -0.0953
14562W        W34842  14.253   7.950   2.184 -0.0529  0.4116  0.3418
14563W        W34843  11.491   9.978  12.613 -0.0038  0.0082  0.0388
14564W        W34844  15.471   8.935  11.895  0.0353 -0.2150  0.4896
14565W        W34845  11.104  16.045   1.862  0.1281 -0.0091 -0.1168
14566W        W34846  12.499   8.239  10.343  0.4648  0.2998 -0.1015
14567W        W34847  16.360  17.716   2.673 -0.1495 -0.2473  0.0750
14568W        W34848  10.090   6.897   0.529 -0.2609  0.2594 -0.1951
14569W        W34849   9.525   5.465   1.262  0.0210 -0.3115 -0.0150
14570W        W34850   3.170   7.964  10.577  0.1560  0.4599  0.3267
14571W        W34851  12.842  12.297   3.960  0.0913 -0.0115 -0.2151
14572W        W34852  18.561  13.887  11.983  0.1448 -0.0412 -0.1598
14573W        W34853  15.813   5.305  13.549  0.1904 -0.0146 -0.0177
14574W        W34854   3.755  16.934  11.814 -0.2088  0.1557  0.2343
14575W        W34855  17.867   4.736  11.259  0.2076 -0.3442  0.1100
14576W        W34856  10.931  16.449   0.050  0.1172 -0.1213 -0.0433
14577W        W34857   1.836   3.616  11.235  0.1281  0.1378 -0.2454
14578W        W34858   4.889   7.151   3.270 -0.6178 -0.1690  0.0774
14579W        W34859   8.809   2.255  12.764  0.0295  0.0539  0.2151
14580W        W34860   9.728  14.244   0.907  0.0079  0.0405  0.0434
14581W        W34861  16.826  11.609   1.321  0.0100  0.1414 -0.3547
14582W        W34862   4.633   3.741   1.383 -0.2687  0.2631 -0.1999
14583W        W34863   2.598  19.284   2.477 -0.0723 -0.3340  0.2169
14584W        W34864  19.425   0.754  10.773 -0.3681  0.4278 -0.1377
14585W        W34865   2.390   4.686   3.752 -0.0575 -0.0345 -0.0024
14586W        W34866  13.075   8.118   1.499  0.1671  0.1324 -0.2244
14587W        W34867  13.899  19.548  13.161  0.4827  0.0155 -0.0494
14588W        W34868   4.433  15.330  10.060  0.0735  0.5157  0.1975
14589W        W34869  11.916   1.100   9.351 -0.0746  0.3699  0.1446
14590W        W34870  19.076   4.491  12.074  0.0821 -0.1109 -0.1054
14591W        W34871  11.676   2.715  13.320  0.3180 -0.0256 -0.1347
14592W        W34872  14.576  17.149   0.872 -0.0757  0.3302  0.0610
14593W        W34873   1.724  11.179  11.539 -0.0606  0.1923  0.2070
14594W        W34874  12.583   7.481   2.557  0.3997 -0.0525  0.1271
14595W        W34875  12.582   8.498   9.435 -0.3785  0.2020 -0.0175
14596W        W34876   5.291  17.477   2.165  0.0295  0.3268 -0.0472
14597W        W34877   9.131  17.069   3.387  0.3514 -0.2863 -0.2660
14598W        W34878   4.345   2.442  11.889  0.1502 -0.1093 -0.0372
14599W        W34879   5.056  17.484  10.663 -0.1103 -0.1616  0.3324
14600W        W34880  15.889  11.160  12.175 -0.1139  0.1981  0.0311
14601W        W34881  15.296  17.241  11.256  0.1656 -0.1281  0.1270
14602W        W34882   1.528  16.627  11.616 -0.1219  0.2304 -0.1260
14603W        W34883  11.464  10.295   3.646 -0.0214 -0.3801 -0.1655
14604W        W34884   2.310  14.732   1.041 -0.2171 -0.0606 -0.2243
14605W        W34885   1.337  15.489  13.621  0.0200 -0.1201  0.0743
14606W        W34886  17.186   6.274   0.523  0.2757  0.0779  0.1264
14607W        W34887  10.981  17.065  12.196  0.0472  0.2972 -0.0598
14608W        W34888   4.392   2.640  11.338  0.0321  0.4448 -0.1214
14609W        W34889  10.796  12.645  13.631  0.1107 -0.0535 -0.3093
14610W        W34890   3.288   7.763  12.789  0.2074  0.1436 -0.0514
14611W        W34891   5.176   5.350   0.169 -0.0672  0.2909  0.0823
14612W        W34892  13.484   9.925   0.489 -0.1717 -0.3621  0.4069
14613W        W34893   6.455   2.190   3.636 -0.0607  0.1670 -0.2119
14614W        W34894   7.536  15.420   1.684 -0.0073  0.2131 -0.0023
14615W        W34895   5.251  17.373  12.709 -0.0613 -0.2126 -0.0072
14616W        W34896   1.127  14.359   0.259 -0.0520 -0.2096 -0.0816
14617W        W34897   2.768  19.910   1.942  0.2319  0.0911 -0.2792
14618W        W34898  12.773  17.624  10.769  0.0326 -0.0007  0.0299
14619W        W34899  10.615  17.013   2.783 -0.1367  0.1576 -0.2154
14620W        W34900  13.433   2.179   3.060  0.2454 -0.1603 -0.1289
14621W        W34901  11.691  11.394   0.996  0.0480 -0.2411  0.2756
14622W        W34902   9.779  12.155   0.832 -0.1629 -0.0820 -0.1021
14623W        W34903  15.278  13.603   1.858  0.0318 -0.2326 -0.0009
14624W        W34904  11.747   5.689  12.684 -0.2538 -0.0572 -0.0529
14625W        W34905  10.055   5.422  12.648  0.1415 -0.2210 -0.2858
14626W        W34906   5.570   7.178  10.315 -0.0693 -0.3607  0.1390
14627W        W34907   5.141   8.313   1.451  0.1990  0.2337  0.2806
14628W        W34908  10.861   3.897  11.593  0.1264 -0.0750  0.2792
14629W        W34909   8.224   4.810   0.968  0.0619 -0.2161 -0.2815
14630W        W34910   8.511  13.989  11.709 -0.2262 -0.2297  0.1260
14631W        W34911   9.792  13.876  12.260 -0.0821  0.0880  0.2360
14632W        W34912  18.354   2.664   3.184 -0.0828  0.0002 -0.2621
14633W        W34913   5.038   2.530  10.650 -0.1654  0.0777  0.2434
14634W        W34914   2.229  17.394   2.842  0.0574  0.1658 -0.0270
14635W        W34915   2.377  10.268  12.568  0.1489 -0.2280 -0.1905
14636W        W34916   8.362  14.766   2.843  0.1551  0.0907 -0.4161
14637W        W34917  12.697   3.495  10.370  0.0186 -0.0724 -0.1096
14638W        W34918  16.993  14.694  13.162 -0.1348  0.2920 -0.1088
14639W        W34919  10.429   2.163   3.137  0.2900 -0.1221  0.2069
14640W        W34920   1.320   5.061   3.692 -0.0510  0.0070  0.0075
14641W        W34921   9.005   9.362   0.552 -0.0708  0.1598 -0.4759
14642W        W34922  16.129  17.633   1.919 -0.0428  0.0157  0.2320
14643W        W34923   0.486   2.269   4.885  0.1407  0.1739  0.1132
14644W        W34924   9.697   5.629   0.861 -0.0977 -0.1080  0.1830
14645W        W34925  13.167   4.275   0.348  0.4809  0.1716  0.1120
14646W        W34926  17.611  16.572  10.047 -0.3519 -0.3582  0.0933
14647W        W34927  16.861  17.796  10.543 -0.0493  0.0651  0.1687
14648W        W34928  11.991  12.752  11.517  0.1194  0.1266 -0.2558
14649W        W34929  18.763   2.857  12.685  0.1762  0.1107 -0.0509
14650W        W34930   7.438  15.980   2.059  0.0324  0.0557 -0.1202
14651W        W34931   8.177  19.409   4.144  0.1809 -0.0282 -0.0134
14652W        W34932  13.877   0.130  11.330 -0.0350  0.4841  0.6333
14653W        W34933  11.523  12.498   1.001 -0.3929  0.1260 -0.2992
14654W        W34934   2.782  16.981   1.616  0.2185  0.0310 -0.2370
14655W        W34935   2.539  14.343   4.810  0.1063  0.4240 -0.1001
14656W        W34936  15.445   9.654   9.925 -0.1391  0.0021 -0.2096
14657W        W34937   8.111   0.093  13.484  0.0849 -0.0636  0.0457
14658W        W34938  10.559   8.403   2.279  0.2681  0.0777  0.0908
14659W        W34939  13.353  14.216   0.814  0.0560  0.0416 -0.2151
14660W        W34940   3.775   6.557  13.684  0.1648 -0.3748 -0.1357
14661W        W34941   5.358  19.424   3.114 -0.1524  0.2777  0.1037
14662W        W34942  10.094   5.585   3.029 -0.1215  0.2295  0.3582
14663W        W34943   1.350  18.932   1.113 -0.0036  0.2598  0.2515
14664W        W34944   0.705   5.603  10.319 -0.0607  0.1188 -0.1012
14665W        W34945  19.847   3.469  11.883 -0.2115  0.0924 -0.0596
14666W        W34946   8.599   1.167  13.612 -0.0743 -0.1092  0.0250
14667W        W34947  11.092  13.810  11.538  0.3316  0.1860  0.2437
14668W        W34948  14.892   1.662   1.229  0.1274  0.3731  0.1240
14669W        W34949  19.078   4.149   0.470  0.0695 -0.2112  0.3754
14670W        W34950   0.977  19.737   2.002  0.0350  0.1774 -0.3649
14671W        W34951   5.101   9.920  11.708  0.0119  0.1778 -0.1971
14672W        W34952   7.859  13.592   0.616 -0.5378  0.1434  0.0103
14673W        W34953   2.475   2.701   2.761  0.4203 -0.0773 -0.1465
14674W        W34954   2.085  15.735  10.991 -0.2556 -0.0577  0.1317
14675W        W34955  10.981   8.025  11.982  0.2631  0.2555 -0.3486
14676W        W34956  12.359   7.206  13.346 -0.2202  0.1671  0.2751
14677W        W34957  18.917  15.386   0.741 -0.0062 -0.0648 -0.0868
14678W        W34958   5.259   7.542  13.266 -0.1206 -0.0135  0.1069
14679W        W34959  18.661   5.678   1.384  0.2284  0.0244 -0.2785
14680W        W34960   6.135  18.569   1.092 -0.2183 -0.3765 -0.1356
14681W        W34961  10.275  10.013   0.110 -0.0176  0.0924  0.3557
14682W        W34962   2.084  14.211   0.144  0.1229 -0.2498  0.0893
14683W        W34963   8.890  14.731   1.086 -0.1070  0.1401 -0.0133
14684W        W34964  16.457  14.232  10.262 -0.3177  0.2005  0.2458
14685W        W34965   4.259   8.125  12.994  0.0258 -0.0608 -0.0751
14686W        W34966  14.552  12.161   0.958 -0.1081  0.0474 -0.1848
14687W        W34967  18.326   9.504  13.387 -0.0280 -0.0966  0.2715
14688W        W34968  17.501  14.924  12.883  0.0809 -0.0571  0.2576
14689W        W34969  14.154  11.992  13.408 -0.0512  0.2094 -0.1739
14690W        W34970   6.340   6.339   3.542 -0.0168 -0.5018 -0.1373
14691W        W34971   1.921   9.891   4.284  0.1673  0.1184 -0.2986
14692W        W34972  13.539  15.007  13.253  0.2310 -0.1807  0.2116
14693W        W34973   1.570  17.203   0.725  0.1979  0.2330 -0.1174
14694W        W34974  10.363   2.842   2.517 -0.6431 -0.1830  0.0182
14695W        W34975   9.415  18.684   2.843  0.0198  0.1287 -0.1294
14696W        W34976   1.536   3.119   3.339  0.0842 -0.3925  0.2165
14697W        W34977   1.814  15.790   1.873  0.0748 -0.1974 -0.2118
14698W        W34978   9.454   1.879  11.106 -0.0043 -0.1492  0.0457
14699W        W34979  14.403  16.532   9.870  0.4000 -0.1612  0.1783
14700W        W34980  14.562  12.479   9.782  0.1707 -0.1619  0.0225
14701W        W34981  16.581  10.951   0.548  0.1312  0.0166  0.0430
14702W        W34982  14.241   5.590  13.189  0.0840 -0.3621 -0.0398
14703W        W34983   9.951   9.001   1.345 -0.0063 -0.1547  0.1969
14704W        W34984   3.476   9.816   1.442  0.3186 -0.3096  0.0626
14705W        W34985  13.737  13.844   2.335 -0.1702  0.2605  0.2642
14706W        W34986   0.555  15.338  11.709 -0.1193  0.2587  0.0112
14707W        W34987  13.012  17.423   4.025 -0.1535  0.1216 -0.1076
14708W        W34988   8.473   2.344   1.898 -0.2244  0.1350  0.0658
14709W        W34989   8.666   9.123   0.246 -0.1570  0.1571  0.0994
14710W        W34990   2.067  13.773  11.780 -0.2083 -0.0770 -0.0946
14711W        W34991  15.822  13.254   1.736  0.0736  0.0524  0.0214
14712W        W34992   6.793  18.386   2.222  0.0240 -0.0907 -0.2904
14713W        W34993   3.351  18.235  11.405  0.2073  0.0963 -0.2947
14714W        W34994   3.169   9.078  10.913  0.0239 -0.2964 -0.1907
14715W        W34995  18.855  17.062  13.327  0.1956  0.2921  0.2625
14716W        W34996  10.657  16.306   4.036 -0.0060  0.0817  0.2161
14717W        W34997   3.801   9.973   2.422 -0.1153 -0.0249 -0.0252
14718W        W34998   2.300   7.051   3.024 -0.1379 -0.1638 -0.2020
14719W        W34999  14.184   0.535  10.955 -0.1659 -0.2824 -0.0285
14720W        W35000   7.060  17.380  13.672 -0.0789 -0.2161 -0.1690
14721W        W35001  13.149  15.924   2.721  0.0118 -0.0199  0.1961
14722W        W35002  19.020   6.240  11.830  0.0516  0.1179  0.3158
14723W        W35003   6.075   9.513  10.537 -0.0553 -0.0559 -0.0172
14724W        W35004  16.415   8.220  10.708 -0.0379 -0.2008 -0.0190
14725W        W35005  13.666  17.396  10.887  0.1793  0.0045  0.1208
14726W        W35006  14.317   1.610  13.848  0.0590  0.0796 -0.1553
14727W        W35007  17.826   9.760  10.641  0.0570  0.0403  0.2265
14728W        W35008  16.971   1.641  11.947 -0.1336  0.0452 -0.1548
14729W        W35009   9.175  13.517   2.533  0.2079  0.0582  0.0668
14730W        W35010  13.133  16.687  13.397 -0.0092  0.3497 -0.0552
14731W        W35011  17.843   1.668  11.852  0.0582 -0.0095 -0.2460
14732W        W35012  19.199  11.032   1.954 -0.0877 -0.2257 -0.2133
14733W        W35013  11.951   3.739  10.473 -0.0941  0.5832 -0.2186
14734W        W35014   4.880   2.176   0.442 -0.0994 -0.0952  0.0738
14735W        W35015   7.879  14.547   2.263 -0.2785  0.0695 -0.0098
14736W        W35016   6.314  13.409   4.010  0.0779  0.1265 -0.1048
14737W        W35017  10.914   9.501   1.403 -0.1279  0.0428  0.1699
14738W        W35018   1.939  10.480   3.481  0.0711 -0.1780 -0.4138
14739W        W35019   0.801   9.099   0.719 -0.0293 -0.2271  0.0406
14740W        W35020  12.363   0.451   2.586  0.4018 -0.3989  0.0207
14741W        W35021  19.745  18.050  12.264 -0.1493 -0.0478  0.1128
14742W        W35022  16.985  13.891   9.928 -0.2719  0.1445 -0.1564
14743W        W35023  13.488  14.743   2.007  0.5298 -0.0445 -0.1009
14744W        W35024  13.595  14.462  13.513  0.0177 -0.1185 -0.1206
14745W        W35025   7.005   1.662   0.351  0.1784  0.0375 -0.0593
14746W        W35026   3.280  18.185   3.356 -0.0356  0.0490  0.2026
14747W        W35027   1.888  12.288   2.004  0.0176 -0.3861 -0.0603
14748W        W35028  11.706   1.536   0.749 -0.1970  0.0648  0.0189
14749W        W35029   2.522  17.343   2.323 -0.3121  0.1919  0.0063
14750W        W35030   2.235  14.635  13.335 -0.1926 -0.0076 -0.5084
14751W        W35031  18.398  11.318  13.712 -0.2880 -0.0542 -0.0667
14752W        W35032  17.467  13.089  13.856 -0.2702 -0.2276 -0.0001
14753W        W35033   5.723   9.303   2.598 -0.2550 -0.2407 -0.0092
14754W        W35034  10.352  19.867   2.994  0.0223 -0.1296  0.3871
14755W        W35035  10.274   4.022  11.996  0.1064 -0.2490  0.0227
14756W        W35036   4.802  17.526   2.518  0.0059  0.3375  0.0715
14757W        W35037   1.994  14.130   2.699  0.1810 -0.3593 -0.0820
14758W        W35038   0.542  10.783  12.905  0.2003  0.1138  0.0058
14759W        W35039   2.945   6.282  11.814  0.0771  0.2181  0.0746
14760W        W35040   9.780  15.313   3.851  0.6038  0.1139 -0.1128
14761W        W35041  17.310  19.934  13.035  0.0245 -0.0294  0.0609
14762W        W35042  18.382   0.407  11.650  0.1162  0.1100  0.1926
14763W        W35043   5.259  15.782   5.199 -0.1244 -0.1869  0.0759
14764W        W35044   4.511   0.114  10.906  0.0266 -0.0352  0.1648
14765W        W35045  19.664   4.068   1.212  0.0162 -0.0843 -0.0898
14766W        W35046  11.890   5.505  10.996 -0.1042  0.0637 -0.2352
14767W        W35047   3.035   6.537   1.049 -0.1728  0.2910  0.0315
14768W        W35048  13.111  14.043   3.096 -0.2332 -0.0322  0.1588
14769W        W35049   6.328   5.373   3.424 -0.3425  0.0409  0.0013
14770W        W35050  11.045   2.526  11.295  0.1724  0.1503 -0.1851
14771W        W35051  17.395   6.330  13.314  0.0694  0.2222  0.1308
14772W        W35052  14.231  10.891   2.058  0.0391  0.2869 -0.4088
14773W        W35053   4.011  14.208  11.091 -0.2298  0.3037  0.1274
14774W        W35054   5.351   6.028  12.022  0.0515  0.1617  0.3960
14775W        W35055  19.339  12.399   0.351 -0.3208  0.0783  0.1502
14776W        W35056  14.775  12.144   9.463  0.0481  0.1135  0.2183
14777W        W35057   4.088   7.598   3.498  0.2336 -0.1915 -0.2021
14778W        W35058   1.842   3.003  10.249 -0.0362  0.1103  0.0921
14779W        W35059  18.835  18.980   1.050 -0.1779 -0.0476 -0.0147
14780W        W35060   2.803  11.501  10.315  0.0332  0.1538  0.0809
14781W        W35061  16.014   8.133   9.950  0.1915 -0.3238  0.1533
14782W        W35062  14.138   2.434  12.111  0.0732 -0.1061  0.1899
14783W        W35063   0.788  15.907  11.472 -0.1175 -0.0960 -0.0837
14784W        W35064  14.992  18.283   3.443 -0.1597  0.1724 -0.0354
14785W        W35065   1.533  14.343   0.027 -0.0137 -0.2906  0.0320
14786W        W35066  12.177   2.090   1.615 -0.1172 -0.2675  0.1848
14787W        W35067  12.992  17.542  10.260 -0.1338 -0.1414 -0.2804
14788W        W35068  18.846   3.775   1.766  0.0762 -0.2824  0.1376
14789W        W35069  10.612   1.149  10.665  0.0824 -0.2430 -0.0005
14790W        W35070   2.177  10.043  12.966  0.0488 -0.0956 -0.0490
14791W        W35071  16.390   4.147  13.058  0.3534 -0.0247  0.0704
14792W        W35072  15.823  18.083  13.724  0.0432  0.5259 -0.2160
14793W        W35073   0.728   1.540   0.883 -0.0802 -0.1992  0.4473
14794W        W35074   2.623   7.327   0.906 -0.0631  0.1103  0.0096
14795W        W35075   6.038   4.919  10.826 -0.1607 -0.0650  0.1667
14796W        W35076  10.829  19.932   0.035  0.0814 -0.3253  0.0388
14797W        W35077  13.855  10.020   4.188  0.0464  0.0642 -0.2185
14798W        W35078  19.484  13.255   0.241  0.0383  0.4414  0.0790
14799W        W35079  15.390  10.613  13.758 -0.0705 -0.0976  0.0245
14800W        W35080  16.991   8.852   0.060  0.0802 -0.2583 -0.0391
14801W        W35081   2.601   8.042   1.499  0.0159  0.1274 -0.0326
14802W        W35082  13.537  15.465  10.185  0.2472  0.2435  0.2480
14803W        W35083   5.984   6.539   2.146 -0.0554  0.0029  0.1772
14804W        W35084   0.409   2.107   9.434 -0.1176  0.1240  0.1804
14805W        W35085  12.724  18.834   3.413 -0.3733 -0.1379 -0.1672
14806W        W35086   6.148   8.902  12.711 -0.3317  0.0516  0.2230
14807W        W35087   1.189   5.284   1.338 -0.1810 -0.0096 -0.1995
14808W        W35088  15.985  13.052  12.423  0.1829  0.2188 -0.0647
14809W        W35089  16.237   7.127  11.043 -0.2428  0.1014  0.1129
14810W        W35090  15.810  19.753  10.438  0.0572  0.1370  0.0133
14811W        W35091  17.642   7.639  10.825 -0.0447  0.0269  0.0237
14812W        W35092  18.551   0.638   3.345 -0.0954  0.0180  0.1426
14813W        W35093  17.517  16.746   2.607  0.1827  0.4536 -0.1023
14814W        W35094  16.516  12.090   0.140  0.0009 -0.1705  0.3327
14815W        W35095   3.825  18.679  12.576 -0.1220  0.0792  0.1227
14816W        W35096   1.143  18.639   3.263  0.3074  0.0561 -0.1730
14817W        W35097   4.302   6.815   1.594  0.0620  0.4499  0.0711
14818W        W35098   3.181   9.729  10.348 -0.0602  0.5025 -0.3561
14819W        W35099   4.140   6.027  10.783 -0.1710  0.0449  0.3252
14820W        W35100  14.552   6.921   1.327 -0.0629  0.1647 -0.1962
14821W        W35101   1.811  13.654   1.959  0.1372 -0.2327  0.1022
14822W        W35102   5.280   3.408   2.434 -0.1668 -0.1963  0.2978
14823W        W35103  15.331  15.284   2.206 -0.1752  0.2931  0.1991
14824W        W35104  15.929   5.192   1.104  0.0172  0.3591  0.0488
14825W        W35105  11.295  11.373   4.740 -0.2993  0.0717  0.4794
14826W        W35106   0.555  15.454  12.342 -0.0882  0.3798  0.1385
14827W        W35107   4.408   9.229   1.518  0.1652 -0.1881  0.0947
14828W        W35108   1.546   0.464   4.174 -0.1167 -0.2717 -0.2850
14829W        W35109  19.583  15.586   3.224 -0.2051  0.1749  0.0731
14830W        W35110  15.870  18.583   3.306 -0.0060 -0.1044  0.1362
14831W        W35111   4.532  15.987   0.416 -0.2078 -0.0184 -0.0196
14832W        W35112   9.199   3.761  11.013  0.0341  0.1972 -0.2043
14833W        W35113  18.154  15.778   2.691 -0.1510  0.0157 -0.1267
14834W        W35114   5.188  12.468  10.979  0.0123  0.3368 -0.0281
14835W        W35115  13.954   0.984  11.882 -0.2784  0.1201 -0.0662
14836W        W35116  13.832  11.505   2.690 -0.0877 -0.2033  0.0629
14837W        W35117  17.612  19.579   9.867  0.0443 -0.3721  0.0940
14838W        W35118   2.840   5.918   1.806  0.0978 -0.0621  0.2754
14839W        W35119  11.213   9.389   1.886  0.1802  0.1317 -0.0988
14840W        W35120   3.132  12.025   0.681 -0.1443  0.1229 -0.2018
14841W        W35121   9.980  10.196   3.919  0.2052  0.0580  0.3069
14842W        W35122  19.478  14.161  10.621 -0.2783  0.0548 -0.1206
14843W        W35123   6.981  16.323   0.067  0.0415  0.1545  0.2645
14844W        W35124  16.716   7.884   2.693 -0.0202 -0.1132 -0.2069
14845W        W35125  16.984   2.029   1.864  0.1667 -0.0912  0.0472
14846W        W35126   2.209   4.309   1.118 -0.1580  0.1024  0.0085
14847W        W35127  18.848   0.212   0.357 -0.2231 -0.1791  0.0367
14848W        W35128   5.148  15.374   3.202 -0.0974  0.0688 -0.0938
14849W        W35129  15.320  19.456  11.965  0.2389  0.1066 -0.1325
14850W        W35130   5.849   4.865   2.731 -0.2336 -0.0137  0.0488
14851W        W35131   1.964   5.355  13.645  0.1471 -0.0540  0.1519
14852W        W35132  15.727   0.192  11.603 -0.2832 -0.0002  0.0990
14853W        W35133  10.741   1.078  12.711  0.0102  0.0745  0.1596
14854W        W35134   2.368   7.711   0.646 -0.1047 -0.0257 -0.1614
14855W        W35135  17.555   0.121   9.633  0.1496 -0.2032  0.4811
14856W        W35136  18.571  13.490   1.862 -0.2934 -0.2914 -0.3428
14857W        W35137  19.153  15.010  10.206  0.2330  0.1337 -0.0942
14858W        W35138   4.758   5.260  13.792  0.0861  0.1586 -0.3747
14859W        W35139  17.637  13.396  10.584 -0.0133  0.0232  0.1048
14860W        W35140   7.422   1.290   1.029  0.1628  0.2519 -0.5606
14861W        W35141   1.868   8.032  11.000 -0.0230 -0.0804 -0.0945
14862W        W35142   2.813   2.886  10.569  0.0815  0.0142 -0.0946
14863W        W35143  10.926   2.989   1.593 -0.1211 -0.1344 -0.0452
14864W        W35144   8.965   8.869  12.256  0.2053  0.3040 -0.1506
14865W        W35145  10.268   1.078  12.580  0.3065 -0.1993  0.2708
14866W        W35146  17.960  17.507   0.934  0.0837  0.1197 -0.0291
14867W        W35147  14.831   9.493   1.776 -0.0176 -0.0795  0.2452
14868W        W35148   9.935   2.377   9.700 -0.0702  0.3589 -0.3931
14869W        W35149  14.681  15.207   9.539 -0.2299  0.0352  0.0331
14870W        W35150  12.130   8.166   2.452  0.1439 -0.1916 -0.0275
14871W        W35151   0.112   7.592   0.495  0.1976 -0.0792  0.2993
14872W        W35152  19.490  17.609  12.296  0.0399  0.1463 -0.2276
14873W        W35153  19.656  11.318   1.267  0.4373  0.1131 -0.0139
14874W        W35154   0.208   0.766   9.760  0.1084  0.1627 -0.2140
14875W        W35155  10.620   5.558   3.168  0.0939  0.0628 -0.1058
14876W        W35156   4.360   6.453  10.566 -0.0709  0.1375 -0.0909
14877W        W35157   0.992  19.135  10.649  0.3246 -0.0980  0.1015
14878W        W35158   2.475   1.729  13.611  0.0376 -0.2217 -0.1060
14879W        W35159  15.571  11.625   9.861  0.2388 -0.1205  0.1357
14880W        W35160   3.286  19.589  11.922 -0.3768 -0.4999 -0.0644
14881W        W35161  12.224  16.881   4.832 -0.2453 -0.0103 -0.1565
14882W        W35162   6.567  19.385   2.201 -0.3692 -0.0914  0.0140
14883W        W35163   8.808   8.243   4.731  0.2870  0.0100  0.0038
14884W        W35164   1.100  11.459   2.451  0.1327 -0.0717 -0.0008
14885W        W35165   4.185  13.922   2.995  0.0325  0.2226  0.0786
14886W        W35166   1.720  11.808  11.581  0.0489  0.1329  0.0033
14887W        W35167   6.315   1.106   4.065 -0.2714  0.0158 -0.0124
14888W        W35168   6.560  19.507   1.647 -0.0551  0.1647  0.2533
14889W        W35169   5.300  15.906  11.586 -0.2531  0.1373  0.2406
14890W        W35170  18.800  14.166   3.145  0.1586  0.0397  0.0069
14891W        W35171  10.152   2.759  11.633  0.0208  0.1490  0.1166
14892W        W35172   2.365  18.677   3.455  0.2060 -0.1353 -0.2444
14893W        W35173   1.161  13.467   2.426  0.0574  0.0696  0.1415
14894W        W35174   4.435  10.961  13.138 -0.1739 -0.2072 -0.0207
14895W        W35175  15.936   7.822   3.596  0.0507  0.0797  0.0029
14896W        W35176  14.938   6.723   0.985 -0.0299  0.0058  0.0540
14897W        W35177  12.629   0.357  10.486 -0.2772  0.0628  0.0004
14898W        W35178  10.658  19.460  11.513 -0.1965 -0.2427 -0.1451
14899W        W35179   0.216   0.027   1.397 -0.1525  0.3870  0.2791
14900W        W35180  15.370   4.721  13.044  0.1075  0.0858 -0.1335
14901W        W35181   9.238   5.374   0.536 -0.1558  0.0015  0.6261
14902W        W35182   6.541  10.749  10.250 -0.1706 -0.1564  0.0224
14903W        W35183   0.997  18.532  10.533 -0.1380  0.0248 -0.1618
14904W        W35184  19.939  10.249  12.103  0.3500 -0.1113 -0.1439
14905W        W35185   1.124   2.182   4.295  0.1175  0.1158 -0.0467
14906W        W35186   7.886  14.206  12.337 -0.2340 -0.1198 -0.1675
14907W        W35187  15.223  13.174   2.074 -0.2513  0.1506 -0.0880
14908W        W35188   0.916  14.570  12.620  0.2331 -0.2622 -0.1231
14909W        W35189  18.771  13.685  10.431  0.0085  0.0340 -0.0903
14910W        W35190  14.001  17.826  10.068 -0.0257 -0.2482 -0.2106
14911W        W35191   1.438   4.618  12.655  0.0549  0.1173  0.4189
14912W        W35192  13.379   2.155  10.360  0.0107 -0.0839 -0.0535
14913W        W35193  14.158   1.170   3.135  0.1856  0.3459 -0.0932
14914W        W35194  12.487   4.384   1.497 -0.0269  0.0241  0.0214
14915W        W35195   0.694   3.826   0.233 -0.0236 -0.1053  0.1364
14916W        W35196   1.430   4.283  11.671  0.1385 -0.0738 -0.1731
14917W        W35197  13.971  14.884  13.465  0.2605 -0.0335  0.0433
14918W        W35198   5.335  11.801  12.061 -0.1665 -0.0899 -0.0235
14919W        W35199  16.055   2.897   1.448  0.1040  0.0291  0.4340
14920W        W35200  15.296   8.692   3.840  0.2138 -0.0524  0.0301
14921W        W35201  14.481  12.405  13.224 -0.2000 -0.0224  0.0414
14922W        W35202   4.312  19.602  10.797  0.2490  0.1252  0.0737
14923W        W35203  12.465  14.813   3.517 -0.1287 -0.1002  0.2314
14924W        W35204  10.971  12.798  13.139 -0.2799  0.0429  0.0964
14925W        W35205  11.522  11.471  13.606  0.1258  0.1246 -0.1101
14926W        W35206  11.161   3.102   3.727 -0.1381  0.0494  0.0854
14927W        W35207   4.989  11.479   3.423 -0.0099 -0.0008  0.0299
14928W        W35208   6.596   2.846  10.924 -0.0396 -0.1960 -0.1362
14929W        W35209  10.433  15.026   1.343 -0.0381 -0.0519  0.1633
14930W        W35210  17.230  11.773  11.833 -0.0516 -0.1140  0.1793
14931W        W35211   2.829   7.926  13.221 -0.1822 -0.0970  0.1214
14932W        W35212  11.791  14.813  13.807  0.0793 -0.0673 -0.2245
14933W        W35213  14.813   7.293   3.033 -0.1290  0.3772 -0.0858
14934W        W35214   3.045   5.705  12.563  0.0453 -0.2940 -0.3827
14935W        W35215  16.864  12.171  13.036  0.0480  0.0759 -0.1215
14936W        W35216   7.723  14.522  13.244  0.3290  0.0967 -0.0482
14937W        W35217   3.273  18.427   2.848  0.2975  0.0249  0.0103
14938W        W35218   5.193   5.532  12.849 -0.1238 -0.1152  0.5997
14939W        W35219   2.790   5.057  10.607  0.1415 -0.0619 -0.0825
14940W        W35220   6.558  14.095   1.076  0.2469 -0.0319  0.1598
14941W        W35221   5.739  19.946   1.434 -0.2875 -0.2952  0.3338
14942W        W35222  19.870   9.074   1.623  0.1641 -0.2457  0.1676
14943W        W35223  19.758   6.475  13.680  0.4052  0.1101 -0.0018
14944W        W35224  12.349  13.227  13.238 -0.2519 -0.1974 -0.1338
14945W        W35225   1.627   8.842   3.583  0.2397 -0.3045  0.0051
14946W        W35226   9.381   6.187  12.183 -0.3748  0.0654 -0.0131
14947W        W35227  14.856  18.413   2.964  0.0282  0.0133 -0.1215
14948W        W35228   2.985  17.083  13.044 -0.0978  0.0356  0.0458
14949W        W35229   8.809  11.734  12.505 -0.1089 -0.1564  0.1326
14950W        W35230   9.488   0.109  12.794 -0.1097 -0.0722 -0.4774
14951W        W35231  16.420  18.580   2.934 -0.0212  0.0688 -0.0169
14952W        W35232  11.786   5.554  13.794  0.1707  0.0611 -0.3245
14953W        W35233   8.426   2.171  11.977 -0.1061 -0.1356  0.0536
14954W        W35234   2.529  14.523  11.341  0.1698  0.1299 -0.0960
14955W        W35235  13.927   4.988   2.481  0.0804 -0.1155  0.0093
14956W        W35236   3.879   5.802  12.961  0.1704 -0.0822  0.0228
14957W        W35237  18.925  11.724   3.913 -0.1793 -0.2225  0.1281
14958W        W35238   6.283  12.516  13.138 -0.0556  0.0804 -0.0400
14959W        W35239  14.115   3.682  11.448  0.2105  0.0063 -0.1023
14960W        W35240  17.066  14.358   9.965  0.0306 -0.3914  0.1419
14961W        W35241   1.237  18.596   0.758 -0.2872 -0.1900  0.2598
14962W        W35242   1.039  10.869   3.144 -0.4239 -0.2034 -0.2571
14963W        W35243   5.169   2.794  11.030  0.0876  0.0065  0.0029
14964W        W35244  11.330   0.098  11.789  0.0360 -0.0396 -0.1259
14965W        W35245   2.827   5.757   2.948  0.4098 -0.1854 -0.1026
14966W        W35246   9.685   4.449   2.541  0.0595  0.2084  0.1606
14967W        W35247  16.513   2.995  11.163  0.1970  0.1431  0.0520
14968W        W35248   3.400   6.805   3.648 -0.1314 -0.2161 -0.2765
14969W        W35249  17.348   1.029  11.547  0.0218 -0.2392  0.0747
14970W        W35250   7.383  11.305   2.342 -0.0044 -0.2188  0.1518
14971W        W35251  19.740   8.419  12.869 -0.4765  0.0474 -0.0714
14972W        W35252  10.937  12.525  10.194  0.0337 -0.1619  0.0659
14973W        W35253  15.882   5.811  11.231 -0.3871 -0.1127  0.1356
14974W        W35254  17.294   5.733  10.155 -0.2085 -0.0014 -0.1394
14975W        W35255   1.746  12.587  10.511 -0.0905  0.0002  0.2524
14976W        W35256  10.020   9.141   2.194  0.0195  0.1731 -0.0231
14977W        W35257  11.255   8.443   0.140  0.2761 -0.0755  0.1271
14978W        W35258   8.020  10.848  11.297 -0.1022  0.4566 -0.0892
14979W        W35259  13.232  19.226   9.932 -0.3109 -0.1081  0.6269
14980W        W35260  18.879  11.484  11.999  0.1127 -0.1662  0.1031
14981W        W35261   0.232  15.764   1.355  0.0525 -0.1210 -0.0052
14982W        W35262   3.057   3.424   2.301 -0.3336  0.1063 -0.1867
14983W        W35263  11.629  16.683   4.090  0.1505 -0.0252 -0.1531
14984W        W35264   6.690   3.993  11.956 -0.4100 -0.0111 -0.1216
14985W        W35265   2.399   8.254   0.609 -0.1022  0.0170 -0.1824
14986W        W35266  13.595   6.589  10.016 -0.1214  0.2601  0.0392
14987W        W35267   4.202  13.324  10.610 -0.2608  0.2644  0.1390
14988W        W35268  17.954   3.934   2.770  0.1983 -0.1383 -0.0157
14989W        W35269   7.010   3.456   1.851  0.0200  0.1865  0.0647
14990W        W35270   7.155   7.897  10.720 -0.0110  0.1615 -0.0291
14991W        W35271  13.137  12.297   2.680  0.2317 -0.2138 -0.0200
14992W        W35272  15.385   8.320   3.027 -0.0832  0.0839  0.1782
14993W        W35273  18.582   2.853   4.592 -0.0168  0.2786 -0.0857
14994W        W35274   2.866  11.713  13.549  0.1427  0.1928 -0.0290
14995W        W35275   2.965  14.778  12.668 -0.0231  0.2982  0.0027
14996W        W35276   7.368  15.555  10.904 -0.2423 -0.0392  0.0321
14997W        W35277   5.386   1.509  11.507  0.2840 -0.0539  0.0548
14998W        W35278  13.430   7.549   1.964 -0.1752 -0.3442  0.1665
14999W        W35279  15.744  19.350   2.244 -0.0006  0.1373  0.2476
15000W        W35280  10.663  12.592  11.296  0.0650  0.0068  0.1298
15001W        W35281  14.728   5.824  10.633  0.3209 -0.0563 -0.2963
15002W        W35282   8.920  13.045  12.568  0.0940 -0.2226 -0.0260
15003W        W35283   4.285  13.114   3.206 -0.1077 -0.0944 -0.0279
15004W        W35284  15.832  16.738   1.897 -0.1349 -0.3062  0.0631
15005W        W35285   5.567   9.893   9.554  0.0652 -0.0864  0.0644
15006W        W35286   2.892   2.597   2.324  0.2081  0.0657 -0.1098
15007W        W35287  12.548   3.881   9.594 -0.1501 -0.1066  0.0001
15008W        W35288   2.011   7.540  11.050 -0.1277  0.5069 -0.1375
15009W        W35289   0.879  10.042  12.355 -0.0174  0.1172  0.0954
15010W        W35290   6.189   3.695  11.180 -0.1804 -0.1386 -0.0986
15011W        W35291   3.311   2.645   0.257  0.1658 -0.1726  0.1029
15012W        W35292   3.802   2.441   2.049  0.3328  0.0730  0.1468
15013W        W35293   7.415  16.104   0.048 -0.4177 -0.2663  0.1803
15014W        W35294  19.161   8.007  10.336 -0.0857 -0.2069  0.0313
15015W        W35295  17.565  14.139   0.572  0.1095 -0.0333 -0.0917
15016W        W35296  16.227   7.685   3.992 -0.1351  0.1552 -0.0068
15017W        W35297   3.001   1.306   3.398 -0.0980  0.1244  0.1603
15018W        W35298  18.948   5.084   2.167  0.1531  0.1062 -0.0898
15019W        W35299   0.635  17.976   4.658 -0.1563  0.0340 -0.0856
15020W        W35300  13.798  10.009  12.581  0.0430  0.1411  0.3665
15021W        W35301   1.021  10.939  12.842 -0.0528 -0.0536  0.0814
15022W        W35302  19.774  19.216  11.925 -0.4473 -0.0407  0.3454
15023W        W35303   8.746   1.357   0.980 -0.0476  0.0559  0.0133
15024W        W35304   0.733  16.573   3.624 -0.2045  0.0440  0.2874
15025W        W35305  18.768   9.914  11.136 -0.1346  0.1794  0.2187
15026W        W35306  19.689   0.136  11.970  0.1602  0.0607 -0.0910
15027W        W35307   6.649   3.399   2.259 -0.1136  0.1754 -0.0327
15028W        W35308  13.695   1.555   3.307 -0.0024  0.1356 -0.0160
15029W        W35309   3.454   0.193  12.044 -0.0772  0.1778 -0.0538
15030W        W35310   1.973   2.887   3.612 -0.0987 -0.1140  0.3199
15031W        W35311   3.784   9.078  12.127  0.0194 -0.2836  0.3478
15032W        W35312  10.418  10.494  11.193  0.0159 -0.0207 -0.1807
15033W        W35313  19.443  19.947  12.940 -0.0936 -0.0821 -0.1575
15034W        W35314  13.557  12.101   2.502 -0.0711 -0.0146  0.0654
15035W        W35315   1.020  14.564  10.930  0.1145  0.2541  0.0214
15036W        W35316  10.075   7.898  13.047 -0.2061  0.1811 -0.2719
15037W        W35317   3.456  15.154  11.332 -0.1572 -0.0712 -0.3531
15038W        W35318  11.431   2.908  11.200 -0.2994  0.0300 -0.1140
15039W        W35319   7.756  15.670  12.285  0.0140  0.0657  0.1458
15040W        W35320  16.455   9.724   0.068  0.1918 -0.1878 -0.1898
15041W        W35321   0.255   9.292   0.317  0.2684  0.1899 -0.4650
15042W        W35322   7.838   5.641  13.358  0.1248 -0.0345  0.3051
15043W        W35323   6.145   2.444  13.536 -0.3620 -0.0634 -0.0882
15044W        W35324   7.970   1.583  12.914 -0.0044  0.3069  0.0179
15045W        W35325   1.958   4.165   1.620  0.0851  0.3491 -0.0199
15046W        W35326  12.382  15.796   0.318 -0.0190  0.0041  0.0139
15047W        W35327   3.143  15.209   2.611  0.0601  0.0366 -0.0010
15048W        W35328  15.134  14.536   0.766  0.0332 -0.1304 -0.3882
15049W        W35329   2.640   0.975   3.153 -0.2679  0.0414  0.1366
15050W        W35330  10.289  13.551  10.928 -0.1789 -0.1192 -0.2923
15051W        W35331   2.275  17.979   2.101 -0.2925 -0.2157  0.0748
15052W        W35332   7.335   3.784   2.086  0.0106  0.1901  0.3584
15053W        W35333   9.140  13.114  12.080 -0.1212  0.1106 -0.2191
15054W        W35334   1.604   5.361   3.358  0.2041 -0.0120 -0.0837
15055W        W35335  14.177   1.983   1.625  0.0534 -0.0841 -0.0823
15056W        W35336  14.234   1.431  13.105 -0.1957 -0.0059 -0.3574
15057W        W35337  19.689  18.667  11.805  0.0447 -0.3925  0.0056
15058W        W35338  17.630  16.037  10.070 -0.0355  0.0775  0.0234
15059W        W35339  16.770   4.035   2.959  0.3490 -0.2569  0.0700
15060W        W35340  16.663   0.418   2.979  0.2944 -0.1453 -0.1404
15061W        W35341  17.454   7.671   9.946 -0.2652 -0.1480  0.2055
15062W        W35342  18.414  18.444   3.392  0.0073 -0.2796 -0.1431
15063W        W35343  10.554   5.369  12.423 -0.2879 -0.5504 -0.1251
15064W        W35344  13.644  11.934   1.427  0.1858 -0.1564 -0.1785
15065W        W35345  13.343   9.248   0.876  0.0004 -0.1463 -0.1353
15066W        W35346  13.159   7.379  12.304  0.3418 -0.0957 -0.1561
15067W        W35347   7.565   8.761   2.855  0.2291 -0.2483 -0.2437
15068W        W35348  14.015  18.645   2.683 -0.0446  0.0549 -0.0509
15069W        W35349  15.109  15.283   0.085  0.0798 -0.0658 -0.1143
15070W        W35350  18.311   4.854  11.618 -0.1035 -0.0035  0.0947
15071W        W35351   1.377  12.294   1.271 -0.1143 -0.1722 -0.0722
15072W        W35352   6.190  14.872  12.635 -0.0273 -0.0278  0.6766
15073W        W35353   6.210  16.888  12.185  0.1152  0.2066 -0.2937
15074W        W35354   7.173  12.645   4.582  0.3145 -0.0786 -0.1086
15075W        W35355   9.084  15.621  10.440 -0.0521  0.0590 -0.3293
15076W        W35356  11.235   7.252  12.451 -0.0372  0.0207 -0.0110
15077W        W35357  18.247   3.497   0.258 -0.1342  0.3977  0.1597
15078W        W35358   2.872   3.236  11.542  0.1418  0.1535  0.0723
15079W        W35359   6.357  19.391  11.326  0.3472  0.0925 -0.0546
15080W        W35360   2.284  11.465  11.735  0.1759 -0.2871  0.0238
15081W        W35361   6.211  12.866   0.802  0.1786  0.0878 -0.0109
15082W        W35362   9.297   0.110   0.838  0.1657 -0.3222 -0.0788
15083W        W35363  13.744   3.527   0.150 -0.0059 -0.0889  0.0282
15084W        W35364   2.128  10.066  10.561 -0.5048 -0.1374 -0.0275
15085W        W35365  16.393   9.373   3.703 -0.3617 -0.0592 -0.0612
15086W        W35366  16.221   4.013   0.435 -0.0970 -0.2216  0.1600
15087W        W35367  19.570  10.870   2.233  0.2255 -0.0311  0.3321
15088W        W35368  15.816  12.069  11.033 -0.1465 -0.0634  0.2333
15089W        W35369  19.672  17.427  13.399 -0.1075  0.1921  0.2484
15090W        W35370  15.714   2.678   1.775  0.2540 -0.0024  0.2519
15091W        W35371   3.488   8.056  12.035 -0.1803 -0.0794 -0.0921
15092W        W35372   0.748  19.799   3.539  0.1560 -0.0023  0.1464
15093W        W35373  16.519  12.321  10.434 -0.1814  0.1368  0.0632
15094W        W35374  19.055  19.462   3.591  0.0542 -0.1839 -0.2378
15095W        W35375   8.436   8.178   1.923  0.0364 -0.2163  0.1922
15096W        W35376   0.515   5.814   2.620 -0.0823  0.1265 -0.0508
15097W        W35377   9.076   7.349  10.549 -0.1220 -0.0555  0.1749
15098W        W35378  17.228   5.569  11.172 -0.2514  0.0850 -0.0503
15099W        W35379   2.287   7.971  11.713  0.1205 -0.2408 -0.1144
15100W        W35380   6.973  16.498   3.653 -0.2183 -0.0908 -0.4195
15101W        W35381  11.628   8.935  12.779  0.2614 -0.0771  0.0534
15102W        W35382  19.302   9.323   0.962  0.1024  0.0648  0.2515
15103W        W35383   8.460   0.179   2.152  0.1124 -0.3234  0.3005
15104W        W35384   6.648   4.276   1.672  0.1173  0.0850  0.1064
15105W        W35385  18.987  12.920   3.310  0.0530  0.0620  0.1194
15106W        W35386   0.808   4.741  10.437 -0.1167  0.0155 -0.0586
15107W        W35387   8.607  16.408   1.857 -0.2072 -0.0432  0.1022
15108W        W35388   1.862  12.203   1.449  0.0981 -0.4294 -0.0572
15109W        W35389  15.453   2.323   0.945  0.3083 -0.2754  0.1752
15110W        W35390   4.037  19.745   1.653 -0.1955 -0.1158  0.0491
15111W        W35391   1.270  12.760  11.331  0.3153 -0.1667 -0.1103
15112W        W35392  11.642  18.144  11.755  0.0789  0.0393 -0.2868
15113W        W35393  12.186  10.699  12.143  0.3398 -0.1284  0.0541
15114W        W35394   1.813  15.156  12.809  0.2216  0.0532 -0.0971
15115W        W35395   1.787  18.163   2.277 -0.3528 -0.1031  0.1097
15116W        W35396   8.402   6.549  12.286  0.0188 -0.0527  0.0504
15117W        W35397   4.866  11.407  13.369 -0.0939 -0.3285 -0.1541
15118W        W35398  13.753  18.232  11.691 -0.0705  0.0372 -0.0591
15119W        W35399  11.137  19.165  13.771 -0.1742 -0.2896 -0.0158
15120W        W35400  17.668   3.009   2.526  0.0828 -0.0457  0.0897
15121W        W35401  11.969  19.842   2.815 -0.4472 -0.0587 -0.0173
15122W        W35402  11.181  10.359  13.411 -0.1559  0.3120 -0.1502
15123W        W35403  10.722   8.239   1.754 -0.4518  0.1302 -0.0176
15124W        W35404  13.649  13.034  13.485 -0.3053 -0.0482  0.2933
15125W        W35405  11.343   5.774   0.594  0.2115  0.1126 -0.0394
15126W        W35406   7.257   7.256   3.013  0.1878 -0.0224  0.2482
15127W        W35407   4.985  14.079  12.236 -0.0157 -0.1338 -0.0173
15128W        W35408  13.783   2.788  12.076  0.0029  0.2206  0.0727
15129W        W35409  15.871   2.235   1.693 -0.1897  0.0818 -0.0208
15130W        W35410  14.616  11.184   1.932  0.0755  0.0280  0.0289
15131W        W35411   2.607  17.931  12.226  0.1816 -0.2940  0.0571
15132W        W35412   2.946  11.492  12.650  0.4260  0.2971 -0.0920
15133W        W35413   1.093   0.895   0.553 -0.1783  0.0494  0.0716
15134W        W35414  14.494   8.968   2.479 -0.0644 -0.2622  0.1085
15135W        W35415   4.561   4.555  12.506  0.1566  0.0805  0.3586
15136W        W35416   3.506  13.907  10.557  0.0905 -0.3672 -0.2570
15137W        W35417  15.839  12.674  13.426  0.1680 -0.0280 -0.2249
15138W        W35418   5.160  14.398   0.967  0.1048 -0.0559 -0.0136
15139W        W35419  19.701  17.884  13.119  0.2353  0.0827  0.1053
15140W        W35420  10.113  16.012   3.356 -0.0708 -0.2318 -0.0233
15141W        W35421  14.194  12.531   1.208  0.0526  0.3809  0.1334
15142W        W35422   3.628   3.595  12.041 -0.0184 -0.0463 -0.0485
15143W        W35423   0.271   9.253   2.954  0.1571  0.2426  0.3161
15144W        W35424  12.014  10.529   4.824 -0.1362 -0.0738  0.5011
15145W        W35425   2.660  12.822  11.379  0.2374  0.0089 -0.4419
15146W        W35426  10.954   2.936  13.076 -0.0230 -0.0422 -0.0650
15147W        W35427   7.829   7.551  12.291  0.0930 -0.1644  0.1365
15148W        W35428   8.997  17.193   3.913  0.0740  0.2403  0.1397
15149W        W35429  16.359   7.842   9.645  0.0559  0.2345  0.0696
15150W        W35430   0.861   1.009  13.134  0.0739 -0.1906  0.0513
15151W        W35431   8.499  19.014  10.603  0.2242 -0.1780  0.2182
15152W        W35432  10.417  13.925  13.179 -0.1403  0.0247  0.2375
15153W        W35433   6.639   7.870   3.872 -0.1054  0.1531 -0.1443
15154W        W35434   1.876   8.246   1.200  0.1370  0.1813 -0.2147
15155W        W35435  14.722   3.247   2.027  0.0189 -0.1815  0.0373
15156W        W35436   4.056  15.441   3.313  0.1187 -0.2369 -0.0502
15157W        W35437   5.498   8.794  11.703 -0.1687  0.4534  0.3014
15158W        W35438  12.646  10.791  12.527 -0.0205 -0.1326  0.0453
15159W        W35439  10.881   5.452   0.537 -0.0903 -0.5020  0.0316
15160W        W35440  17.047  19.472   0.765  0.2368  0.2533  0.0057
15161W        W35441   5.177   1.900   2.896  0.2876 -0.0357  0.2225
15162W        W35442  12.427  19.668   0.657 -0.0119 -0.2825  0.1485
15163W        W35443  14.093   9.077  11.637 -0.1474  0.2911 -0.0796
15164W        W35444   1.549   3.751  13.420 -0.2328 -0.0436  0.2080
15165W        W35445   1.249  11.343  10.206  0.1999  0.0718 -0.3726
15166W        W35446   9.960   2.166  13.501 -0.2968  0.2508 -0.1996
15167W        W35447  14.634   5.601   3.392 -0.0053 -0.1996  0.2603
15168W        W35448   1.115   9.143   4.201  0.1892  0.4338  0.0248
15169W        W35449   0.774   1.067   2.781 -0.0331 -0.0089 -0.2007
15170W        W35450  18.628   4.466  11.739 -0.1470 -0.0656 -0.2162
15171W        W35451  12.480  17.767   3.486  0.2715 -0.1656  0.0576
15172W        W35452  18.350   3.614   1.501  0.2175  0.1727  0.2354
15173W        W35453  13.454  15.134  12.264 -0.2048  0.1470 -0.2697
15174W        W35454   0.570   7.378   1.233  0.0361 -0.1183 -0.0291
15175W        W35455  11.949  11.333   1.820  0.0348  0.4592  0.1159
15176W        W35456   2.375  16.743  10.748 -0.1289 -0.0418 -0.0084
15177W        W35457   7.396   1.033  10.206 -0.3725 -0.1055  0.0841
15178W        W35458  14.015  17.895  13.783 -0.1890 -0.1721 -0.3394
15179W        W35459   0.513  19.245  10.798  0.1995 -0.2890 -0.0291
15180W        W35460  19.656  17.328  10.607  0.1333  0.0674  0.2159
15181W        W35461  17.220   1.265  11.138 -0.2109  0.1707  0.1018
15182W        W35462  15.997   8.377   2.460 -0.0088 -0.0555 -0.0377
15183W        W35463  14.870  19.046  13.346  0.0739  0.0341 -0.0457
15184W        W35464   3.126  16.810   4.780  0.0540  0.2704 -0.2498
15185W        W35465   0.251   3.640  13.853 -0.2051  0.1393  0.3167
15186W        W35466  17.580  19.445   2.095 -0.2537 -0.0111  0.3683
15187W        W35467  11.909  15.362   1.766  0.3672  0.1453  0.3440
15188W        W35468  12.960  15.570  11.029  0.1533  0.0718  0.0914
15189W        W35469   3.164  11.867   2.867 -0.0542 -0.1729  0.3120
15190W        W35470  11.638   5.923   1.332 -0.1093 -0.0908 -0.2287
15191W        W35471   4.658   3.317   0.455  0.1719  0.4014 -0.0667
15192W        W35472  16.971  12.135  13.637  0.1118  0.0158 -0.3022
15193W        W35473  19.606  18.229   1.916 -0.3524  0.1230  0.1552
15194W        W35474   3.504   5.240  12.418 -0.2584 -0.2436  0.0767
15195W        W35475  11.716  13.938   2.971  0.0604 -0.1091  0.0811
15196W        W35476  16.537   1.884  11.219  0.0669 -0.0080 -0.2860
15197W        W35477  10.446  13.300  12.476  0.2319 -0.3614 -0.1402
15198W        W35478  17.863   4.217  11.407  0.0934  0.0512 -0.1087
15199W        W35479   5.308   3.837   3.922  0.0355 -0.0087  0.1761
15200W        W35480  14.473  17.641  10.896 -0.2566  0.2082  0.0387
15201W        W35481   3.697  18.452   2.621  0.1502 -0.0393 -0.3233
15202W        W35482  17.124  16.642   3.163  0.2458  0.2077 -0.0662
15203W        W35483   5.449   9.037  12.654  0.0648 -0.1854  0.2094
15204W        W35484  16.132  18.442   9.803  0.0742 -0.1064  0.1692
15205W        W35485  12.088   2.312  10.934 -0.0251 -0.3613 -0.1317
15206W        W35486  11.718   1.016   0.711 -0.0478  0.0915 -0.3201
15207W        W35487   8.353  10.823   2.564  0.1968  0.4908 -0.2533
15208W        W35488  15.205   6.624  10.993  0.0306  0.1668  0.3652
15209W        W35489   7.759   4.075   0.688  0.0337  0.0319 -0.0039
15210W        W35490   7.916  14.964  11.225 -0.0646 -0.1009 -0.1701
15211W        W35491  11.603  19.945   4.741  0.0523  0.0049  0.1686
15212W        W35492   8.480   1.698   0.683  0.0757  0.1695  0.0242
15213W        W35493  13.207   0.943   0.230 -0.1297 -0.0551 -0.1691
15214W        W35494  17.629   1.014   3.394  0.1171 -0.3778 -0.1146
15215W        W35495   1.498   1.397   1.776 -0.0020  0.1696  0.1542
15216W        W35496   8.333   3.570   2.545  0.1016  0.2024 -0.1268
15217W        W35497  15.225   8.297   2.031  0.1213  0.0432 -0.1639
15218W        W35498   8.946  19.367  11.389 -0.2454  0.0632 -0.0712
15219W        W35499  14.748  17.204  10.241 -0.1373 -0.1292 -0.1094
15220W        W35500  12.969  19.224   3.020  0.1611  0.2088 -0.3067
15221W        W35501  18.632  16.183  13.425  0.0528  0.2382 -0.3467
15222W        W35502  14.731   5.547   1.363  0.0598 -0.2249  0.0125
15223W        W35503  11.437   4.303  10.142  0.0190  0.3248 -0.1807
15224W        W35504  11.014  11.566  13.762  0.0342 -0.1431 -0.0563
15225W        W35505  12.482  14.765  10.038 -0.1799  0.0174  0.0562
15226W        W35506   9.019   7.703   4.057  0.1314  0.1574  0.0236
15227W        W35507  14.923   7.304   2.071 -0.2500  0.1714  0.1383
15228W        W35508  10.328   8.175  13.365 -0.1468 -0.0773 -0.3606
15229W        W35509   3.630   0.983   1.005  0.0590 -0.2887  0.1557
15230W        W35510  16.094   3.843  10.569 -0.0347  0.1633  0.0955
15231W        W35511   9.090  14.991   0.577 -0.1079  0.2682 -0.0106
15232W        W35512  11.210   0.171   4.025  0.1301 -0.1186  0.1413
15233W        W35513   3.581   1.834  10.815  0.1378 -0.1473  0.0551
15234W        W35514   4.342   5.808   0.651 -0.0926  0.0987 -0.1087
15235W        W35515   6.543  16.908  13.337 -0.0145  0.0348 -0.0600
15236W        W35516  15.237   7.151   0.776 -0.2256  0.1140 -0.3895
15237W        W35517  16.321   7.920  11.576  0.2054 -0.1913 -0.1545
15238W        W35518   7.581   0.401  12.004  0.2702 -0.1504 -0.0073
15239W        W35519   1.370   7.489   3.278  0.2151 -0.1366  0.2713
15240W        W35520   7.276  14.593  12.973 -0.0784  0.0013  0.0736
15241W        W35521  11.226   0.806  13.262  0.0554 -0.0093  0.0927
15242W        W35522   0.516  13.746   1.814  0.1145  0.0056 -0.1815
15243W        W35523  12.115   0.704  13.304 -0.1848 -0.2582  0.0249
15244W        W35524  15.704   4.347  11.725  0.0417 -0.0068  0.2207
15245W        W35525   3.287   1.078   1.369 -0.5713 -0.1945 -0.2536
15246W        W35526   2.417   8.854  13.478 -0.2165 -0.0444  0.0105
15247W        W35527   6.799   1.629   1.315 -0.0122  0.0951  0.1287
15248W        W35528  15.056  17.300   2.521  0.1313 -0.1888  0.1409
15249W        W35529  19.229  19.590   4.116  0.0435 -0.0511  0.3582
15250W        W35530  13.821   5.188  11.074 -0.0707  0.0673 -0.0229
15251W        W35531   6.672  11.606   2.874  0.1073 -0.1655  0.0805
15252W        W35532   6.875  12.713   0.943 -0.2889  0.1900  0.2396
15253W        W35533   7.602  15.956   2.512  0.0926 -0.1140 -0.0230
15254W        W35534   6.727   6.601  13.056  0.2312 -0.0250  0.1199
15255W        W35535  13.439   0.142   3.781  0.0771 -0.2094  0.0055
15256W        W35536   9.737   9.961  13.201  0.1669 -0.1013 -0.0108
15257W        W35537  15.074  19.734   1.656  0.0994  0.0916 -0.0626
15258W        W35538  18.827   5.494  11.158  0.3976  0.1012  0.1856
15259W        W35539  18.224  15.574  12.336 -0.1648  0.0290 -0.2065
15260W        W35540   9.082   5.708   4.068  0.1151 -0.2251  0.0201
15261W        W35541   1.460   4.802  10.901  0.1840  0.1050 -0.0108
15262W        W35542   0.579  17.359   3.345 -0.3340  0.0425 -0.3391
15263W        W35543  12.305   9.131  13.608  0.2081 -0.0704 -0.1294
15264W        W35544  10.280  13.685  12.249  0.1811 -0.2287 -0.1590
15265W        W35545  18.364   9.793   2.933  0.0097  0.1267  0.1051
15266W        W35546   1.935  12.470  13.596 -0.2543  0.3525  0.2217
15267W        W35547   9.544   0.433  13.643 -0.1451  0.1465 -0.3113
15268W        W35548   1.531  13.812   2.518  0.0559  0.3901  0.1153
15269W        W35549  14.065  19.891  13.616 -0.0061 -0.1762 -0.0862
15270W        W35550   6.234  10.489   3.642  0.2593 -0.2421  0.2028
15271W        W35551  17.810  18.775   2.488 -0.3437  0.1090 -0.0034
15272W        W35552  10.178  17.136  11.087 -0.1672  0.2099 -0.2812
15273W        W35553  14.302  18.308   2.950 -0.3169  0.0425  0.0263
15274W        W35554   8.941  16.284  12.720 -0.1677 -0.2786 -0.0862
15275W        W35555   2.940   1.198   2.802 -0.3072 -0.0686  0.0528
15276W        W35556  11.218  15.695   2.993  0.1376 -0.0173  0.1475
15277W        W35557   3.762  11.312   0.487 -0.0186  0.2967  0.2712
15278W        W35558  15.215  13.732   0.005  0.2179 -0.0116 -0.3282
15279W        W35559  17.939   9.889   8.796 -0.0383  0.0495  0.0491
15280W        W35560  15.324  17.715   1.151  0.2271  0.1364  0.0462
15281W        W35561   6.103  19.504   0.559  0.2307 -0.1688 -0.4351
15282W        W35562  16.973   9.467  10.867  0.1681 -0.1196 -0.0673
15283W        W35563   0.586  12.798  10.071 -0.1242  0.1787 -0.1927
15284W        W35564  11.305  13.417   1.936  0.0803  0.4535 -0.2197
15285W        W35565   5.830   4.339   1.277  0.1289  0.1306 -0.1309
15286W        W35566  16.680   3.553   9.952  0.0711  0.2798  0.0152
15287W        W35567   0.809   9.887   1.197 -0.2089 -0.0255  0.2765
15288W        W35568  12.103  14.327   0.725  0.0025 -0.2750  0.0643
15289W        W35569   2.902  13.354   3.600  0.0843 -0.1036  0.2417
15290W        W35570  14.643   1.918   0.180 -0.2891 -0.0944  0.2165
15291W        W35571   3.427   0.824   0.417 -0.0874  0.0873  0.2907
15292W        W35572  13.857   9.258   0.838  0.3186  0.1794  0.1824
15293W        W35573  10.592  11.805  12.206  0.2041 -0.2003 -0.0983
15294W        W35574   9.208  15.896  11.388 -0.0829 -0.1134 -0.1327
15295W        W35575  12.872  17.930   3.168 -0.0639 -0.1465 -0.2142
15296W        W35576   2.888  15.014   1.517 -0.0261 -0.0970 -0.4392
15297W        W35577   4.445   2.428   0.317 -0.0507 -0.0641  0.1749
15298W        W35578  13.525  16.898  10.667  0.0315  0.0075  0.1019
15299W        W35579  17.122  13.309  11.842  0.0505 -0.1520 -0.1376
15300W        W35580  11.391   8.696  11.406 -0.0900  0.0747  0.0191
15301W        W35581   7.411  10.241  10.335 -0.1921 -0.3944  0.0037
15302W        W35582  17.791  17.596   2.791 -0.2384  0.1192  0.0354
15303W        W35583  19.721   3.656  13.670 -0.1116  0.1385  0.0693
15304W        W35584   8.866   3.564   1.131 -0.1002 -0.2654  0.0250
15305W        W35585  17.488   8.116  12.763  0.0374 -0.2623  0.0708
15306W        W35586  17.100   7.029   2.091 -0.2706  0.1649 -0.3138
15307W        W35587   9.756   0.468  11.326  0.0681 -0.0753  0.0320
15308W        W35588  10.995   9.209   3.337 -0.2024 -0.0441 -0.0683
15309W        W35589   6.203   4.697   3.720  0.1991 -0.1814  0.0817
15310W        W35590  19.887  13.040  11.810  0.0795 -0.1370 -0.1728
15311W        W35591   0.629   2.769   3.538 -0.0206 -0.0071 -0.1332
15312W        W35592  16.127   7.865  10.567  0.0089 -0.0466  0.2728
15313W        W35593   0.370   3.351  11.476  0.0906  0.2236 -0.0308
15314W        W35594  15.686  10.842   0.632  0.0905 -0.0240 -0.1769
15315W        W35595  16.530  16.558  10.802  0.2090  0.0060 -0.1199
15316W        W35596  16.223  13.402  11.691 -0.0655  0.3847  0.3173
15317W        W35597   9.689   9.666   0.726 -0.0392 -0.3949  0.2453
15318W        W35598  18.868   7.769  13.823 -0.3046 -0.0603 -0.0611
15319W        W35599   7.200   7.468  10.392  0.1252 -0.1387  0.1754
15320W        W35600  11.695   8.669   0.384  0.1937  0.2074 -0.1816
15321W        W35601  11.422   9.708  11.412  0.2302 -0.0487  0.0843
15322W        W35602  11.704   1.321   9.763  0.1100 -0.0880 -0.2474
15323W        W35603   6.551   1.835  12.925 -0.1063  0.0175 -0.0136
15324W        W35604  14.492  19.526  10.714  0.2021 -0.0881 -0.3034
15325W        W35605  19.666   4.668  13.034  0.0115  0.2089 -0.1638
15326W        W35606   9.146  11.313   0.039  0.0808  0.1615  0.0622
15327W        W35607   0.814   7.169  10.626  0.0396  0.1452 -0.0042
15328W        W35608  10.969   3.967  13.298 -0.2022 -0.0964 -0.0383
15329W        W35609   8.026  16.135   2.686  0.1463 -0.2630  0.0159
15330W        W35610   6.163  19.136   4.333  0.0968  0.0502 -0.0590
15331W        W35611   9.884  14.396   2.871 -0.2136 -0.0377  0.0451
15332W        W35612   1.481   1.554  13.473  0.2114 -0.0258  0.0568
15333W        W35613  19.177   9.726   1.245 -0.1017 -0.0461 -0.1791
15334W        W35614  15.705  12.114   9.912 -0.0281 -0.0868 -0.0965
15335W        W35615  12.430  13.121  11.629 -0.0379 -0.3048 -0.0933
15336W        W35616   3.532   2.740   3.723 -0.2302  0.1330 -0.2066
15337W        W35617  14.201   4.357   0.808 -0.0095 -0.2697  0.0952
15338W        W35618   7.075  12.173   4.645 -0.1053 -0.1040  0.1027
15339W        W35619   5.048  16.932  13.229 -0.3595 -0.1318  0.2593
15340W        W35620   5.345  13.483   0.530 -0.1434 -0.2376  0.0072
15341W        W35621  17.118   0.840   3.129  0.0480 -0.1329  0.0935
15342W        W35622  13.030  17.380   2.523 -0.2186 -0.1859 -0.0084
15343W        W35623   7.668  16.380   0.533 -0.0964  0.0319 -0.0558
15344W        W35624   0.498  19.881  10.727 -0.0531 -0.1810 -0.1788
15345W        W35625  19.443  15.723  13.492 -0.2488  0.2692  0.1134
15346W        W35626   4.522  14.945   1.826  0.3286 -0.0745  0.1650
15347W        W35627   0.947   8.973   2.113  0.0511 -0.0146 -0.1599
15348W        W35628  13.932  11.623   9.741 -0.1664  0.0153 -0.0045
15349W        W35629   0.128  19.866  11.623  0.1089 -0.0740  0.4188
15350W        W35630  18.517   6.894   1.813 -0.0163  0.0074  0.1728
15351W        W35631   4.726   8.894   2.963  0.1155 -0.1325 -0.0390
15352W        W35632   2.376   6.834  10.722 -0.1111  0.0534 -0.2429
15353W        W35633   1.079   5.279   0.655  0.0106  0.0400  0.1741
15354W        W35634  18.428  10.479   9.958  0.0261 -0.6223  0.2357
15355W        W35635   7.074   8.387  12.753  0.0454  0.0813 -0.1907
15356W        W35636  13.023  17.811  11.564 -0.3024 -0.1589 -0.0559
15357W        W35637  10.518  15.708   4.048 -0.0243 -0.1918  0.1655
15358W        W35638  12.795   9.681   1.529 -0.1849  0.2165  0.3192
15359W        W35639  11.865  13.910  12.622 -0.2385  0.1965  0.1235
15360W        W35640  17.951   5.228   9.985 -0.1829  0.2106 -0.1502
15361W        W35641  13.672   7.903   2.234 -0.1753  0.1526  0.0922
15362W        W35642   8.897  15.342   3.388  0.1562  0.1085 -0.1895
15363W        W35643   6.157  19.567  12.108  0.1983 -0.2152 -0.2318
15364W        W35644  19.426  13.310   0.766 -0.2339 -0.0183 -0.2845
15365W        W35645  16.209   8.435  13.704 -0.0986  0.0353  0.1670
15366W        W35646   2.605  18.221   0.745  0.4001 -0.0207  0.0266
15367W        W35647   1.457  17.697   1.533 -0.2003  0.1994 -0.2477
15368W        W35648   1.254   8.582   2.302 -0.2179 -0.1970 -0.2413
15369W        W35649   1.019   9.265   9.053  0.4974  0.1004  0.2350
15370W        W35650  16.424   5.311  11.844  0.1519  0.1106 -0.0846
15371W        W35651  10.093   9.688  12.165  0.6719 -0.1218  0.0528
15372W        W35652   1.691   6.616   2.120  0.2466 -0.1068 -0.3982
15373W        W35653   2.225  11.951   0.938 -0.0200  0.1699 -0.2043
15374W        W35654  19.321   9.697  11.863 -0.0010  0.2071  0.2229
15375W        W35655   6.688   3.686   1.437 -0.3240 -0.1360  0.3845
15376W        W35656   1.600   8.065   0.066  0.0905  0.0908 -0.0536
15377W        W35657   5.370   5.118   3.922  0.0293  0.1201 -0.4788
15378W        W35658  13.311  18.480   0.579  0.1495 -0.4410 -0.0407
15379W        W35659  16.652  19.119  11.179 -0.2868 -0.2037  0.4245
15380W        W35660   9.247   8.098  11.934  0.2324 -0.0527 -0.1649
15381W        W35661  16.468  15.570   9.050 -0.3859 -0.2429 -0.1322
15382W        W35662   0.451   3.976   3.757  0.0959 -0.3243  0.2631
15383W        W35663   1.006   0.009   2.576  0.2090  0.2904 -0.0736
15384W        W35664  12.881   4.167  11.971  0.1241  0.0578  0.0226
15385W        W35665   0.632   4.957   0.446  0.0100 -0.0311  0.1693
15386W        W35666  10.152  17.071   3.532 -0.0472  0.3815  0.0568
15387W        W35667  10.992  19.416   3.324 -0.0173  0.0196  0.7048
15388W        W35668  15.108  10.061  11.417  0.2262 -0.1563 -0.0096
15389W        W35669  11.982   2.331   3.514 -0.0494  0.2282 -0.0456
15390W        W35670   8.716  13.942   0.580  0.1712 -0.2027  0.0789
15391W        W35671  14.227   7.349   2.696  0.0745 -0.2281 -0.0548
15392W        W35672  11.595   7.805  13.777 -0.1105  0.0160  0.0498
15393W        W35673  15.730   2.878   2.223 -0.2545 -0.0002 -0.2639
15394W        W35674  12.931   8.417   2.714 -0.3303  0.0776 -0.0001
15395W        W35675   0.296   8.786   2.769 -0.3681 -0.1716 -0.0298
15396W        W35676  15.820  11.906  13.276 -0.1421 -0.1752 -0.0749
15397W        W35677   0.559   9.471  10.657 -0.0764  0.2024  0.0364
15398W        W35678   0.017  15.384  11.707  0.1266 -0.1136  0.0600
15399W        W35679   5.411  16.737   3.305  0.0686 -0.0396  0.3394
15400W        W35680   4.599  13.964  13.676 -0.3532 -0.1608 -0.0850
15401W        W35681  17.803  14.985  13.250  0.0308 -0.4569  0.1919
15402W        W35682   7.262   3.865  12.744  0.0319 -0.1406  0.0375
15403W        W35683   4.264   5.910  12.600  0.2185  0.2585 -0.1936
15404W        W35684   2.756   3.380  13.650 -0.0021  0.0359  0.3153
15405W        W35685   3.998  15.563  11.081 -0.2950 -0.1772 -0.1312
15406W        W35686   7.596  11.324   1.534 -0.0800 -0.1490  0.4862
15407W        W35687  13.824  14.680   3.511 -0.1114  0.3054  0.2092
15408W        W35688  19.779  12.951   1.721 -0.1534 -0.3618  0.0951
15409W        W35689   0.712   6.238   2.754 -0.0453  0.2771 -0.1294
15410W        W35690   0.845  13.093   3.557  0.2547  0.1483  0.0809
15411W        W35691  18.888  17.464  13.763 -0.1458  0.1859  0.0223
15412W        W35692  16.816   4.522  12.861  0.1309  0.4157 -0.1812
15413W        W35693  13.429   6.000   3.265  0.2490  0.0325 -0.2306
15414W        W35694  12.751   4.498   2.455  0.2507 -0.1235  0.0474
15415W        W35695  16.212   7.278  10.520 -0.0240  0.5158 -0.0485
15416W        W35696   1.561   6.943  10.180  0.0019  0.0941 -0.1228
15417W        W35697  10.376   1.155   0.473  0.1159 -0.0886  0.1955
15418W        W35698   8.376  15.767  13.661 -0.1851  0.0753 -0.2893
15419W        W35699   4.914   7.963   3.876  0.5255 -0.1005  0.2002
15420W        W35700  15.157   0.855  13.044 -0.1845  0.0826  0.0948
15421W        W35701  15.118   4.469   3.244  0.5059 -0.4187  0.0955
15422W        W35702  18.961   8.003  11.302 -0.1865  0.1092  0.0238
15423W        W35703   2.444   7.359   3.948 -0.1317  0.0860 -0.3066
15424W        W35704   0.774   8.234  13.224 -0.1335  0.1480 -0.0337
15425W        W35705  17.542  12.683   0.589  0.2678  0.1853 -0.3800
15426W        W35706   3.159   7.351   2.324  0.1259 -0.0280 -0.1829
15427W        W35707   6.069   8.631   4.319  0.0615 -0.1185  0.0757
15428W        W35708  15.092   1.164  10.145 -0.0135  0.0209 -0.2476
15429W        W35709  15.555  16.865   3.533  0.1230 -0.2915 -0.1735
15430W        W35710  14.029  17.345   3.042  0.1311 -0.0369  0.0104
15431W        W35711  12.344  19.290  13.291 -0.0616 -0.1791  0.3255
15432W        W35712   7.778   2.251   3.839 -0.0380 -0.4555  0.2401
15433W        W35713  10.246  12.204   9.467 -0.3941  0.0393 -0.1727
15434W        W35714  18.867   5.546  11.663  0.2099  0.2215  0.0123
15435W        W35715  14.188   8.934   9.603  0.1300  0.0070  0.1236
15436W        W35716   1.917   6.705  13.371  0.0468 -0.1158 -0.1063
15437W        W35717  18.044  13.349   2.067 -0.2351 -0.1344  0.2591
15438W        W35718   8.548   1.193  12.091 -0.1118 -0.0435  0.0000
15439W        W35719  13.904  10.232  13.038 -0.0007 -0.1619 -0.2012
15440W        W35720  15.255  12.557  12.750 -0.4487  0.1459 -0.1792
15441W        W35721  14.368   1.508  11.206 -0.0776 -0.0743 -0.3694
15442W        W35722   4.972  10.513   3.649 -0.0648  0.2956  0.0716
15443W        W35723   2.574  14.231  13.698  0.1404 -0.1190 -0.1559
15444W        W35724  13.081  15.831   3.272 -0.1340  0.0844 -0.2484
15445W        W35725  10.386   2.341  10.703 -0.1665  0.0067  0.0836
15446W        W35726  10.152  18.564   1.856  0.0517  0.1112 -0.0962
15447W        W35727  12.125  11.752   2.145 -0.0798 -0.1044  0.3194
15448W        W35728   5.342  10.110   3.588 -0.0670 -0.3456  0.0676
15449W        W35729   7.184  14.334   4.053 -0.2197  0.0142 -0.1008
15450W        W35730  14.672   4.747  10.560 -0.0993 -0.2690  0.0273
15451W        W35731  14.321   9.739   3.850 -0.1764  0.3022 -0.2668
15452W        W35732   2.809  10.575   0.433 -0.0598  0.0497  0.3066
15453W        W35733  14.073   8.264  12.013 -0.1003 -0.2070 -0.3287
15454W        W35734   7.345   8.920   1.268 -0.1783 -0.1251 -0.0978
15455W        W35735   8.070   3.025   4.610  0.0901 -0.0084 -0.1065
15456W        W35736  18.176  17.908  10.130  0.0918 -0.1190  0.0246
15457W        W35737  11.152  12.433  11.055  0.1943  0.0176 -0.0680
15458W        W35738  16.993   7.335  12.653  0.0827 -0.1292 -0.1748
15459W        W35739   2.757   1.728   2.531  0.0347 -0.2502 -0.1128
15460W        W35740  16.186   2.666   2.441  0.1219 -0.2581  0.0267
15461W        W35741  18.082  16.800  12.603  0.0129 -0.1435 -0.0559
15462W        W35742  14.036   3.829   1.106  0.2480  0.0866 -0.0961
15463W        W35743  19.279  13.728   1.061  0.2447 -0.1978 -0.0316
15464W        W35744  12.375  14.387  12.772  0.2650 -0.0099  0.3999
15465W        W35745  11.959   3.814   3.471 -0.0855 -0.1396 -0.0061
15466W        W35746  17.481   8.794  11.185 -0.1576 -0.3317  0.1031
15467W        W35747  12.764   4.234   1.098 -0.1388 -0.0636 -0.2132
15468W        W35748   7.824   6.714  12.260  0.0269  0.3283 -0.1640
15469W        W35749  11.027   4.398   1.232  0.1891 -0.0937 -0.1701
15470W        W35750  15.134  11.451   1.942  0.3938  0.0747  0.2547
15471W        W35751  15.208   9.488  10.346 -0.1699 -0.0746 -0.1388
15472W        W35752   2.143   7.152  12.243  0.0313  0.0320 -0.1085
15473W        W35753   9.569   9.544  11.167 -0.3550 -0.0276 -0.3396
15474W        W35754  19.253  15.200  11.751  0.2027  0.2043 -0.1446
15475W        W35755  13.122  19.481   3.860  0.1409  0.6494 -0.1538
15476W        W35756  17.941  17.912   0.372  0.2245  0.1894  0.1456
15477W        W35757   8.191   1.474   1.612  0.2314 -0.1500 -0.1296
15478W        W35758  17.182   0.652   4.061 -0.0650 -0.2309  0.0307
15479W        W35759   7.273   1.929   1.999 -0.0486  0.0435  0.1412
15480W        W35760  19.186   1.341   2.259  0.1686 -0.1906 -0.0185
15481W        W35761   8.054   3.878   2.784 -0.1358  0.1697  0.0971
15482W        W35762  19.802   7.349  11.363  0.3292 -0.0870  0.4820
15483W        W35763  18.881   1.207   1.876 -0.2652 -0.3232 -0.3796
15484W        W35764  17.977   0.354   0.753  0.2014  0.4642 -0.0745
15485W        W35765   4.297  18.580   4.260 -0.2112 -0.3257  0.1940
15486W        W35766   6.944  17.810   1.487 -0.1167 -0.0787  0.0466
15487W        W35767  17.266   1.695   9.943 -0.0884 -0.0263 -0.1427
15488W        W35768  18.609   0.768  13.127  0.1287  0.0154 -0.1794
15489W        W35769  13.492  10.164   2.838  0.0001  0.0249  0.1180
15490W        W35770  18.490   3.502   1.997  0.1514 -0.1576  0.3890
15491W        W35771  15.216   2.249  13.475 -0.0921  0.1608  0.3043
15492W        W35772  15.451   3.814  13.032  0.1363 -0.0784  0.1527
15493W        W35773   0.224   0.925   0.443  0.1238 -0.3427  0.0485
15494W        W35774  10.319  15.017  12.763  0.3931 -0.0926 -0.3903
15495W        W35775   3.009   3.921   2.363 -0.1081  0.0384 -0.0239
15496W        W35776  17.731   4.282  13.053  0.2892 -0.0270 -0.2739
15497W        W35777  13.180  13.069  10.292  0.1507 -0.4168  0.0862
15498W        W35778   7.369   2.469  11.122 -0.0668  0.0242 -0.0620
15499W        W35779  18.042   9.314  11.807  0.5714  0.1061  0.1745
15500W        W35780  15.873  19.638   3.388  0.2491  0.1340  0.1898
15501W        W35781   4.357  12.031  13.173  0.0158 -0.0019  0.1872
15502W        W35782  18.643   6.208  12.575 -0.2039 -0.0511  0.0629
15503W        W35783  13.048   3.414   3.479 -0.2297  0.1669  0.1533
15504W        W35784  11.728   2.158  13.458  0.4711 -0.1477  0.0046
15505W        W35785  16.522  17.808   3.246 -0.0967  0.1368 -0.1624
15506W        W35786   7.057   6.481   0.575  0.2659 -0.0848 -0.0946
15507W        W35787   1.816   3.904  11.943  0.2010 -0.0666  0.2464
15508W        W35788   3.337  19.200  13.082  0.2417 -0.2801 -0.1977
15509W        W35789  19.802   8.922   3.613 -0.1798 -0.0009 -0.2953
15510W        W35790  13.409  11.117   2.447  0.0666  0.1469 -0.1744
15511W        W35791   3.364  11.641   0.293 -0.1674  0.1342 -0.2324
15512W        W35792   6.467   4.047  10.981 -0.0827  0.1059  0.1190
15513W        W35793   2.477  12.478  13.376 -0.0910  0.0194 -0.2192
15514W        W35794   4.782  14.378  13.811 -0.0642 -0.1543  0.3208
15515W        W35795   3.197  11.176   0.378 -0.0218 -0.3226  0.0972
15516W        W35796  16.084   9.508   0.996  0.1707 -0.0381  0.1452
15517W        W35797   8.787   7.279  12.725  0.2241 -0.0475  0.2816
15518W        W35798  19.333  17.828   3.336  0.0196 -0.0694  0.3620
15519W        W35799   9.316   6.554   1.014 -0.0189 -0.1389  0.0538
15520W        W35800   0.713   9.098   2.630  0.0745  0.3426 -0.0410
15521W        W35801  10.928   6.542   3.107  0.1627  0.1945 -0.2824
15522W        W35802   2.454  13.045  10.364  0.0706 -0.1142 -0.3130
15523W        W35803   9.850  12.594   1.019 -0.0203  0.5320 -0.0381
15524W        W35804  12.736   3.661  11.882 -0.0504  0.1347  0.1120
15525W        W35805  19.856   4.168  13.720  0.1775 -0.1859 -0.0050
15526W        W35806   1.972  11.271   1.012  0.1879  0.0440 -0.0569
15527W        W35807  18.658   2.995   2.811  0.0117  0.1105 -0.1367
15528W        W35808   3.078  13.259   1.799 -0.0093  0.0014 -0.1611
15529W        W35809   7.987  17.108  10.619 -0.2480 -0.3462 -0.0710
15530W        W35810   9.630  18.424   2.409  0.2361 -0.1560 -0.2161
15531W        W35811   4.350   1.132  11.844  0.0537 -0.0019  0.3094
15532W        W35812  13.159   4.966   1.601 -0.0581  0.2411 -0.2557
15533W        W35813   4.241   6.574  13.408  0.2031  0.0635 -0.3401
15534W        W35814  18.005   7.523   2.803 -0.3130  0.3738  0.1288
15535W        W35815  15.097  10.254  11.897  0.0235 -0.0349 -0.0061
15536W        W35816   2.654  14.426  10.412 -0.0373  0.2936 -0.0392
15537W        W35817   5.281   4.695  10.841  0.1510  0.0175  0.0540
15538W        W35818  12.244  13.691   1.530 -0.2412 -0.2316  0.1983
15539W        W35819  15.264   5.369  10.993  0.0889 -0.1786 -0.1254
15540W        W35820   9.525  17.546  11.729  0.0518 -0.0898 -0.1528
15541W        W35821  11.759   4.240  10.998  0.3018 -0.0879 -0.0137
15542W        W35822  10.928   8.524  11.723  0.0846 -0.1036  0.4925
15543W        W35823   9.582  11.365   2.446  0.0087  0.2571 -0.0711
15544W        W35824   3.604  19.455   2.901 -0.0198  0.0011 -0.0849
15545W        W35825  18.011   3.096  10.413 -0.1016 -0.4537  0.2117
15546W        W35826  17.681  19.556   3.880 -0.2571 -0.0362 -0.3640
15547W        W35827  19.683  15.943   2.137  0.0512  0.0615 -0.3111
15548W        W35828  10.384  13.494   0.772  0.0475 -0.1318 -0.3802
15549W        W35829   6.510  13.745  11.274 -0.3035 -0.2143  0.2357
15550W        W35830  19.080  17.787  11.935  0.0242  0.1198 -0.1964
15551W        W35831  10.405  13.291  13.027 -0.0176  0.1054 -0.2752
15552W        W35832  13.869   4.501  11.608 -0.0129 -0.0781 -0.0484
15553W        W35833  18.900  11.412   2.836  0.2604 -0.2097  0.0627
15554W        W35834   6.124   2.151   0.391 -0.1037 -0.0435  0.0511
15555W        W35835   8.482   5.221  12.784  0.1754  0.0920  0.2730
15556W        W35836  18.434  13.328   1.357  0.0630  0.2607 -0.3299
15557W        W35837   6.014   3.833   2.733  0.1343  0.2048  0.1075
15558W        W35838  12.871   4.174   3.423 -0.1943  0.0848  0.0309
15559W        W35839   9.455   1.047  12.574 -0.1253 -0.1917 -0.0133
15560W        W35840  11.479   1.706   0.275  0.0244  0.2352 -0.3675
15561W        W35841   2.884   0.368   1.021 -0.1067 -0.0181  0.1127
15562W        W35842  15.507  17.199   2.749 -0.1053  0.3662 -0.0034
15563W        W35843  13.976  16.954  10.567 -0.6448 -0.0637  0.0724
15564W        W35844  13.005   7.576   1.690 -0.4466 -0.0263  0.0871
15565W        W35845   9.296   0.173   1.631 -0.1124 -0.3490  0.0514
15566W        W35846  19.944   1.604  11.081  0.0361  0.1056 -0.0113
15567W        W35847  15.230   9.063  12.278 -0.0550  0.0503  0.0299
15568W        W35848  15.522  10.945  10.438 -0.3492 -0.0444 -0.0261
15569W        W35849   6.754  18.110  10.459 -0.2006 -0.0817  0.0496
15570W        W35850   1.456  16.586   3.488 -0.1450  0.0529  0.0801
15571W        W35851  15.250  10.823   2.922 -0.3569 -0.1141 -0.2767
15572W        W35852   0.584   7.047   1.624 -0.0860  0.1262  0.1755
15573W        W35853   3.757   9.992  11.097  0.1335 -0.1366 -0.0302
15574W        W35854  19.202  13.261   2.436  0.1028 -0.2509  0.1174
15575W        W35855   2.037  19.685  11.583 -0.1950  0.1209 -0.5093
15576W        W35856  18.239   9.735   1.178  0.2051  0.0457  0.2810
15577W        W35857   4.566   3.886  12.784 -0.1426  0.1067 -0.1702
15578W        W35858  10.622   3.550   1.280 -0.0675 -0.0441 -0.0244
15579W        W35859  11.945  17.596  12.112 -0.1052  0.2299 -0.1292
15580W        W35860   9.117   0.610   1.668  0.1753 -0.1205 -0.1494
15581W        W35861  10.067  15.008   4.064  0.0419 -0.1923 -0.1171
15582W        W35862  17.870   7.747  13.802  0.1122  0.1405 -0.0405
15583W        W35863   9.970  13.899   2.720  0.3567 -0.1146 -0.2104
15584W        W35864  18.423  19.552   2.407  0.3971 -0.0150  0.2184
15585W        W35865  12.162   7.133   2.836  0.0975  0.2579 -0.3032
15586W        W35866  10.931  18.335   2.419  0.2445  0.0225 -0.1313
15587W        W35867  18.918  11.351   1.312  0.2051 -0.1283 -0.2746
15588W        W35868   1.179  18.136  12.088 -0.0757  0.0039 -0.1336
15589W        W35869   4.976   0.623   3.666 -0.1386  0.3168 -0.5225
15590W        W35870  19.352  10.560  10.045  0.2406  0.0490  0.2749
15591W        W35871   5.844  18.911   3.962 -0.1844  0.0614  0.2364
15592W        W35872   3.141   9.977  10.912 -0.2148 -0.1147 -0.0741
15593W        W35873  10.562   2.410   2.665  0.0530 -0.2177 -0.1632
15594W        W35874   1.690  12.870  13.337 -0.3058  0.1884  0.1341
15595W        W35875   0.770  10.429  12.648 -0.1743  0.0518  0.1030
15596W        W35876   4.102   5.944   1.631 -0.2874  0.1121 -0.0316
15597W        W35877  12.000  14.440  10.741 -0.1250  0.0013 -0.2818
15598W        W35878  17.248  11.435   0.232 -0.3097 -0.1657  0.0679
15599W        W35879   5.542   7.661   3.059 -0.3195 -0.2042  0.0211
15600W        W35880  16.202  14.404   9.838  0.0907  0.1139  0.1325
15601W        W35881   6.241   9.986  13.614  0.0433  0.1315 -0.1148
15602W        W35882   0.835   4.997   3.811 -0.2109 -0.3706  0.1495
15603W        W35883   7.799  12.231   0.503  0.3280 -0.0450 -0.0282
15604W        W35884  16.150   7.417  12.803 -0.4219  0.3091  0.1411
15605W        W35885   8.130   3.328   2.957  0.2107 -0.3075  0.3063
15606W        W35886   3.100   4.279  10.960  0.1501  0.2367 -0.0421
15607W        W35887   9.800   8.037   3.920 -0.1485 -0.0716 -0.2135
15608W        W35888   8.718  19.332  10.925  0.1942 -0.2126 -0.3219
15609W        W35889   5.671   0.807   9.549 -0.1596  0.1184 -0.1859
15610W        W35890   3.674  11.862  11.173  0.0577  0.3100  0.2235
15611W        W35891   3.880   1.562  10.481 -0.2037 -0.1990 -0.1082
15612W        W35892  18.241  15.875   1.725  0.4664 -0.3013  0.0709
15613W        W35893  15.728  15.448  12.787  0.0726 -0.1750  0.1484
15614W        W35894   4.928   9.831  12.800  0.2046  0.0733  0.3577
15615W        W35895   6.841  18.970  13.835  0.0692 -0.2446  0.1566
15616W        W35896   1.953  14.003  12.438 -0.0906  0.0346  0.0405
15617W        W35897   0.717  15.012  12.441 -0.0011  0.0515  0.1338
15618W        W35898  12.329   4.230   0.295  0.0867 -0.3698  0.2654
15619W        W35899   2.109   1.426  13.444  0.1192  0.1741 -0.1541
15620W        W35900  17.486   5.133  13.004 -0.1130  0.2147  0.0078
15621W        W35901   2.441   6.637  13.517 -0.2264 -0.0055 -0.2045
15622W        W35902  10.270   1.151  13.112 -0.1071  0.0587 -0.3066
15623W        W35903   1.668  11.431  10.666  0.3336 -0.1572 -0.1568
15624W        W35904   7.790   8.112  12.881  0.0617 -0.1488 -0.0959
15625W        W35905  15.617  15.730  11.308  0.3288 -0.2948  0.2191
15626W        W35906  18.287   4.933   3.782 -0.1497 -0.2776  0.1543
15627W        W35907  17.879  15.542   1.544 -0.0792 -0.1686  0.2819
15628W        W35908  13.143   6.914  11.798  0.1365 -0.3093  0.1790
15629W        W35909   7.652  12.331  13.285 -0.2291 -0.1391 -0.2807
15630W        W35910  11.638  19.317   0.032 -0.0609 -0.1377  0.0878
15631W        W35911  15.267   6.089  10.452 -0.2939  0.1735  0.1070
15632W        W35912   2.363  11.277  10.297 -0.1248  0.0677  0.0267
15633W        W35913  18.211   1.363   2.731 -0.0200  0.1981  0.0123
15634W        W35914   6.939  18.156   3.946 -0.3151 -0.3303  0.4760
15635W        W35915  16.453   1.555   0.501 -0.1939  0.2679 -0.2399
15636W        W35916   6.651   5.550  10.193 -0.1521  0.3878  0.1437
15637W        W35917  16.199  11.112   9.682 -0.4254  0.1401  0.3062
15638W        W35918  19.566   0.731  13.063  0.4242 -0.3168 -0.1572
15639W        W35919   4.838  18.406  12.440  0.1640  0.0055  0.0978
15640W        W35920  18.518  10.166  12.105  0.1755 -0.0085  0.0458
15641W        W35921  19.324  10.193   1.430  0.0457  0.1878 -0.0135
15642W        W35922  11.270   4.611   2.923  0.0437  0.3201  0.3180
15643W        W35923   6.364   2.940   4.409  0.1301  0.2818  0.0386
15644W        W35924   3.570   5.794   0.769 -0.1215  0.1201 -0.1842
15645W        W35925   1.925  14.177   1.692  0.0633  0.1635  0.2131
15646W        W35926   8.964   5.593   0.209  0.0721 -0.0759 -0.0607
15647W        W35927   7.747  14.183   0.809 -0.0551  0.1010 -0.0852
15648W        W35928   9.874   0.644   0.039 -0.1153 -0.1876 -0.0780
15649W        W35929  10.761  12.112  13.682  0.0771  0.3191 -0.1843
15650W        W35930  15.250   3.985  10.465  0.0484 -0.0110  0.2144
15651W        W35931   0.522  18.513  12.933 -0.1401  0.0272  0.1794
15652W        W35932  10.877  14.487   3.900  0.0238 -0.2327  0.0202
15653W        W35933   1.730  18.881   2.134  0.0066 -0.5566  0.0537
15654W        W35934   1.969  13.111  12.985  0.2138  0.3281 -0.1076
15655W        W35935   9.678   6.809  11.112 -0.2046 -0.1464 -0.0160
15656W        W35936  11.155   6.315   9.386 -0.0100  0.1096 -0.0180
15657W        W35937   5.952  12.792   2.438  0.2060  0.0922 -0.2126
15658W        W35938   1.808   0.147  10.745  0.3612  0.0783 -0.3227
15659W        W35939  15.797   8.329   4.804  0.1027  0.0732 -0.2977
15660W        W35940   6.402   8.771   3.004  0.0616 -0.5350  0.0596
15661W        W35941  11.488  14.944  11.856 -0.0547  0.4336 -0.0693
15662W        W35942   6.991   9.521   3.094  0.0157  0.1786 -0.1240
15663W        W35943   7.503   4.722   9.480 -0.0206  0.0889  0.1173
15664W        W35944  12.427   4.994  12.707  0.0893  0.1489 -0.0198
15665W        W35945  13.131  11.639  11.921 -0.0869  0.3113  0.1287
15666W        W35946  14.157   7.984  13.275 -0.2881 -0.0192 -0.1070
15667W        W35947  17.820  18.219  11.462 -0.0173  0.0303  0.1797
15668W        W35948  14.953  12.731  12.001  0.0203  0.1873  0.0947
15669W        W35949  11.458   3.027   2.426  0.1333  0.0178 -0.0433
15670W        W35950   3.410  14.499   0.091  0.0102 -0.3242 -0.3119
15671W        W35951  11.910   6.683   0.631  0.2011  0.1951  0.2214
15672W        W35952  10.456  13.934   2.121  0.0616  0.5443 -0.1671
15673W        W35953   4.246   5.205  13.717 -0.2109 -0.1335  0.0683
15674W        W35954  17.275   6.930   3.649  0.0327  0.0901  0.0353
15675W        W35955   6.794  10.997   0.413  0.0744 -0.1127 -0.5139
15676W        W35956   9.728  13.735  11.611 -0.1413  0.3462  0.1290
15677W        W35957   9.113  18.395  11.831 -0.0184  0.0187 -0.2174
15678W        W35958   7.600   3.240   2.043 -0.1485 -0.0749 -0.2992
15679W        W35959   3.218   2.300   0.958 -0.1056  0.0076 -0.0669
15680W        W35960  14.109   5.375  12.071 -0.1220 -0.0954  0.0821
15681W        W35961  11.891  16.900   1.289 -0.0899  0.3509 -0.0677
15682W        W35962  10.107   7.049  12.020 -0.0896  0.0406 -0.1066
15683W        W35963   5.057   5.620   1.222 -0.1457  0.1903  0.4534
15684W        W35964  12.347  17.200   1.671 -0.1027 -0.3040  0.0386
15685W        W35965   2.650  18.139  12.699  0.1639  0.1756 -0.0842
15686W        W35966   3.861  19.315   1.400 -0.2068  0.0825 -0.2633
15687W        W35967  10.508   8.895   2.276  0.1905 -0.2958  0.2718
15688W        W35968  13.086   0.344  13.077  0.2879 -0.1278  0.2395
15689W        W35969   2.125  13.885   2.281  0.2756  0.2385 -0.0603
15690W        W35970   7.185  17.172   0.808  0.1852  0.1988  0.1764
15691W        W35971  10.249  16.438  10.349  0.1294  0.0501  0.0139
15692W        W35972  11.665  14.003   0.565 -0.1093  0.3622  0.1548
15693W        W35973  17.051   9.841  13.174  0.2602  0.2411 -0.0249
15694W        W35974  15.776  17.977   2.675  0.2916 -0.0293 -0.0676
15695W        W35975   2.952  17.082   2.107  0.1698 -0.0700 -0.2054
15696W        W35976  13.736  13.709   0.691  0.0978  0.1871  0.0894
15697W        W35977  13.852   8.366   2.155 -0.1852 -0.0153  0.2437
15698W        W35978  13.224   0.350   2.678  0.2255  0.1207  0.4870
15699W        W35979  16.558   7.126  12.758 -0.1398  0.0181 -0.0904
15700W        W35980   9.604  13.385  11.215 -0.1398 -0.0386 -0.0436
15701W        W35981   3.440   3.153  12.539 -0.3263 -0.0739  0.1297
15702W        W35982  15.293   8.430   0.812  0.0783 -0.3158 -0.0280
15703W        W35983   3.846  10.943  11.683 -0.0983 -0.0585 -0.2047
15704W        W35984  19.866   8.639  10.184  0.0741  0.1785 -0.1968
15705W        W35985  15.518  18.886  13.251  0.1435  0.2604  0.1216
15706W        W35986  12.540  15.084   1.891 -0.2548  0.2856 -0.0759
15707W        W35987  17.205  10.071  12.493  0.0353 -0.1264 -0.2168
15708W        W35988   3.054   7.171  11.234 -0.0538 -0.1639 -0.0618
15709W        W35989   6.447   8.584  13.519  0.0929  0.2033 -0.0718
15710W        W35990  19.155   7.862  13.175  0.2144 -0.0745  0.1792
15711W        W35991  18.162  19.559  12.238  0.0774 -0.0210 -0.0780
15712W        W35992   8.584  19.522  10.286 -0.1506  0.0554 -0.1151
15713W        W35993   7.675   6.036  11.381  0.2478  0.2224  0.1593
15714W        W35994  18.870  14.057   0.257 -0.0288  0.2298  0.2001
15715W        W35995   8.657  16.779  10.998 -0.0608 -0.2347 -0.0028
15716W        W35996   6.453   6.760  11.264  0.0305 -0.0455 -0.0705
15717W        W35997  18.096  13.423   0.509 -0.0611  0.3006 -0.3516
15718W        W35998   9.288   5.014   1.421 -0.3632  0.4495 -0.0488
15719W        W35999   1.827  12.853   0.030  0.0990 -0.2445 -0.0101
15720W        W36000  14.352   5.801  12.604  0.0110  0.0227  0.1527
15721W        W36001  18.047   1.076   1.536 -0.0115 -0.1645 -0.1750
15722W        W36002  10.638  18.652  12.965  0.3419 -0.0278 -0.1110
15723W        W36003  18.972   2.978  13.141 -0.0641  0.3654 -0.0958
15724W        W36004   1.822   7.680   0.279 -0.4289 -0.0497  0.0475
15725W        W36005   7.917   4.298  13.370  0.0299  0.0951  0.2624
15726W        W36006   2.330  13.077   2.932 -0.0332 -0.0913  0.0327
15727W        W36007  16.203  13.009   0.261 -0.3425 -0.0564  0.1774
15728W        W36008  17.299  15.656   9.885 -0.2468 -0.0416  0.0044
15729W        W36009  18.986   1.537  13.216  0.1765  0.0952  0.1557
15730W        W36010  17.217   6.288   1.871 -0.1600  0.0888  0.2808
15731W        W36011   1.310  10.391  12.592 -0.1992 -0.2153  0.0219
15732W        W36012  14.677   7.859  12.453 -0.0726  0.1015 -0.0062
15733W        W36013  11.151   3.399  10.312  0.1415 -0.5169  0.0723
15734W        W36014  14.822  13.226  12.701 -0.0596 -0.1036 -0.0588
15735W        W36015  12.659  13.627  12.420 -0.1203  0.2093 -0.2161
15736W        W36016  12.329   4.269   2.015  0.1061 -0.0324 -0.2649
15737W        W36017  14.824   0.131  13.147  0.2241 -0.1263 -0.1423
15738W        W36018   1.428   8.515  12.191 -0.0613 -0.1167 -0.0987
15739W        W36019  10.269  11.994   0.111  0.0117  0.1307  0.2512
15740W        W36020   1.191  18.239  10.102 -0.5840  0.2639  0.2024
15741W        W36021   7.060  10.673  10.541  0.1246  0.1187  0.0349
15742W        W36022  10.048  18.841  11.640  0.3419  0.0070 -0.0051
15743W        W36023  11.918   4.233   9.239 -0.0210 -0.0363  0.3900
15744W        W36024   8.498   8.986   1.350  0.0388 -0.0823 -0.0337
15745W        W36025  15.874   7.514  13.152 -0.0907 -0.1662 -0.4507
15746W        W36026   7.062  13.322   3.775 -0.3386  0.2069  0.1115
15747W        W36027  15.790  12.404   2.569 -0.0473 -0.0637 -0.0028
15748W        W36028  14.706  15.779   1.265  0.1696  0.0848 -0.1093
15749W        W36029  11.717  11.108  13.007 -0.0183  0.0768 -0.0651
15750W        W36030  13.807   1.884   4.675  0.2334 -0.1826 -0.2882
15751W        W36031   6.208  15.102   1.798  0.2540  0.0290 -0.0503
15752W        W36032   2.394   8.085  13.034  0.0716  0.1584 -0.3576
15753W        W36033   9.754  16.471  10.561 -0.5463 -0.3050  0.3962
15754W        W36034  18.194  13.466  11.173 -0.7251 -0.4521  0.1065
15755W        W36035  15.754   0.761   1.041  0.2546  0.0425  0.0260
15756W        W36036  17.620  17.006  11.132 -0.1004 -0.0853  0.0420
15757W        W36037  15.221   8.184  10.129  0.1033 -0.2747  0.0669
15758W        W36038  17.398  17.211   0.893  0.1405  0.0115 -0.0623
15759W        W36039   5.936  10.521  11.382 -0.2961  0.1172  0.1446
15760W        W36040  12.752  14.513  11.087 -0.0338  0.0087 -0.1637
15761W        W36041  16.164   9.673  12.761  0.0030  0.0591  0.3219
15762W        W36042   1.879  10.073  11.716  0.1676  0.1714  0.3128
15763W        W36043  18.819   1.701   1.633 -0.1589  0.1863  0.1222
15764W        W36044   8.208   4.721   2.590 -0.0468  0.2659 -0.0609
15765W        W36045   8.992   1.285  11.174 -0.2078 -0.3725 -0.0253
15766W        W36046   4.355   5.356  10.552 -0.1995  0.0558 -0.1470
15767W        W36047   3.525  10.265   0.379  0.1181 -0.0973  0.1759
15768W        W36048   1.281   7.684  12.601 -0.0140  0.0986 -0.0954
15769W        W36049   5.196  13.343   0.076 -0.1342 -0.1124 -0.0727
15770W        W36050   6.625  13.279  12.077  0.1274  0.0231  0.1040
15771W        W36051  17.714  19.457  10.456 -0.2081 -0.0669  0.0715
15772W        W36052  14.219   2.497   1.099 -0.0935  0.1545  0.1196
15773W        W36053  10.318   3.858  12.429  0.0215  0.3623 -0.0725
15774W        W36054  16.172  13.937  12.974  0.1985  0.1929  0.2554
15775W        W36055  17.929   5.847  12.486 -0.2495  0.0995  0.0488
15776W        W36056  19.123  10.011  11.502  0.0683 -0.0779 -0.1716
15777W        W36057  19.831   6.927   2.596  0.0876 -0.0063  0.0508
15778W        W36058  14.260   9.125  10.264 -0.0562  0.1488  0.2771
15779W        W36059   2.964  13.898  11.487  0.1682 -0.0229 -0.1768
15780W        W36060   4.182   4.261   0.268  0.0909  0.0883  0.3298
15781W        W36061  15.238   4.347  11.273 -0.0544  0.4466 -0.3563
15782W        W36062  15.925  18.900  11.562 -0.0161  0.1083  0.0433
15783W        W36063   6.577  16.601   1.977  0.0947  0.1919 -0.4770
15784W        W36064   9.449   1.506  12.908  0.0809  0.0973 -0.1076
15785W        W36065   5.336   6.568  12.018  0.0054 -0.3327  0.3515
15786W        W36066   4.702  10.014  11.320 -0.0397 -0.1535  0.1178
15787W        W36067  14.228   9.069   1.145 -0.3533  0.2051 -0.0590
15788W        W36068  14.469   6.290  10.776  0.2186  0.2305  0.0050
15789W        W36069   8.612   1.540   2.911 -0.3805 -0.0539 -0.0687
15790W        W36070  19.419   7.965   1.727 -0.2093  0.1457 -0.2245
15791W        W36071   1.874   9.957   2.597 -0.0180  0.0564 -0.1186
15792W        W36072  18.380  12.367   2.353 -0.3136  0.1963  0.1469
15793W        W36073   9.533  12.514  12.091  0.1837 -0.1634  0.0657
15794W        W36074  12.805   3.290   0.456  0.0347 -0.0086  0.1244
15795W        W36075   7.848  10.836  12.279 -0.3358  0.1888 -0.0563
15796W        W36076  15.034   1.437   2.982 -0.0378  0.1207 -0.2144
15797W        W36077   3.850  16.911   0.360  0.0947 -0.0474 -0.0184
15798W        W36078  15.562   3.473  12.694 -0.0409  0.0332  0.0506
15799W        W36079   5.908   1.499   3.959 -0.0646  0.3144 -0.3432
15800W        W36080   3.306  10.983   1.659  0.0053 -0.0069  0.2921
15801W        W36081  15.897  16.221   4.219  0.2425 -0.0419 -0.3760
15802W        W36082  11.443   6.170  13.225 -0.0394 -0.0576  0.1410
15803W        W36083   5.440   1.154  13.172  0.0940 -0.0208  0.3630
15804W        W36084  14.835  14.452  13.383  0.1055 -0.3376 -0.0628
15805W        W36085   6.721  16.251  11.488  0.0969 -0.2059 -0.3106
15806W        W36086  11.323  14.949  10.214  0.1077  0.0565 -0.1267
15807W        W36087   5.841  16.520   0.961  0.0228 -0.1515 -0.0777
15808W        W36088   1.790   2.782   2.997  0.2352 -0.2095 -0.1251
15809W        W36089  12.415  13.423   1.188  0.2028  0.0683  0.2552
15810W        W36090   0.406  13.662   3.250 -0.1863 -0.1536 -0.3115
15811W        W36091  14.850  12.917   3.139 -0.2482 -0.1485 -0.3476
15812W        W36092   7.103  15.194   1.965 -0.0522  0.1004 -0.0453
15813W        W36093   1.064   4.251   1.902 -0.0295 -0.1757 -0.3076
15814W        W36094   1.123  14.274  13.075 -0.2092  0.0193  0.1358
15815W        W36095   9.789  12.249  13.262  0.3206  0.0614  0.0733
15816W        W36096  18.070   6.119  11.343 -0.0056  0.2558 -0.0706
15817W        W36097  15.011   9.367   0.932  0.0116 -0.1399 -0.3772
15818W        W36098  19.795   5.079  11.300 -0.0521  0.1941 -0.0307
15819W        W36099  12.996   8.866  12.177 -0.1062  0.2501 -0.2887
15820W        W36100  10.348   2.455   2.210 -0.0819 -0.0549  0.3078
15821W        W36101  17.140  10.439   0.639 -0.1967 -0.0303  0.1558
15822W        W36102  17.114   8.451  11.370 -0.2794  0.5386  0.2769
15823W        W36103   9.192   8.458  11.542  0.1665  0.0588 -0.0170
15824W        W36104  11.859   3.463   0.650  0.2499  0.0228 -0.0374
15825W        W36105   0.023  12.360   0.917 -0.1305 -0.0603  0.0107
15826W        W36106   2.394   1.561   0.389 -0.0416  0.4664 -0.0491
15827W        W36107  14.986   7.846   1.107  0.0687 -0.0690  0.1654
15828W        W36108   7.612  11.517  10.658  0.1078  0.4322  0.1693
15829W        W36109   8.820  12.241   1.017  0.0487  0.0631 -0.0285
15830W        W36110  19.724   8.868  10.661  0.1290 -0.1398 -0.1905
15831W        W36111  10.585   0.796   3.434 -0.0315 -0.1061 -0.1925
15832W        W36112   5.015  12.605   3.174 -0.0366 -0.2636  0.1228
15833W        W36113  11.090   5.223  11.093 -0.1723  0.0627  0.2774
15834W        W36114   1.852   5.742   1.980 -0.1930 -0.1376 -0.0641
15835W        W36115   0.250  19.612   2.738  0.3707 -0.0769  0.4797
15836W        W36116  14.299   7.974  11.519 -0.1463 -0.1938 -0.3124
15837W        W36117   6.505   7.339  11.983 -0.0775  0.0914 -0.0147
15838W        W36118  12.824  15.164  13.528  0.0972  0.0722  0.4242
15839W        W36119   6.802  11.891   1.971 -0.1249  0.2380 -0.4036
15840W        W36120  12.020  18.590   1.864  0.0302  0.2492  0.0536
15841W        W36121  17.249  13.443  11.142  0.3678  0.2395 -0.0568
15842W        W36122  19.021   0.940   3.224 -0.0447  0.1557  0.0533
15843W        W36123   2.740   8.309   0.980 -0.1580 -0.0507  0.0138
15844W        W36124   6.637  10.471   3.271 -0.2881  0.0321 -0.2482
15845W        W36125  15.295   2.624   9.838  0.0483  0.2100  0.0532
15846W        W36126  15.628   0.779  11.449 -0.1931  0.0785  0.1075
15847W        W36127  10.352  10.154  11.956 -0.1453 -0.2569 -0.3671
15848W        W36128   7.461  16.895   9.915  0.0037  0.0844 -0.1981
15849W        W36129   3.974   5.632  11.574 -0.0696  0.2800 -0.2245
15850W        W36130  16.713   2.567  12.153 -0.0108  0.0624  0.2038
15851W        W36131   4.309   0.522  13.326 -0.1514  0.0091 -0.0973
15852W        W36132  11.002   5.993  12.270 -0.2965 -0.0528 -0.0052
15853W        W36133   0.755   0.370  12.360  0.3215 -0.3922 -0.0164
15854W        W36134   1.614  16.147   2.619  0.0482 -0.0952  0.0316
15855W        W36135  14.452  16.125   2.064  0.1844 -0.0742 -0.0754
15856W        W36136   8.945   2.777  12.816  0.1599 -0.1201 -0.1837
15857W        W36137  16.540   5.943  13.336 -0.0930  0.1332  0.0841
15858W        W36138  15.622   1.130   2.561 -0.2306  0.1902  0.1193
15859W        W36139  18.324   8.852   2.635 -0.0891  0.1902  0.2203
15860W        W36140  11.988   3.496   2.984  0.1874 -0.0340 -0.0896
15861W        W36141   6.122  19.900  10.190  0.0755 -0.0028  0.0276
15862W        W36142   4.312   6.815   3.845 -0.1160 -0.0878  0.5001
15863W        W36143   3.973  17.236   5.379  0.0312  0.1303 -0.0840
15864W        W36144  16.750  13.326  10.876  0.1747  0.1124 -0.1688
15865W        W36145  17.202  13.987   0.975 -0.1455  0.0164  0.1964
15866W        W36146  16.852   9.941  11.180  0.0261  0.0493 -0.0599
15867W        W36147   0.652   5.911   1.278  0.0814  0.0775  0.0455
15868W        W36148   1.847   7.802  11.442  0.1035  0.2450 -0.3051
15869W        W36149  11.526  16.693   8.837  0.0404 -0.3220  0.0222
15870W        W36150   6.748   9.135   0.688 -0.2207  0.1147 -0.2087
15871W        W36151  13.697   7.180  13.678  0.1060  0.0136 -0.0707
15872W        W36152  17.922   7.809  12.740  0.1041 -0.0897 -0.2213
15873W        W36153  10.058   4.234  13.393 -0.3669  0.0297 -0.1084
15874W        W36154  18.977  19.160  12.354 -0.0075  0.1461 -0.0235
15875W        W36155   1.259   3.656   2.165  0.0694  0.2385 -0.0501
15876W        W36156  19.274   2.001   3.548  0.0466 -0.1458 -0.0985
15877W        W36157  10.132   6.052  10.625 -0.1468 -0.0490 -0.3927
15878W        W36158  19.783   1.218  13.555  0.0121 -0.2553  0.5807
15879W        W36159   3.178   1.539  13.233 -0.2552 -0.0457  0.3989
15880W        W36160  12.048   8.856  13.206 -0.2250 -0.4749  0.0925
15881W        W36161   9.245  19.672  11.983 -0.4270  0.1785 -0.2413
15882W        W36162   3.794   3.344   9.898  0.1115  0.0132  0.2078
15883W        W36163  14.419   7.919  12.031  0.2346  0.2642  0.0570
15884W        W36164  14.430   1.285   2.330 -0.1044 -0.0289 -0.0664
15885W        W36165  19.809  18.812   0.642 -0.0338  0.0022 -0.2060
15886W        W36166  14.190   5.049  10.592  0.1659  0.2612 -0.1746
15887W        W36167   9.649  11.934  12.016  0.2095  0.2625 -0.1499
15888W        W36168   4.823  12.490   1.570 -0.0905  0.4716 -0.1871
15889W        W36169  18.436   7.336   2.957  0.0688 -0.0365  0.0366
15890W        W36170   6.414  11.582  11.269  0.0304  0.1042  0.0382
15891W        W36171  14.811  18.755  12.525  0.1394 -0.1454  0.1913
15892W        W36172  19.033   6.220   3.523  0.0817 -0.4489 -0.3707
15893W        W36173   7.225   1.616   3.346 -0.0526  0.2336  0.0436
15894W        W36174  10.462   3.131   1.435  0.1002 -0.0982 -0.0944
15895W        W36175  13.161   4.350   3.805  0.0234  0.0889  0.4292
15896W        W36176  17.094   8.245  12.081  0.1260 -0.1079  0.0533
15897W        W36177  13.501   0.916   9.278  0.1040  0.3213  0.0417
15898W        W36178  16.828  18.573   1.005  0.2002  0.0434  0.1454
15899W        W36179  17.456   1.794  12.229 -0.0062 -0.0543 -0.0084
15900W        W36180  15.842   9.693  11.175 -0.0556 -0.0070  0.1551
15901W        W36181   3.113   8.956   2.098  0.0246 -0.0713 -0.2961
15902W        W36182  14.027  19.298  11.635 -0.1132 -0.1254  0.1087
15903W        W36183   0.933   5.127   2.725 -0.2923  0.1429  0.3920
15904W        W36184  10.931   5.198   2.125 -0.3299  0.0048 -0.0713
15905W        W36185  18.043   9.834  13.609  0.0385 -0.3801  0.0074
15906W        W36186  10.836  10.484   2.189 -0.0491  0.0493  0.0209
15907W        W36187  18.132   0.129   1.783  0.1027 -0.2031 -0.2964
15908W        W36188  18.682  17.633   3.441  0.1307 -0.5065 -0.1398
15909W        W36189  15.113  12.047   4.104 -0.2094 -0.0964 -0.1247
15910W        W36190  17.938  12.773  11.411  0.0553  0.4473  0.0649
15911W        W36191   7.349   5.795  11.083 -0.0398  0.0201  0.1401
15912W        W36192   0.990  13.186   2.839 -0.0825 -0.1626  0.1721
15913W        W36193  19.138  19.934  13.426 -0.0933  0.0248 -0.1873
15914W        W36194  16.283   6.789   4.523 -0.2386 -0.0634 -0.1776
15915W        W36195  15.410  19.253  10.369 -0.1117  0.1211 -0.0619
15916W        W36196  16.399  19.875   2.594 -0.0959 -0.1901  0.1000
15917W        W36197  13.705   9.361  12.323 -0.2777  0.0627 -0.0155
15918W        W36198   4.272   5.402  12.896 -0.0033 -0.1586  0.1127
15919W        W36199  17.704  10.929  12.263  0.0329 -0.1542  0.2207
15920W        W36200   7.099   7.260   0.882  0.1291  0.3617 -0.0424
15921W        W36201   5.787   1.368   3.400  0.0775  0.2657 -0.1632
15922W        W36202   3.158   5.178   2.140  0.0271  0.1255  0.2229
15923W        W36203   4.144   6.216   3.279 -0.3922 -0.1139 -0.0710
15924W        W36204  16.867  10.902   8.705 -0.0260 -0.3546  0.1374
15925W        W36205   5.327   7.582   5.056 -0.3302 -0.0043  0.1011
15926W        W36206   3.364  16.603  11.894 -0.2277  0.1247  0.0034
15927W        W36207   0.890   1.692  10.736 -0.1687 -0.0305 -0.1466
15928W        W36208  10.607   0.863   2.542  0.0725  0.0542  0.0285
15929W        W36209  15.187   7.310   3.583 -0.0037  0.2756  0.1124
15930W        W36210   6.784  19.427   0.597  0.0288  0.3424  0.0245
15931W        W36211   0.120  13.465  13.566  0.0461 -0.0882  0.1329
15932W        W36212   1.025   7.663   2.062 -0.1879 -0.1183 -0.0718
15933W        W36213  18.024   3.486   1.815  0.0334 -0.2785 -0.0205
15934W        W36214  19.928  19.404   3.586  0.4868 -0.0700 -0.2218
15935W        W36215  10.049   4.589   2.011 -0.1200 -0.0229 -0.0112
15936W        W36216  12.513   3.674   0.379 -0.1383 -0.1509  0.6075
15937W        W36217  10.184   3.934   0.819 -0.5503  0.1745 -0.2856
15938W        W36218  14.979   8.261  12.965 -0.2263 -0.0607  0.1145
15939W        W36219   7.909  17.579  13.560  0.1324 -0.2150  0.0698
15940W        W36220   3.557  15.378   3.463  0.0291 -0.1335 -0.1660
15941W        W36221   9.533  11.137   1.278  0.0861 -0.3785  0.1758
15942W        W36222   8.112   4.257  12.086 -0.0422 -0.1907  0.3068
15943W        W36223  11.079  19.569   2.053  0.1008 -0.2326  0.0161
15944W        W36224   3.126   3.374   1.555  0.0884  0.0800 -0.0683
15945W        W36225   1.296   6.876   2.363 -0.1232  0.1994 -0.2895
15946W        W36226   7.252   4.802  11.771  0.1178  0.0168 -0.1644
15947W        W36227  17.165   3.800  12.608 -0.1915  0.4488  0.0026
15948W        W36228   5.696   6.450   3.094 -0.0839  0.1855  0.0223
15949W        W36229   6.897   0.493   0.227  0.0172 -0.0935  0.0487
15950W        W36230  17.659   2.013  11.214 -0.1828 -0.0037  0.0269
15951W        W36231   3.013   1.979  10.242  0.2660  0.2065  0.0542
15952W        W36232   8.765  19.287   1.682  0.0593 -0.0616 -0.0088
15953W        W36233  17.045   1.021   0.587 -0.0551 -0.2995 -0.0593
15954W        W36234  18.923   9.745  13.840  0.1237  0.0447 -0.1569
15955W        W36235   9.564   2.977   3.651  0.2415 -0.0302 -0.0243
15956W        W36236  18.185  13.636   0.999  0.1943  0.2020  0.0756
15957W        W36237  19.740  10.779  11.971  0.0141  0.0634 -0.0852
15958W        W36238   3.204   3.941  11.437 -0.2056 -0.0101  0.5881
15959W        W36239   4.435   4.142   4.155 -0.3088 -0.0313  0.1562
15960W        W36240   2.406  15.498  11.261 -0.1503 -0.0946  0.0454
15961W        W36241   2.070  17.796   2.499 -0.0626 -0.1004  0.2059
15962W        W36242  13.462  12.923   0.086 -0.0086 -0.1169 -0.1269
15963W        W36243   0.103   6.014  10.175  0.1447  0.0403  0.1574
15964W        W36244  14.933   3.737   1.802 -0.0966  0.1085  0.1287
15965W        W36245  11.888  17.918   0.014 -0.0654  0.1499 -0.3503
15966W        W36246  18.272   9.880  10.785  0.2344 -0.0969  0.0469
15967W        W36247  14.408  15.592  13.287 -0.0254  0.0321  0.2117
15968W        W36248  10.327   3.263   9.418  0.0743 -0.0057  0.0289
15969W        W36249  11.464   3.500  12.490  0.0624  0.1036 -0.1306
15970W        W36250  15.991  10.059   4.182  0.0967  0.1038  0.2790
15971W        W36251  14.226  14.413  12.768 -0.1358  0.2208 -0.2280
15972W        W36252   5.595   3.471   0.823  0.1861 -0.0120  0.0632
15973W        W36253   8.151   8.911  12.482  0.2943 -0.0755 -0.0227
15974W        W36254  10.416  17.153   3.965 -0.1502 -0.1497 -0.1181
15975W        W36255   7.463   9.153  12.995  0.1359 -0.1005  0.1134
15976W        W36256  17.901  15.463  11.638 -0.1619  0.3036  0.3874
15977W        W36257   2.145   7.276  12.712 -0.0241 -0.4585 -0.2117
15978W        W36258   3.351  16.111  11.897 -0.0500 -0.0751  0.3372
15979W        W36259  18.227  12.406   9.861  0.1970 -0.3199  0.1426
15980W        W36260  12.400   6.590  11.336  0.1004  0.1004 -0.2100
15981W        W36261  15.871  15.548  11.669  0.0371  0.2318  0.5508
15982W        W36262   4.538   7.796   0.761 -0.2872 -0.3815 -0.0081
15983W        W36263  15.902   1.309   3.409  0.1826  0.0139  0.1019
15984W        W36264   6.424  18.149   2.947 -0.2181  0.3268  0.0212
15985W        W36265   7.023  16.326  10.415 -0.2006 -0.2821 -0.1453
15986W        W36266   8.175  18.758  11.557 -0.1612  0.1817 -0.0342
15987W        W36267  14.798   8.203   3.071  0.0852  0.1376  0.0780
15988W        W36268  12.693  18.537   1.044 -0.1148  0.0008  0.2303
15989W        W36269  18.370  15.377  11.431 -0.1661 -0.1755 -0.2756
15990W        W36270  13.024   6.563   0.485  0.0930  0.1546 -0.1591
15991W        W36271  13.592   7.284   0.605  0.0773 -0.2068  0.0390
15992W        W36272  19.149   1.966   0.437 -0.2889  0.0623 -0.0143
15993W        W36273   4.103  14.082   3.824  0.0691 -0.2285  0.2529
15994W        W36274   5.385   9.356   1.623  0.1112  0.2131  0.2261
15995W        W36275  17.665  13.650   0.787 -0.4126 -0.2096 -0.0558
15996W        W36276  17.122  14.394   0.585  0.0653  0.3494  0.1766
15997W        W36277  15.680   9.732   1.808  0.2174  0.0194  0.0032
15998W        W36278  10.512   2.412  12.450 -0.2147 -0.0717 -0.4046
15999W        W36279  11.590   7.511   0.829  0.0766  0.0038  0.0042
16000W        W36280   2.047  13.524  10.198  0.0226 -0.1909  0.2969
16001W        W36281  15.313   9.870   1.024  0.1157 -0.0180 -0.0653
16002W        W36282  15.531  16.267  12.796 -0.1159  0.1867  0.2148
16003W        W36283  13.616   5.989   1.266 -0.1205  0.1163 -0.0301
16004W        W36284  18.298   0.435  12.168  0.0145 -0.0590  0.0701
16005W        W36285   6.143  16.935   3.905  0.2554 -0.0281  0.1164
16006W        W36286   7.306  19.349   1.341  0.1001 -0.2703  0.1199
16007W        W36287   5.664  16.585  10.853  0.0606 -0.1780  0.0960
16008W        W36288  15.305   9.025  11.454 -0.0777 -0.3788  0.0692
16009W        W36289  18.236  11.316   9.274  0.2225  0.3174  0.0603
16010W        W36290   0.250  11.513  11.699  0.3249  0.0687  0.0115
16011W        W36291   5.510  18.945   0.912 -0.0311  0.0364  0.1569
16012W        W36292   6.841   2.634   3.707 -0.0995  0.0315  0.4240
16013W        W36293  12.033   0.613   0.839 -0.1071 -0.0431 -0.2119
16014W        W36294   6.111  16.434   2.094  0.0635 -0.1084  0.2790
16015W        W36295  19.469   2.005   2.517  0.2810  0.1130  0.0397
16016W        W36296  12.919  19.854   2.371  0.0556  0.1756  0.0156
16017W        W36297  19.814  10.642  13.489 -0.2608  0.0893  0.0011
16018W        W36298   1.271   4.123  13.142  0.0714 -0.1711 -0.1940
16019W        W36299   1.861  18.633   1.246 -0.0977  0.2863  0.1163
16020W        W36300   5.446  19.560  10.413  0.2605 -0.4047 -0.1143
16021W        W36301   9.689   8.820  12.896  0.1690  0.2423  0.0160
16022W        W36302   2.276  14.532  10.812 -0.0502  0.1541 -0.0159
16023W        W36303  11.066  11.059   1.403  0.0615 -0.1064  0.0034
16024W        W36304   8.286   5.165   0.239  0.1743 -0.1312  0.2614
16025W        W36305   6.233   5.217   0.735  0.0582  0.2165  0.4035
16026W        W36306  19.956   8.386   2.458 -0.0757  0.3253  0.0974
16027W        W36307  19.317   9.052   3.331  0.2742 -0.1742 -0.2618
16028W        W36308   7.949  15.961  11.896 -0.0961  0.2315 -0.1145
16029W        W36309   8.352  19.049   1.510 -0.1823  0.2061 -0.0244
16030W        W36310   2.191   7.516   4.801  0.1273  0.0254  0.3481
16031W        W36311  13.846   7.705  13.573 -0.2875  0.1612 -0.2513
16032W        W36312  17.472  11.518   1.773  0.0154  0.3256 -0.0722
16033W        W36313  12.391   3.750   1.897  0.1648 -0.2377 -0.1584
16034W        W36314  18.407  10.875   0.892 -0.3181 -0.1487 -0.0031
16035W        W36315  13.520   3.718  12.185 -0.0115  0.0280 -0.2028
16036W        W36316  15.812  19.339  13.259  0.1928 -0.1157  0.0981
16037W        W36317  13.659   8.492  13.133 -0.1209  0.0997  0.0531
16038W        W36318   1.651   3.578  10.387 -0.2183 -0.0546 -0.0932
16039W        W36319   9.807  11.825   4.299 -0.1152 -0.1271  0.1587
16040W        W36320   2.650   8.665   4.526 -0.2432 -0.2039  0.0275
16041W        W36321  13.923  18.366   0.561 -0.0156 -0.2013 -0.1102
16042W        W36322   3.668  11.175   0.012  0.0328  0.2995 -0.0793
16043W        W36323   3.271   7.904   2.232  0.0090 -0.0197 -0.3138
16044W        W36324   3.866  11.690  13.138 -0.2231  0.0822  0.0410
16045W        W36325  18.828  19.232   2.480 -0.2454  0.1792 -0.2045
16046W        W36326   5.915  13.718   4.033 -0.2920 -0.3392 -0.0272
16047W        W36327   5.285  19.227   1.267 -0.0971 -0.1836 -0.0328
16048W        W36328  17.370   3.715   3.447 -0.2260 -0.3334 -0.2352
16049W        W36329  15.438   7.024  10.980 -0.1302 -0.2553 -0.0765
16050W        W36330  12.202   6.049   1.747 -0.1678 -0.0447 -0.0869
16051W        W36331   8.809  19.310   3.087 -0.0302  0.0618 -0.1173
16052W        W36332  11.862   0.512   0.385 -0.1525  0.2523 -0.0473
16053W        W36333   9.954  12.687  10.911 -0.0610 -0.3269  0.0812
16054W        W36334  11.804   7.405  12.459  0.1643 -0.0839  0.1356
16055W        W36335  11.854  14.408  12.661 -0.0344 -0.0727 -0.0931
16056W        W36336  16.657   2.729  11.635  0.0753  0.3177  0.1081
16057W        W36337   0.081   2.579   2.032  0.1718  0.1541  0.2492
16058W        W36338   8.413  17.677  10.745 -0.2461 -0.1332  0.2616
16059W        W36339  18.188  19.347  10.579 -0.1539 -0.1101  0.0070
16060W        W36340   1.055  15.814   3.240 -0.3423  0.1318 -0.1918
16061W        W36341   5.533  15.149   2.552  0.0107  0.1881  0.0134
16062W        W36342  13.672  12.568  13.430  0.1670 -0.0349  0.3855
16063W        W36343  16.766   6.391   3.233 -0.2539  0.3384  0.3823
16064W        W36344   9.877  18.403  11.458  0.1595  0.0810 -0.0150
16065W        W36345  14.246   2.943  12.272 -0.1673  0.0387  0.0287
16066W        W36346  13.321  10.063  12.643 -0.0523  0.0522  0.0099
16067W        W36347   3.495   5.958  13.778 -0.0986 -0.3350  0.0338
16068W        W36348  13.126  19.080  10.402 -0.0234 -0.4026 -0.2696
16069W        W36349  16.900  13.806  12.881 -0.2261  0.3145 -0.1448
16070W        W36350  18.758  13.606   0.031 -0.0321 -0.2494  0.1131
16071W        W36351   3.628   8.642   2.074  0.0328  0.0930  0.0090
16072W        W36352  12.332   9.814   1.837  0.0853 -0.2190 -0.1969
16073W        W36353   7.165  13.292  10.761  0.3696 -0.0810  0.2487
16074W        W36354  15.542   9.936  12.072  0.0633  0.1628  0.1806
16075W        W36355   3.414  19.055   0.253  0.2643 -0.0687  0.0308
16076W        W36356   1.982   6.331  13.045 -0.3308  0.3822 -0.0305
16077W        W36357   6.011  15.303   0.248  0.0811 -0.1170 -0.3797
16078W        W36358  19.817  17.261   9.888  0.3154  0.1908  0.0819
16079W        W36359  10.408   3.358  10.369  0.0655 -0.1299  0.0480
16080W        W36360   4.788   3.786   0.392 -0.1716  0.2517  0.0278
16081W        W36361  15.102   9.584  12.122  0.2753  0.0119  0.2068
16082W        W36362   0.196   8.023  13.052 -0.4497 -0.0079 -0.0110
16083W        W36363   0.614  11.566  12.309  0.1153 -0.5286  0.0880
16084W        W36364  18.607   9.643   2.416 -0.0010 -0.2170 -0.3053
16085W        W36365  17.082  16.077   0.893 -0.1323  0.0200  0.2822
16086W        W36366  19.126   7.459   0.887 -0.0332  0.0753 -0.0493
16087W        W36367   1.146  11.435   1.336  0.1538  0.0057 -0.1353
16088W        W36368  11.356   5.343  11.807 -0.0682  0.1511 -0.0902
16089W        W36369  12.709   9.363  12.249 -0.1417 -0.1184 -0.1706
16090W        W36370   7.963  16.241  10.271 -0.2815 -0.1066  0.0287
16091W        W36371  14.399   7.860   0.394  0.0711  0.2206  0.1054
16092W        W36372   1.542  16.068   8.928  0.2025 -0.0851  0.0068
16093W        W36373   8.334  10.212   0.106 -0.2874  0.1347 -0.2347
16094W        W36374   9.741  11.206   0.817  0.1392 -0.2239 -0.2344
16095W        W36375  13.226   5.381   2.500  0.1559 -0.0613  0.0810
16096W        W36376   2.379   1.836   2.169  0.2282  0.0245  0.0492
16097W        W36377  14.079  12.463  13.674  0.0100 -0.0909 -0.3421
16098W        W36378  17.017  19.213   3.481  0.0313  0.2954  0.2387
16099W        W36379  16.844   3.369  10.866  0.0901 -0.2103 -0.1023
16100W        W36380  11.129  19.120   1.128 -0.1941  0.2944  0.2023
16101W        W36381  10.496   7.528   4.038  0.3185  0.2106  0.1196
16102W        W36382   6.715  12.559  10.962 -0.1476 -0.0367  0.0904
16103W        W36383  18.189   0.480  13.102  0.3841  0.0175  0.2790
16104W        W36384  19.620  16.007  12.306  0.2484  0.1738  0.0293
16105W        W36385   3.968  12.015   0.948  0.1442 -0.0815  0.0875
16106W        W36386  17.813   0.443   8.826  0.1995 -0.3168  0.0065
16107W        W36387   2.434  13.442  11.837  0.2469  0.4718  0.3058
16108W        W36388  17.756   6.541  13.055  0.0107 -0.0054  0.2567
16109W        W36389  15.713   3.916   3.617  0.0778  0.2925 -0.0584
16110W        W36390  15.418   5.821  10.841  0.1542  0.2411 -0.2213
16111W        W36391   7.878   7.148  12.520 -0.1343 -0.2882  0.0831
16112W        W36392   7.804   3.971  10.340  0.2965 -0.2263 -0.0475
16113W        W36393   7.406   0.041   0.433 -0.1259  0.0512 -0.1563
16114W        W36394   9.802  15.873   1.055 -0.1476  0.0735  0.1631
16115W        W36395   4.962   0.161  10.730  0.0133  0.0636 -0.0993
16116W        W36396   1.364   9.941   0.982 -0.0621 -0.0511  0.0472
16117W        W36397  13.939   1.270  12.705 -0.2040 -0.1219 -0.0029
16118W        W36398   3.136   6.798  11.929 -0.2052  0.3143 -0.4184
16119W        W36399   5.091  19.464  12.813  0.3095 -0.1957 -0.0703
16120W        W36400   0.827   0.839  11.688 -0.2035  0.3021  0.2085
16121W        W36401   6.603   3.544   3.929 -0.0170  0.1070 -0.1695
16122W        W36402  14.768   8.001  13.471 -0.3042  0.1935 -0.0834
16123W        W36403   9.993   8.266  12.696  0.0314  0.6243  0.0046
16124W        W36404   7.449   1.289   2.030  0.0763 -0.1111 -0.0999
16125W        W36405  13.081   3.128  10.625 -0.0485  0.0516 -0.0709
16126W        W36406   4.413  19.342   3.522 -0.0096 -0.2598  0.0775
16127W        W36407   6.157  14.112   1.435  0.2897 -0.1619 -0.0463
16128W        W36408   9.983  14.725  12.505  0.0057 -0.0877  0.0305
16129W        W36409  14.418   0.765   1.014  0.2912  0.0377 -0.0576
16130W        W36410  16.204   4.430  11.436  0.3542 -0.0546  0.2191
16131W        W36411  11.334   5.795   2.709  0.0777 -0.0404  0.1460
16132W        W36412  11.848   9.773  11.768  0.0967  0.0481  0.2439
16133W        W36413   4.580  13.805   2.718  0.0581 -0.0236  0.2797
16134W        W36414   5.350  12.208  13.825 -0.0378  0.0354  0.0100
16135W        W36415   7.017   3.600   2.783 -0.2146 -0.0440 -0.0448
16136W        W36416   4.809   3.745   2.371  0.2735 -0.0266  0.2438
16137W        W36417  18.084  12.748  12.021 -0.1966 -0.0043 -0.1611
16138W        W36418  13.533  16.237   2.641  0.1326  0.2186  0.0621
16139W        W36419  19.142  19.082  10.692  0.2920  0.0904  0.1274
16140W        W36420  16.447   6.223   1.979 -0.0374 -0.1403  0.1449
16141W        W36421  17.044   9.296   1.378  0.1625  0.1659 -0.5689
16142W        W36422  18.995   1.743   3.134  0.0666 -0.0392  0.0698
16143W        W36423  11.517   6.776  12.303 -0.1058  0.1201  0.0476
16144W        W36424  15.459   7.756  11.717  0.1306 -0.0354 -0.1020
16145W        W36425  11.820   5.946   2.782 -0.2139 -0.0243  0.4277
16146W        W36426   1.827   8.578  12.502 -0.0987  0.4444  0.2819
16147W        W36427  17.556   2.584  12.867  0.0721  0.1597  0.1015
16148W        W36428   5.971   2.679   1.012  0.4594  0.1220 -0.0213
16149W        W36429  17.386   1.737  10.864 -0.0138 -0.1765 -0.0833
16150W        W36430   6.562   5.814  10.640 -0.1215 -0.3516 -0.3360
16151W        W36431   8.325   2.632   2.252 -0.0620  0.1953 -0.3228
16152W        W36432  17.097  13.008   0.304 -0.1781 -0.1281 -0.2290
16153W        W36433  10.098  13.294  11.318  0.0957 -0.0231 -0.3162
16154W        W36434  17.641   0.818   0.004 -0.0430 -0.0990  0.2017
16155W        W36435   0.061   1.524  10.210 -0.1076 -0.2208  0.0577
16156W        W36436  11.155  17.150   2.890  0.1124 -0.1327  0.1537
16157W        W36437  11.805   5.435   1.972 -0.3205 -0.0100 -0.0273
16158W        W36438   5.565  14.492  11.919 -0.1957  0.2133  0.0298
16159W        W36439   5.030   4.173   3.673  0.1182  0.1497  0.5917
16160W        W36440   0.346  16.729  11.860  0.0867 -0.1112 -0.0539
16161W        W36441  11.499   8.277   2.273  0.0654 -0.0128  0.0999
16162W        W36442  14.583   7.729   2.908 -0.0006 -0.2198 -0.1330
16163W        W36443  17.981  13.474   1.537 -0.3082 -0.0296 -0.1204
16164W        W36444  13.580   5.794  11.856  0.0753  0.0507  0.0597
16165W        W36445  15.096  14.368  13.853 -0.1061  0.2093 -0.1449
16166W        W36446   1.030   3.144   0.887 -0.0905 -0.4006  0.0052
16167W        W36447  16.003  18.147  12.656 -0.1175  0.2364  0.1382
16168W        W36448   3.657  14.785   1.012  0.1833  0.0903  0.0303
16169W        W36449  19.585   0.104   1.993 -0.2990 -0.1580  0.1287
16170W        W36450   4.133  10.424  10.988 -0.1575 -0.3087 -0.0188
16171W        W36451   9.802  18.510  12.907 -0.0875  0.1918 -0.0878
16172W        W36452   1.378  10.970   2.391 -0.1251  0.1147  0.0805
16173W        W36453   4.266  19.390   4.764  0.0717 -0.2361  0.0530
16174W        W36454  18.757  14.924  10.790 -0.2335 -0.1648  0.0653
16175W        W36455  11.466  14.857  12.795 -0.1847 -0.1402 -0.0658
16176W        W36456   3.807  13.707   3.809  0.0728  0.1048  0.0581
16177W        W36457  13.682  13.565  13.669 -0.1028  0.0810  0.1333
16178W        W36458   1.366  13.456   0.413 -0.4828 -0.1424  0.3061
16179W        W36459  18.428  12.247   3.325  0.3305 -0.4311 -0.1909
16180W        W36460  11.543  18.581   1.736  0.2458  0.1052  0.0406
16181W        W36461  15.738   3.987   2.164  0.1693 -0.0244 -0.4708
16182W        W36462  17.458   2.275   1.872  0.5040  0.0344 -0.0232
16183W        W36463  14.097  11.056  10.427 -0.0031  0.1414 -0.0308
16184W        W36464  13.634  13.610   1.915  0.4894  0.1229 -0.0101
16185W        W36465   2.267  11.035   3.836  0.1200  0.2021  0.1425
16186W        W36466  19.354  18.738   0.347 -0.0940 -0.1659  0.1075
16187W        W36467  19.093   0.810  12.065  0.0368  0.0349  0.1291
16188W        W36468   4.520   0.579   3.223  0.3059  0.0865  0.0590
16189W        W36469   0.903   5.930   0.547 -0.1088  0.2741 -0.4046
16190W        W36470  15.828  13.941  10.381  0.0005  0.1133  0.0995
16191W        W36471  16.916   2.347  10.460  0.0384  0.2082  0.1541
16192W        W36472   6.049   6.511  10.978 -0.0454 -0.1149 -0.2413
16193W        W36473  15.620   8.055   2.337 -0.4199 -0.0939 -0.1754
16194W        W36474  18.831   1.405  10.911 -0.0885  0.0707  0.0955
16195W        W36475   7.870  17.890   1.385  0.2331  0.3968 -0.1096
16196W        W36476   2.133   1.709  12.569  0.3117  0.2348 -0.1356
16197W        W36477  12.511  18.396   2.575  0.1177  0.2351  0.0999
16198W        W36478  11.005   9.977  11.246  0.2629 -0.0265 -0.0973
16199W        W36479   5.037  15.267  13.586  0.1338  0.3916 -0.3443
16200W        W36480  17.297  15.193   3.214  0.1708 -0.1126 -0.1735
16201W        W36481   2.299   3.020  10.503  0.0699  0.0923 -0.2065
16202W        W36482  16.361  13.307  10.583 -0.1960 -0.2308  0.0023
16203W        W36483  10.832  18.464  12.423  0.0123  0.2987 -0.1259
16204W        W36484   9.685  11.546   1.562  0.0856 -0.0494 -0.0042
16205W        W36485  18.496   3.995  10.960 -0.0703  0.2460  0.0598
16206W        W36486   6.475  16.126   9.321 -0.1210  0.2329  0.0609
16207W        W36487  18.763   4.591   9.797 -0.2468  0.0390 -0.3479
16208W        W36488   7.855  16.578   2.797  0.0017 -0.1915 -0.1821
16209W        W36489   6.765  12.925  12.432  0.1048 -0.1760  0.1481
16210W        W36490  11.789   8.500  12.817 -0.0748  0.1501 -0.0194
16211W        W36491   8.614   6.063   0.657  0.0119 -0.2692 -0.1131
16212W        W36492  15.358   6.689  10.525  0.0577 -0.1100  0.0394
16213W        W36493   6.649   3.299  13.390 -0.2074  0.4665 -0.1447
16214W        W36494   8.758   1.741   3.367  0.0929  0.2397 -0.0653
16215W        W36495  11.832  18.842  12.969  0.0838  0.3443  0.2822
16216W        W36496   1.712   6.943  12.105 -0.3450 -0.1946  0.1178
16217W        W36497  17.708  18.120  11.919  0.0680 -0.0556  0.3372
16218W        W36498   5.696  12.541  11.728 -0.0221 -0.2292 -0.2559
16219W        W36499   6.366  14.429   2.855  0.1821 -0.1300  0.1656
16220W        W36500  19.322   0.393   1.580 -0.0915 -0.1905  0.1067
16221W        W36501  11.494  15.974  10.924  0.2746  0.0150  0.0346
16222W        W36502  16.754  17.485  12.868 -0.0068  0.0949  0.0974
16223W        W36503   9.988   5.448   2.504  0.0091  0.0907 -0.1973
16224W        W36504  15.805  19.811  13.070 -0.2723 -0.0543  0.2354
16225W        W36505   3.200  17.817  11.204 -0.0929  0.0869 -0.3765
16226W        W36506   0.781  18.813   1.651  0.1141 -0.0412  0.0194
16227W        W36507  11.477   6.419  11.028 -0.2424 -0.1564  0.0061
16228W        W36508  11.230   1.396   8.897 -0.2466  0.1997 -0.3650
16229W        W36509   4.682  15.500  11.722 -0.5238  0.2381 -0.0824
16230W        W36510  16.250  16.729   1.548  0.0132  0.5168  0.1161
16231W        W36511  15.788  15.073  12.418  0.1890 -0.2927  0.0037
16232W        W36512   6.461   0.826   0.071 -0.1679  0.2087 -0.2015
16233W        W36513  13.077   4.918  10.099  0.1977  0.0632 -0.3941
16234W        W36514  18.269   1.548   1.444  0.0665 -0.1283  0.2513
16235W        W36515  17.279   0.110   3.906  0.1313 -0.1141  0.1274
16236W        W36516   8.292  11.879   1.985 -0.0628  0.2095 -0.1906
16237W        W36517   5.332  13.414   2.534  0.0243  0.1911  0.0384
16238W        W36518  12.673  14.644  13.122 -0.0002 -0.0585  0.0973
16239W        W36519   5.155   3.868  10.248 -0.0750 -0.1431 -0.2434
16240W        W36520   3.678   4.236   0.703 -0.3281  0.0376  0.3400
16241W        W36521   6.714  19.534  13.529  0.1807 -0.1328 -0.1237
16242W        W36522  10.776  18.326   0.464 -0.1803 -0.0585  0.0365
16243W        W36523   7.826  19.065  13.627 -0.2253  0.2212  0.2406
16244W        W36524   9.951   2.979   2.200 -0.0984 -0.0478 -0.1500
16245W        W36525   9.615  11.310   4.065 -0.0679  0.0607  0.2506
16246W        W36526  10.265   5.100   2.995  0.4772  0.0059 -0.0482
16247W        W36527  11.442   4.014   3.520  0.1465  0.0405  0.2497
16248W        W36528   6.035   5.347   5.076 -0.1393 -0.2234 -0.1775
16249W        W36529   1.604  16.942  13.843  0.2525 -0.2690  0.4687
16250W        W36530   5.945  12.002   1.713  0.1615 -0.4649  0.0066
16251W        W36531   4.082   7.881   3.060  0.2086 -0.0854  0.2862
16252W        W36532   4.395   6.490   2.667  0.0505  0.0755 -0.0237
16253W        W36533  11.314   1.844  12.775  0.1987  0.3455  0.1159
16254W        W36534  15.818  14.384   2.744  0.2196 -0.0831 -0.0046
16255W        W36535  11.947   2.934   9.960 -0.0071  0.1017  0.0385
16256W        W36536   5.762   4.477   3.162  0.0249  0.0076 -0.1145
16257W        W36537  15.214   5.785   0.833 -0.1612  0.2322 -0.0764
16258W        W36538   0.458   2.601  12.064  0.0822 -0.1198 -0.1582
16259W        W36539  13.737  10.054   2.431 -0.0553 -0.0415  0.1163
16260W        W36540  14.168  15.264   1.776 -0.0183 -0.0997 -0.2334
16261W        W36541   3.175  11.347  13.760 -0.1346  0.0391 -0.1477
16262W        W36542   7.204   2.963   4.145  0.2619 -0.0930  0.0650
16263W        W36543   9.240  11.735   3.646  0.0797  0.1889 -0.1033
16264W        W36544   9.030   1.076  12.296  0.2749 -0.0067 -0.0919
16265W        W36545  13.881   2.811  12.614 -0.2411 -0.2630  0.4819
16266W        W36546   9.228   7.379  13.340  0.2299 -0.1174 -0.0656
16267W        W36547  14.270  15.455   3.512  0.1181 -0.0145  0.0805
16268W        W36548   1.432  18.141   1.882  0.0827  0.0472  0.1435
16269W        W36549  15.539   0.369  11.129 -0.0666  0.0645 -0.2215
16270W        W36550  16.541  18.561   2.186  0.0488 -0.0047  0.1592
16271W        W36551   7.420   9.883  12.454 -0.0711 -0.1708 -0.0609
16272W        W36552   0.878  19.162   3.205 -0.1473 -0.0283  0.0033
16273W        W36553  10.887  16.152  12.591  0.2118 -0.2126 -0.2155
16274W        W36554   7.015   9.409   2.369 -0.0011 -0.0126 -0.2495
16275W        W36555  12.409   7.065   3.327  0.3677  0.0685 -0.2349
16276W        W36556   8.704   5.728   3.648 -0.1008 -0.3060  0.1222
16277W        W36557  18.548   5.197   0.132  0.0404  0.1092  0.0214
16278W        W36558  17.153   3.302  13.852 -0.0009  0.0413  0.2340
16279W        W36559   9.913  12.346   2.028  0.0553  0.2527 -0.0967
16280W        W36560  19.605  12.793  10.704  0.3117  0.1161 -0.0589
16281W        W36561  13.992   4.573   0.381  0.2782  0.0106 -0.1249
16282W        W36562  11.457   4.699   2.400  0.0523  0.1530  0.1301
16283W        W36563  15.700  13.141   9.892 -0.1916  0.1061 -0.0864
16284W        W36564  14.278   7.403   1.729  0.0186 -0.0004 -0.1793
16285W        W36565   5.794  13.694   3.482 -0.0721 -0.0828 -0.1555
16286W        W36566  16.660   0.689   3.405  0.0670  0.3786 -0.1112
16287W        W36567  11.957   5.241   3.059  0.0089 -0.2085 -0.0384
16288W        W36568   3.419   2.934  13.129 -0.4003  0.2245 -0.0136
16289W        W36569  17.766   1.434   9.632 -0.1219  0.0219 -0.3654
16290W        W36570  16.454   3.706   1.123  0.2987 -0.1928 -0.0211
16291W        W36571  14.135   7.856   4.433  0.1297  0.1917 -0.1832
16292W        W36572   3.691   9.487   2.761  0.2529  0.2038 -0.0146
16293W        W36573  12.028  11.812   1.643 -0.1729 -0.0556 -0.0584
16294W        W36574   9.218   1.124   0.790 -0.0271 -0.0396  0.1733
16295W        W36575   6.885  14.795  12.003 -0.0037 -0.0337 -0.0297
16296W        W36576   1.842   3.447   0.417  0.1069  0.3533  0.0894
16297W        W36577   4.792   9.692   4.235 -0.1489  0.4557 -0.2536
16298W        W36578  10.217   8.581   2.675 -0.1704 -0.0087 -0.0065
16299W        W36579   2.155  18.031  12.023  0.1627  0.4559  0.2980
16300W        W36580   0.358   2.326   3.274 -0.0925 -0.0553 -0.0528
16301W        W36581   9.714   9.367  12.419 -0.0142  0.0547  0.2181
16302W        W36582   7.743   0.030  13.834  0.0643 -0.0694 -0.0479
16303W        W36583  12.340  17.322  12.269 -0.0141  0.0249 -0.1139
16304W        W36584  16.243   0.802  12.038 -0.0577 -0.1790 -0.1689
16305W        W36585   0.025   1.654  12.442  0.0388 -0.0437 -0.0233
16306W        W36586   5.652   9.802  10.896 -0.0977  0.0288  0.2984
16307W        W36587  16.990   8.878  11.736  0.0711  0.1349  0.0966
16308W        W36588   2.620   7.018  12.035 -0.2219  0.1847 -0.4003
16309W        W36589  14.510   5.043  13.624  0.3547 -0.0372  0.0534
16310W        W36590  10.854   1.500  12.378  0.2404  0.3038 -0.2766
16311W        W36591   9.459  19.785   2.047 -0.1973 -0.0536  0.0797
16312W        W36592  12.038  17.626  13.072 -0.2071 -0.1452 -0.0020
16313W        W36593  10.573   7.298   0.838 -0.2772  0.1220  0.1692
16314W        W36594   5.649   1.691   4.341  0.1169 -0.0989  0.1039
16315W        W36595  12.806   8.854   9.730 -0.2150 -0.1494  0.1481
16316W        W36596   1.971  11.250   1.908 -0.1485  0.0212 -0.0465
16317W        W36597  11.772  18.716   0.553  0.1703 -0.1069 -0.0925
16318W        W36598   3.144   9.540   0.990  0.2000  0.1711  0.0192
16319W        W36599  10.130  15.616  12.322  0.1337 -0.0543  0.2180
16320W        W36600   9.219   3.766   4.239 -0.0643 -0.0673  0.0150
16321W        W36601  18.015  14.583   1.222 -0.0172  0.0081 -0.2841
16322W        W36602   0.203   9.338   4.456 -0.1374  0.4862  0.0277
16323W        W36603   3.553  12.821   1.841 -0.1252 -0.1491 -0.2242
16324W        W36604   5.571  18.791  10.891 -0.2270 -0.1163 -0.1882
16325W        W36605   8.586  16.840   2.134  0.2869  0.0181  0.0254
16326W        W36606  11.084  18.708  10.887 -0.1143 -0.2234 -0.0065
16327W        W36607   9.505  12.624  10.743  0.1419  0.2831 -0.0871
16328W        W36608   2.804   7.152   3.162 -0.2774  0.3321 -0.1181
16329W        W36609   2.441   4.803   0.929 -0.0125 -0.0475 -0.1764
16330W        W36610   2.906   8.724   2.523  0.0036 -0.0187 -0.0863
16331W        W36611  13.063   8.656  12.678 -0.0396  0.1572  0.0401
16332W        W36612  11.866   6.143   3.577 -0.0361  0.0802 -0.0332
16333W        W36613   0.128   2.615  12.848 -0.1874 -0.0058 -0.1377
16334W        W36614   6.731  18.488   2.765 -0.0839  0.0031 -0.0647
16335W        W36615   3.056   6.872  12.985  0.1559 -0.0708 -0.0750
16336W        W36616   7.772  18.703  10.928  0.1382  0.0682 -0.0220
16337W        W36617   0.754   1.903   2.068 -0.0636 -0.0930 -0.4169
16338W        W36618   9.372  15.930   0.131 -0.1809 -0.3637  0.0209
16339W        W36619   9.332   9.406   0.977 -0.0599  0.1712 -0.0957
16340W        W36620  14.467   5.115  10.202  0.0364 -0.0063  0.0516
16341W        W36621   6.141  15.150   9.415  0.0622 -0.2351 -0.2255
16342W        W36622  18.153  10.359  10.710  0.1772  0.0338 -0.1786
16343W        W36623  19.044   4.513  13.477 -0.3132 -0.1076  0.1265
16344W        W36624  10.184  18.670  10.546 -0.0099  0.0927 -0.3610
16345W        W36625  10.618  11.554   1.223 -0.1847  0.1012 -0.2081
16346W        W36626  13.822   5.804  10.345  0.1156 -0.0844 -0.1583
16347W        W36627  17.668   5.582   1.637  0.2827  0.1767 -0.2289
16348W        W36628  14.884   3.519  12.261 -0.1156 -0.0004 -0.5428
16349W        W36629   6.748   9.004   2.651  0.0346  0.0555  0.3655
16350W        W36630   6.828   7.327   1.602 -0.1113 -0.4873  0.0361
16351W        W36631   2.491   2.508  12.443 -0.0181  0.0058 -0.2166
16352W        W36632  16.532   5.065  12.843 -0.1598 -0.2777  0.2061
16353W        W36633   7.709  19.638   1.649  0.0063  0.0872 -0.0488
16354W        W36634  15.014   7.855   8.586 -0.2635  0.2782  0.0365
16355W        W36635  18.830   8.643   3.203  0.0291 -0.1638  0.2068
16356W        W36636  18.114  14.360   8.813  0.1507  0.1369 -0.0591
16357W        W36637  19.732   8.870  13.004  0.0810  0.0352  0.3553
16358W        W36638  13.729   3.591   8.872 -0.0466 -0.0519  0.0291
16359W        W36639  15.228   4.541   0.044 -0.2892  0.1253 -0.1546
16360W        W36640   5.318   1.648  10.660 -0.2915  0.4036  0.0905
16361W        W36641  16.167  14.007   8.855  0.0820 -0.3169 -0.1532
16362W        W36642  11.838  11.245   3.487  0.2629  0.0372  0.3755
16363W        W36643  10.559   6.695   1.851  0.4389  0.1396  0.2716
16364W        W36644   1.324   1.355   2.831  0.1844  0.2827  0.2768
16365W        W36645   3.770  19.640   0.995  0.1957  0.0783 -0.2362
16366W        W36646   4.259   8.633  13.137 -0.1416  0.2797 -0.1248
16367W        W36647  14.376   0.035  10.851  0.1491  0.1152  0.0758
16368W        W36648   1.358   5.625  12.171 -0.1457 -0.0719 -0.2516
16369W        W36649  14.700  18.679   1.877  0.2056 -0.0702  0.1351
16370W        W36650   0.486   0.658  12.019  0.2686  0.0632 -0.1622
16371W        W36651   4.843  16.515  11.231 -0.0472  0.0337 -0.2255
16372W        W36652  12.962  15.995   1.831 -0.2502  0.2048 -0.0010
16373W        W36653   4.564   7.755   0.262 -0.1650 -0.2199  0.0950
16374W        W36654   3.841  15.249   1.005 -0.0112 -0.0654  0.0955
16375W        W36655  14.068  18.263  10.329  0.2838 -0.1021 -0.3099
16376W        W36656   4.290   7.334  11.434 -0.2555 -0.4978  0.3541
16377W        W36657   3.826  18.822   4.356 -0.0028  0.1606  0.3191
16378W        W36658   6.311  11.179   2.202 -0.3551 -0.1654 -0.1128
16379W        W36659  15.379   2.241   1.801  0.2333  0.2422 -0.1545
16380W        W36660   4.733   1.335  12.927 -0.0033  0.3257 -0.0415
16381W        W36661   1.857  14.758  13.733  0.2005  0.0492  0.1552
16382W        W36662   7.505  18.312   2.851  0.0078  0.2752  0.2844
16383W        W36663   5.686  17.678   1.558  0.1644 -0.0858  0.0007
16384W        W36664   6.442   1.854   0.976  0.1774 -0.1408  0.3490
16385W        W36665  17.455   2.387   0.199  0.0766  0.2894  0.2839
16386W        W36666   8.686   1.330   1.675  0.2970 -0.0672  0.3748
16387W        W36667   5.393  17.793  11.258  0.0818 -0.0690  0.2343
16388W        W36668   5.188  17.814   1.029  0.0361  0.0361 -0.0707
16389W        W36669   6.706  13.129   1.240  0.1670  0.2206 -0.2745
16390W        W36670   6.780   7.429   3.977  0.0337  0.0640  0.0507
16391W        W36671  18.937   3.149   9.799  0.1242 -0.3242 -0.3034
16392W        W36672  11.567  11.672   1.842  0.3702 -0.2681  0.1634
16393W        W36673   8.086   3.115   3.688  0.0187 -0.0643  0.3074
16394W        W36674   6.079   0.107   2.473 -0.2695 -0.2155 -0.0606
16395W        W36675  15.467  19.441  12.915 -0.1348  0.0153 -0.0906
16396W        W36676   8.190   6.644  11.838 -0.0674  0.0456  0.2741
16397W        W36677  17.066  17.890   1.433  0.2410  0.2776  0.1116
16398W        W36678  17.888  10.198  13.166  0.3484 -0.0065 -0.0078
16399W        W36679   3.496  17.449  11.423 -0.2075 -0.0748 -0.3532
16400W        W36680  16.635   2.466  13.430 -0.1448  0.0027 -0.1280
16401W        W36681   9.920   8.370  11.147 -0.0748 -0.1420  0.1611
16402W        W36682   7.548   6.433   3.140  0.0865 -0.3384  0.0261
16403W        W36683   6.129  13.263   9.895 -0.1284 -0.0202 -0.1304
16404W        W36684   7.470  18.537   3.318 -0.2997 -0.0164  0.0135
16405W        W36685  18.137  12.923  13.467 -0.0203  0.1664  0.0121
16406W        W36686  11.596   2.043   0.818  0.0428 -0.0154 -0.2481
16407W        W36687   1.298   5.462   2.904  0.0791  0.0949  0.2218
16408W        W36688   9.919   8.783  10.799  0.0102 -0.0997 -0.0745
16409W        W36689  13.542  10.100  10.718 -0.1786  0.4242  0.1159
16410W        W36690  10.706   8.748  10.675 -0.0490  0.1894  0.0035
16411W        W36691   6.788  18.911   3.025 -0.5726  0.1902 -0.2138
16412W        W36692  18.883   5.704   0.775 -0.1943  0.3069 -0.1425
16413W        W36693  16.736  13.758  10.691  0.0100  0.0691  0.1293
16414W        W36694  14.564   8.980   1.569 -0.4135 -0.0907 -0.1707
16415W        W36695  15.703  19.511  11.553 -0.1591  0.1809 -0.0197
16416W        W36696   0.162   3.897  13.435 -0.0038  0.2438  0.1175
16417W        W36697   1.108  11.498  12.810 -0.2311 -0.2126  0.0867
16418W        W36698  13.286   4.841   9.616  0.1468  0.2442 -0.0994
16419W        W36699   7.487   4.166  10.907  0.1222 -0.1473 -0.1028
16420W        W36700  13.300  13.976  11.842  0.4054 -0.1384  0.2452
16421W        W36701  12.232  10.177   3.850  0.0675  0.2606  0.0569
16422W        W36702   6.889  16.638   9.244 -0.0684 -0.3343 -0.0868
16423W        W36703   2.157  12.916  13.419 -0.4193 -0.1543 -0.2096
16424W        W36704  17.529  15.404   1.131  0.2206  0.0422 -0.1881
16425W        W36705   8.975   0.348   1.269  0.2349  0.0057 -0.0111
16426W        W36706   7.302  13.551  13.002 -0.0282 -0.0162 -0.1221
16427W        W36707  15.063   0.564   2.830  0.1604 -0.1882 -0.2681
16428W        W36708   0.547  14.345  12.341  0.0157  0.0143 -0.0911
16429W        W36709  12.871   1.756   3.718  0.2663  0.0604 -0.0710
16430W        W36710  15.567   6.321  10.773 -0.2619  0.1306 -0.0163
16431W        W36711  13.995  17.736  11.087  0.0196  0.1560  0.0140
16432W        W36712   7.276   1.000  11.930  0.0882  0.1367 -0.0810
16433W        W36713   5.006   4.770  12.677 -0.2778  0.0644 -0.0949
16434W        W36714   7.972   6.499   1.177 -0.1473 -0.0695  0.1492
16435W        W36715   6.424  12.579  12.254  0.2608  0.2219 -0.2592
16436W        W36716   4.918  17.538  13.716 -0.1714 -0.1700 -0.0670
16437W        W36717   3.384   1.848   0.787  0.0242 -0.0213 -0.0535
16438W        W36718  11.688  13.017  11.250 -0.0015 -0.2012  0.1398
16439W        W36719  15.097   1.652   3.518  0.1721 -0.0419 -0.0755
16440W        W36720   7.754  13.181   2.481 -0.1711 -0.1269 -0.0559
16441W        W36721   0.040   7.486  11.830 -0.2102  0.1165  0.0924
16442W        W36722  13.809  19.606  12.621  0.0684 -0.0200 -0.1424
16443W        W36723  16.760   8.221   1.826  0.0337 -0.2869  0.3509
16444W        W36724   3.401   9.260   1.805 -0.2917  0.0668  0.3222
16445W        W36725   4.726   6.189  11.015 -0.3358  0.1787  0.2391
16446W        W36726  18.819  17.900  11.452 -0.0725  0.1027 -0.0583
16447W        W36727  17.613  14.897   1.175 -0.0916  0.0166 -0.0791
16448W        W36728  14.448  10.084  10.228 -0.0985 -0.2856 -0.1955
16449W        W36729   7.425  19.676  12.815 -0.4630  0.0260 -0.0861
16450W        W36730  19.047   9.733   2.196  0.3125  0.2198 -0.1362
16451W        W36731  17.752   7.939  11.165  0.0336  0.0000 -0.3374
16452W        W36732   3.825  10.881  11.049 -0.1858 -0.0784  0.3239
16453W        W36733  11.689   2.179  12.950  0.0141  0.0680  0.2186
16454W        W36734  14.691   6.549   0.067  0.1611 -0.1349  0.0272
16455W        W36735   5.301  12.280  12.824  0.0344 -0.2859  0.1606
16456W        W36736  13.915   6.795   2.957 -0.0491 -0.1987 -0.1197
16457W        W36737  16.520  15.818   3.036  0.0506  0.2533 -0.1724
16458W        W36738  17.011  17.928   3.112 -0.0310 -0.2855  0.0176
16459W        W36739  10.577  17.283  11.323  0.0289  0.0776  0.0547
16460W        W36740   0.095   7.122   3.045 -0.1886 -0.1304  0.2504
16461W        W36741   5.555  12.052  11.486  0.1806  0.1040  0.3432
16462W        W36742   7.163   0.647   3.424  0.1635  0.2190 -0.0960
16463W        W36743  11.960  14.080  11.290  0.2626 -0.0376  0.1101
16464W        W36744   6.039  13.159   2.026 -0.3649  0.0692  0.2723
16465W        W36745   0.668   1.279  10.887 -0.2450 -0.1375  0.0104
16466W        W36746  13.023   7.863  11.969 -0.1994  0.4533 -0.0968
16467W        W36747  19.581   0.191  10.956 -0.2275 -0.0341  0.0071
16468W        W36748  19.351  10.859  10.508 -0.5371  0.0059 -0.0815
16469W        W36749  12.039   4.627  13.757  0.1077 -0.2250  0.1027
16470W        W36750  19.546  15.168  10.502  0.0750 -0.2613  0.0990
16471W        W36751  18.768  18.845   3.196  0.0447 -0.0306  0.1353
16472W        W36752  17.914  16.440  11.740  0.0193 -0.2493  0.1659
16473W        W36753   6.556   5.018   3.683  0.2241 -0.1591  0.1456
16474W        W36754  12.809  16.862   0.844  0.1269  0.3450 -0.0097
16475W        W36755   7.534  17.862  10.779  0.4117  0.4398  0.0579
16476W        W36756  11.433  19.384  11.284 -0.0875 -0.1993 -0.1649
16477W        W36757  18.824  18.333   1.231  0.0597  0.2707  0.6126
16478W        W36758   0.559  13.515  13.312 -0.2552 -0.1525 -0.1981
16479W        W36759  18.477  10.924   0.127 -0.1090 -0.2485  0.2264
16480W        W36760  18.543   1.383   2.202  0.2067 -0.0794  0.0378
16481W        W36761   3.188  13.269   1.004  0.0223 -0.2280 -0.0450
16482W        W36762   4.391  14.087  13.191  0.0028 -0.1307 -0.1184
16483W        W36763   5.760   5.723  12.258 -0.0163 -0.5270  0.1289
16484W        W36764  14.485  10.351  11.056  0.0302  0.3852 -0.1179
16485W        W36765  11.605  11.709   3.646  0.0649  0.0898 -0.2678
16486W        W36766   0.202  12.655  12.049  0.0013  0.2929 -0.1476
16487W        W36767   9.849  13.215   4.198 -0.0291  0.0809  0.0962
16488W        W36768   5.378   2.684  11.514  0.1999 -0.1166  0.1930
16489W        W36769  14.071  18.280   3.386 -0.0934  0.1493  0.2560
16490W        W36770  11.146   8.682  10.885  0.0059 -0.0745 -0.0658
16491W        W36771   1.887   4.398   3.724  0.1803 -0.0155 -0.2474
16492W        W36772   4.132  18.191  10.557  0.1777  0.3159  0.1358
16493W        W36773  13.598   2.650   3.034  0.2294  0.1705 -0.1504
16494W        W36774  16.896  14.264   3.446  0.0662 -0.3012  0.1693
16495W        W36775   5.065   3.522   4.764 -0.0427 -0.0811 -0.0270
16496W        W36776  18.459   4.411   2.215 -0.0761 -0.1063  0.0340
16497W        W36777   6.511   3.713  11.570 -0.4011 -0.0340  0.1481
16498W        W36778   6.300  13.701   3.509 -0.0178 -0.0447  0.0086
16499W        W36779   7.944  15.444   9.665  0.2179 -0.3280 -0.0210
16500W        W36780   8.992   8.605  10.979  0.0994 -0.1565 -0.0893
16501W        W36781  11.355   8.982   0.151  0.0037  0.2843 -0.1336
16502W        W36782  13.738   4.779  13.209 -0.1290 -0.1190  0.2414
16503W        W36783   5.835   2.550   3.258  0.1680 -0.2827  0.0086
16504W        W36784   2.594  14.385   4.256  0.1647  0.1425 -0.2313
16505W        W36785   6.505  17.287   5.048  0.1441  0.3241  0.1125
16506W        W36786   0.121   9.997   2.625  0.0836  0.3802  0.0362
16507W        W36787  10.881  13.693  13.210  0.0958 -0.1563  0.1137
16508W        W36788  10.247  13.575   2.430 -0.2183  0.0342 -0.1502
16509W        W36789  12.849  18.896   0.628 -0.2223  0.0439 -0.2968
16510W        W36790  19.606   2.051   0.731  0.0742  0.0489  0.0564
16511W        W36791  11.349  10.802   0.355 -0.0988 -0.2008 -0.1688
16512W        W36792   5.448  12.371   2.267 -0.0814 -0.1354  0.2188
16513W        W36793   2.365   2.475   1.950 -0.1111  0.2523 -0.1234
16514W        W36794   8.840   2.467  10.867  0.0858 -0.0329  0.2573
16515W        W36795   4.084  11.840  11.678 -0.2541  0.0644 -0.1040
16516W        W36796   7.223  11.107   4.374  0.0382  0.0342  0.0784
16517W        W36797   1.459  11.082   1.870  0.1073  0.1193  0.0202
16518W        W36798   1.051   8.089   0.746  0.0739  0.1454 -0.2825
16519W        W36799   3.434   6.305   2.345  0.0569 -0.1349 -0.1049
16520W        W36800   8.679  10.008   2.864  0.1038  0.0044 -0.1927
16521W        W36801   6.687  11.190  10.432 -0.1365 -0.0704 -0.1306
16522W        W36802  15.037  12.069   1.113 -0.0840  0.2148 -0.4098
16523W        W36803   9.830  16.184  13.338 -0.3704  0.3597 -0.1728
16524W        W36804   5.967   7.976   3.207  0.0119  0.2742 -0.0389
16525W        W36805  19.209  17.495   2.602 -0.0070  0.1025  0.1473
16526W        W36806   0.616   3.113  13.278 -0.2174 -0.0060 -0.0563
16527W        W36807   9.816  14.737  11.483  0.1013  0.1847  0.0000
16528W        W36808   4.505   9.218   2.292  0.1871 -0.3266 -0.1429
16529W        W36809   2.366  10.945  10.776 -0.0868 -0.1931 -0.1799
16530W        W36810   5.809   7.165  12.066  0.1753 -0.0414 -0.2570
16531W        W36811   4.170   6.847   2.116 -0.1564  0.0535  0.2396
16532W        W36812  14.312  10.643  10.039 -0.1714  0.1488 -0.0240
16533W        W36813   5.816  10.385   2.504  0.4091 -0.0462  0.1349
16534W        W36814  18.198  11.702   0.189  0.2394  0.1092  0.0726
16535W        W36815   2.817   4.599   0.692  0.2106  0.0108  0.1561
16536W        W36816   0.942  16.914  11.074  0.0702 -0.0738 -0.2290
16537W        W36817   6.301  19.008   0.375 -0.1366  0.3137  0.0305
16538W        W36818   9.890   8.458   3.604  0.1536  0.2615 -0.2849
16539W        W36819  15.720   5.060  12.345  0.2221 -0.0289 -0.0384
16540W        W36820   9.877   9.981  11.238  0.2103 -0.2454  0.0372
16541W        W36821  17.243   3.022  12.787 -0.0734  0.1569 -0.0611
16542W        W36822   7.379  11.525  11.101  0.4053  0.1292  0.1149
16543W        W36823   8.449   7.416   2.122 -0.2391  0.0675  0.1850
16544W        W36824   9.579   9.715  12.813 -0.1520 -0.0662  0.1507
16545W        W36825   8.536  15.122  11.801  0.3940  0.0248  0.2198
16546W        W36826  14.525  11.865   2.421  0.1454 -0.0456 -0.0173
16547W        W36827  16.289   8.948   3.282  0.0929 -0.0235  0.3841
16548W        W36828   4.744   4.887   2.366  0.2141 -0.0573  0.1366
16549W        W36829  17.662  17.769  13.326  0.0857  0.2718 -0.0153
16550W        W36830  14.448   5.147   1.475 -0.1121  0.0935 -0.1282
16551W        W36831  19.130   6.740   3.012 -0.0336 -0.0595  0.1332
16552W        W36832   8.416  10.281  11.174 -0.0159 -0.4079 -0.1310
16553W        W36833  12.683  18.793  10.618  0.0320  0.1796  0.2415
16554W        W36834  19.519   7.429  11.771  0.2173 -0.3246  0.0492
16555W        W36835   9.964  14.726  10.556  0.1580 -0.1752 -0.1112
16556W        W36836   0.245  16.243  11.744  0.2077  0.3349  0.4015
16557W        W36837  13.513  13.635   8.908  0.1635  0.3038 -0.2014
16558W        W36838  14.748  14.710   1.773  0.2368 -0.1562 -0.1114
16559W        W36839   3.933  17.667   2.133  0.3520 -0.2896 -0.2022
16560W        W36840   0.182   1.991   3.588  0.3756  0.1639  0.0492
16561W        W36841   7.972   0.529  13.176  0.1769 -0.1665 -0.0797
16562W        W36842   0.711   5.182  13.285 -0.0025  0.1146  0.1784
16563W        W36843  13.087   4.948   1.045 -0.1649 -0.2574 -0.4278
16564W        W36844   5.933   2.091   1.207 -0.1315  0.2058 -0.2366
16565W        W36845  16.351   0.438   3.723  0.0927 -0.2369 -0.2512
16566W        W36846   4.439   4.704   0.449  0.1210 -0.0744  0.0138
16567W        W36847   2.218  16.025   1.416  0.1607 -0.1087  0.0118
16568W        W36848  16.039   9.826   0.350 -0.1141 -0.2767  0.2751
16569W        W36849   0.468   7.260  13.118 -0.1443  0.2560 -0.1763
16570W        W36850   0.312   8.968   9.743 -0.0185 -0.0944 -0.1481
16571W        W36851  12.066  10.854   1.544  0.0783  0.0208 -0.1649
16572W        W36852  19.715   9.736   1.354 -0.0096  0.0876  0.0773
16573W        W36853  18.597   8.090  13.353  0.0545 -0.0901 -0.3980
16574W        W36854  14.175   6.994   2.095 -0.2345  0.0677 -0.2619
16575W        W36855   2.156   7.720  12.240 -0.3475 -0.1011  0.3644
16576W        W36856   6.222   4.919  11.816  0.0233 -0.3593  0.1729
16577W        W36857   5.639   6.624   4.055  0.1688  0.2105 -0.0654
16578W        W36858  14.930  14.888  13.687  0.1753 -0.0676 -0.0793
16579W        W36859  12.359  16.778  10.817  0.0200  0.1678  0.2415
16580W        W36860  18.254  18.573  10.710 -0.0702 -0.7103 -0.3536
16581W        W36861   2.888  15.900  11.907 -0.1798  0.1841 -0.3091
16582W        W36862  11.852   3.245   3.443  0.0022 -0.0598 -0.0612
16583W        W36863  15.504  17.132  11.728  0.1128 -0.1773 -0.0486
16584W        W36864   0.787   3.784   3.298  0.0252 -0.2142 -0.2739
16585W        W36865   6.622  11.965   4.639 -0.0546 -0.3821 -0.0301
16586W        W36866  17.529  13.278   1.437  0.0471 -0.2371  0.0205
16587W        W36867  19.414  11.130  12.083 -0.2295  0.1877 -0.0077
16588W        W36868  11.240   3.713  12.909 -0.0832  0.0377 -0.4236
16589W        W36869   8.968   8.925  11.478 -0.1759  0.1490  0.1046
16590W        W36870  15.748  14.690  10.646 -0.0007 -0.2896  0.0422
16591W        W36871  17.974  18.124   1.840 -0.0903 -0.1680  0.0826
16592W        W36872   9.017  12.605  10.777  0.1988 -0.0428  0.0775
16593W        W36873   8.240   7.153  11.631  0.0903 -0.1629 -0.2358
16594W        W36874   3.865   8.685  10.414 -0.1917 -0.3433 -0.0137
16595W        W36875   0.522  16.923   5.464 -0.3964 -0.2948 -0.3284
16596W        W36876   3.095  16.790   2.993 -0.0493 -0.1058 -0.0570
16597W        W36877   2.493  18.470   1.702 -0.0925  0.0101 -0.0810
16598W        W36878  15.423  19.897   0.067 -0.1023  0.0374 -0.0436
16599W        W36879   7.090   7.081  13.740  0.0269  0.0559 -0.0344
16600W        W36880   9.737  15.217   9.787 -0.0834  0.1178 -0.2424
16601W        W36881  15.527  10.951   9.481 -0.0570 -0.0125  0.0473
16602W        W36882  13.878  10.997  12.690 -0.5388  0.5064  0.0475
16603W        W36883  17.596   2.639  11.899  0.0853  0.0050  0.0949
16604W        W36884   8.633  10.036   3.784 -0.1803 -0.1402 -0.1722
16605W        W36885  19.472  13.130   2.789 -0.0633 -0.1643  0.3912
16606W        W36886   0.111   3.832   2.729  0.0882 -0.1302 -0.2210
16607W        W36887   8.471   7.036   0.576 -0.1266  0.0643 -0.3733
16608W        W36888   8.857  12.207  11.104  0.2142  0.0431 -0.0718
16609W        W36889   8.113  19.820  10.651 -0.0170  0.0668  0.1492
16610W        W36890   5.651  15.496   2.066  0.1854  0.0985 -0.2949
16611W        W36891   0.681  11.316  10.864  0.0491 -0.1607 -0.2131
16612W        W36892  16.927  13.969   1.409 -0.5569  0.2509 -0.0915
16613W        W36893   8.293   8.120  12.081  0.2180 -0.1250  0.2612
16614W        W36894   3.305   7.098  10.232 -0.1368  0.0876  0.2976
16615W        W36895  13.130  10.060   3.686 -0.0062  0.0190 -0.0696
16616W        W36896  11.675   8.916   2.947 -0.2250  0.0129 -0.1527
16617W        W36897   6.624  17.272  12.391  0.2604 -0.1399 -0.0016
16618W        W36898   9.258   1.801   1.194  0.1074  0.0739 -0.4344
16619W        W36899  16.101  16.862  10.962 -0.2143  0.5647  0.3327
16620W        W36900  11.601   7.921   4.454  0.0570  0.0791 -0.1346
16621W        W36901  15.074   9.080  10.963  0.3066  0.0907 -0.0231
16622W        W36902  10.728   9.882  10.594  0.0517 -0.0963 -0.0680
16623W        W36903  17.255  11.705  10.814 -0.1263  0.0490  0.3622
16624W        W36904   9.094   9.890   3.100 -0.0063 -0.3215  0.1960
16625W        W36905  14.091  12.486  11.545 -0.2414 -0.2469 -0.3549
16626W        W36906  14.817   5.158   9.531 -0.3763  0.0953  0.0257
16627W        W36907  14.834  13.761   3.532 -0.0509  0.0193  0.1777
16628W        W36908   7.409  10.142  13.704 -0.0922  0.1018  0.0124
16629W        W36909   6.943  18.409  11.190  0.1965  0.1960  0.2891
16630W        W36910   4.576   4.543   9.940  0.4446  0.1691  0.1162
16631W        W36911   0.251   3.149  12.921 -0.2779  0.1636  0.2975
16632W        W36912  11.012   4.389  13.816  0.1941 -0.1310  0.1248
16633W        W36913  16.052  16.532   2.436 -0.0160  0.2457 -0.0957
16634W        W36914  18.962  18.938  13.635  0.1122  0.0732  0.0484
16635W        W36915   3.118   1.031  10.976 -0.4113 -0.0116  0.1368
16636W        W36916  12.294   1.411  11.109 -0.1497 -0.3739 -0.1664
16637W        W36917   7.367  12.584  11.240  0.0522 -0.0145  0.2575
16638W        W36918  19.836   1.336   1.261  0.0558  0.0431 -0.5773
16639W        W36919   7.458   9.397  12.474  0.2042  0.1800 -0.0052
16640W        W36920   4.249   6.184   3.778  0.0729  0.2398  0.0174
16641W        W36921   5.262   4.284  10.552 -0.4407 -0.0941  0.3673
16642W        W36922   1.139  18.024   2.747 -0.2243  0.1197  0.0930
16643W        W36923  16.311  12.211   2.510 -0.2458  0.0985  0.0757
16644W        W36924  12.774   1.428   1.750 -0.1257 -0.0109  0.2070
16645W        W36925  19.739  14.655  11.225  0.1255  0.1145 -0.0968
16646W        W36926  17.253  15.194  13.234  0.1268 -0.0288  0.0175
16647W        W36927  17.934  16.422  13.269  0.2115  0.3851 -0.1964
16648W        W36928  19.290  12.004  13.398  0.1515  0.0297  0.0962
16649W        W36929  15.427  11.437  10.357  0.1553 -0.1296 -0.1210
16650W        W36930  14.472  16.228   2.804 -0.2877 -0.0199  0.2659
16651W        W36931   6.524   6.552   4.233  0.4894  0.2744  0.2908
16652W        W36932  15.840  16.476  13.560  0.0153  0.2611  0.3197
16653W        W36933  10.729   5.918   3.692  0.3229  0.0707 -0.0599
16654W        W36934   9.033  17.796   2.063 -0.1559 -0.1691  0.4332
16655W        W36935  18.670   4.359  10.710 -0.2106 -0.1041  0.0244
16656W        W36936   2.064  13.017   2.533 -0.1163 -0.2182 -0.0635
16657W        W36937   0.802   9.344   1.219  0.1437 -0.2530  0.2776
16658W        W36938   6.386  15.502   2.489 -0.0070 -0.2214  0.1498
16659W        W36939  11.069  14.606   3.412  0.1054 -0.0147 -0.3490
16660W        W36940   0.987   5.007  11.956  0.3162  0.3322 -0.0385
16661W        W36941  19.203   3.910   3.559 -0.0030 -0.2628  0.2246
16662W        W36942   4.599  12.773   3.361 -0.1167  0.3253 -0.0591
16663W        W36943   5.124   1.127  11.695  0.1482  0.1228  0.0063
16664W        W36944   8.733  10.610  11.830 -0.0170  0.1743 -0.0763
16665W        W36945   4.021  10.387   0.152 -0.0864  0.1252  0.1057
16666W        W36946   1.250  16.703  13.381 -0.0601 -0.2019  0.0772
16667W        W36947  19.539   9.153  11.743  0.4288  0.1617  0.2284
16668W        W36948  12.879   3.672   9.958 -0.1119 -0.1138  0.2419
16669W        W36949  12.790   5.275  11.658 -0.0236  0.1244 -0.1461
16670W        W36950  15.984  18.315  12.054 -0.2441 -0.2851 -0.2505
16671W        W36951  11.121  18.409  10.392 -0.1195 -0.2066 -0.1329
16672W        W36952  16.270   5.758   3.418 -0.0043 -0.2011 -0.2815
16673W        W36953   4.542   5.857   1.305 -0.0100 -0.1656  0.0229
16674W        W36954   4.649   1.470   3.015 -0.1816  0.1822 -0.0691
16675W        W36955   9.951   9.254  13.019  0.2471 -0.1782 -0.0911
16676W        W36956  15.108  16.799  10.553  0.0291  0.1102  0.0282
16677W        W36957   2.661   7.971   3.413  0.1745  0.3271 -0.0495
16678W        W36958   1.408   2.766  11.713  0.1391 -0.0378 -0.1977
16679W        W36959  10.311   8.623  12.496 -0.2236 -0.0331  0.1921
16680W        W36960   6.455   5.236  11.489  0.1584 -0.2429  0.0365
16681W        W36961  15.792  19.114   3.285 -0.2899 -0.4088  0.0391
16682W        W36962   1.821  19.155   1.153  0.0530 -0.2096 -0.1646
16683W        W36963  12.952   4.397  12.418  0.0985  0.0660  0.1894
16684W        W36964   7.732   5.907  12.465  0.0291 -0.0340  0.0086
16685W        W36965   1.823   7.276  11.445  0.1362 -0.0327  0.0682
16686W        W36966   7.536  12.821   4.181 -0.1001  0.2227  0.2490
16687W        W36967  13.985   6.063  11.675  0.0898  0.1328 -0.1930
16688W        W36968   5.113   5.394   3.650 -0.0188 -0.0219 -0.0044
16689W        W36969   9.618   7.650  13.761  0.1643 -0.2569  0.1090
16690W        W36970  10.747  19.458   0.094 -0.2643 -0.0234 -0.1621
16691W        W36971   1.153  16.823   0.270  0.0324 -0.0159  0.1786
16692W        W36972  18.746  18.252  12.162 -0.1416  0.1965  0.6346
16693W        W36973   1.137   6.663  13.682  0.4584  0.0297 -0.0076
16694W        W36974   7.221   3.028  12.864 -0.0999  0.0566  0.0040
16695W        W36975  19.055  10.505  10.675 -0.1282 -0.0806 -0.1266
16696W        W36976   9.404   6.100   3.464 -0.1852  0.0606  0.0832
16697W        W36977   0.020  15.731   9.735  0.0948  0.0641  0.2297
16698W        W36978  15.054   6.318  12.124  0.2610  0.2404  0.1835
16699W        W36979  16.768  14.251  11.281 -0.2273  0.4989 -0.3813
16700W        W36980   7.710   8.045  12.357  0.0549 -0.0045  0.0302
16701W        W36981   6.563  11.771   0.095 -0.0057  0.1318  0.0702
16702W        W36982  19.131   3.981   2.549 -0.1570 -0.4004 -0.1064
16703W        W36983   3.060  18.254  11.825  0.1346  0.0735 -0.1405
16704W        W36984   2.908   7.629  13.645  0.1049 -0.3310  0.0602
16705W        W36985  15.889   2.573  12.355 -0.0599  0.0110 -0.2696
16706W        W36986  18.868   7.022   0.820 -0.3533 -0.1072 -0.0232
16707W        W36987  17.073  15.371   0.341  0.0613 -0.0467 -0.1737
16708W        W36988   4.600  15.182   5.203 -0.1149 -0.1056  0.1081
16709W        W36989  13.080  18.751  11.433  0.2108 -0.2611  0.1512
16710W        W36990  19.069  10.024  10.732 -0.0650 -0.1425  0.0868
16711W        W36991   4.558  14.232   3.013  0.0431 -0.1108  0.0281
16712W        W36992  12.845   3.729   1.643  0.3549  0.1976  0.0008
16713W        W36993  10.681  12.782   2.002  0.1323  0.1357  0.1030
16714W        W36994   9.182  14.364  12.666  0.0752 -0.2641 -0.1923
16715W        W36995   8.626  12.793  13.521 -0.0323  0.2855 -0.2449
16716W        W36996   4.680  16.917  13.574  0.1367  0.1631  0.0525
16717W        W36997   9.119   2.500   2.968 -0.0223  0.1474  0.0362
16718W        W36998  12.895  17.997   0.829 -0.0891  0.1381  0.4726
16719W        W36999  10.658   9.252  10.515  0.1019 -0.1010 -0.0444
16720W        W37000  11.112   3.840   2.536  0.0831 -0.0578  0.0850
16721W        W37001  19.830   6.636  12.865  0.0692  0.0475 -0.0015
16722W        W37002   3.192   3.789   3.154 -0.2127  0.1285  0.0400
16723W        W37003   4.458  14.637   2.550  0.2161  0.0405  0.2431
16724W        W37004   8.945  19.781  11.104 -0.0536  0.2332  0.0645
16725W        W37005   5.330   3.681   3.475  0.1108 -0.3173 -0.0523
16726W        W37006  16.579   4.829   1.886  0.2561  0.1127  0.0391
16727W        W37007   4.306  17.852   3.516 -0.2131  0.2173 -0.1337
16728W        W37008   1.263  16.182  10.893  0.0727 -0.3867 -0.1899
16729W        W37009  18.911   2.681  10.646 -0.4594  0.0804 -0.4278
16730W        W37010  14.618   7.127  10.350 -0.1714  0.0455  0.0429
16731W        W37011   0.175  17.325  10.480  0.2728 -0.0871 -0.0413
16732W        W37012   5.246   8.114  12.241  0.0256 -0.0934  0.3415
16733W        W37013   7.000   0.549  11.326  0.0696  0.0312  0.1138
16734W        W37014  12.642   1.498  11.774  0.0223  0.0703  0.0325
16735W        W37015  14.526   9.215  11.522  0.0342 -0.3723  0.2929
16736W        W37016   1.811   5.513  11.956 -0.0020  0.3831 -0.2826
16737W        W37017  14.522   2.807   9.398  0.1764  0.2459  0.0452
16738W        W37018  18.873   5.742   1.890 -0.1317  0.1059 -0.2397
16739W        W37019  11.035   1.636   2.848  0.2119 -0.1069  0.2817
16740W        W37020   5.166  16.280  10.673  0.0706  0.0413  0.1032
16741W        W37021   6.778   7.221  10.778 -0.1312  0.1372  0.0114
16742W        W37022   0.381  11.594  11.184 -0.0504  0.1133  0.2398
16743W        W37023  12.899   0.591  10.101 -0.1118  0.1576  0.3453
16744W        W37024  19.251   5.047  12.197 -0.2573  0.2617  0.1216
16745W        W37025   0.389   1.691  12.023 -0.1068 -0.3028  0.2825
16746W        W37026  15.686   2.661  10.151 -0.0229 -0.3734  0.1744
16747W        W37027  13.640   3.171  12.995 -0.0380  0.0283 -0.0777
16748W        W37028   0.051  10.681   2.582  0.1701 -0.0337  0.2288
16749W        W37029   5.776  17.306  13.008 -0.1661 -0.0628  0.0148
16750W        W37030   5.177   6.874  12.382  0.2768  0.2649 -0.1626
16751W        W37031   6.222   9.014  13.723  0.1586 -0.3161  0.3857
16752W        W37032   2.880  11.982  12.820 -0.0325  0.3368 -0.3235
16753W        W37033   2.905   4.584  13.663 -0.0200 -0.1010 -0.1201
16754W        W37034   5.780  15.697   1.168 -0.3697 -0.1603 -0.1321
16755W        W37035   6.266  10.589   1.057  0.1240  0.0401 -0.1239
16756W        W37036   5.601  13.243   2.942  0.0692  0.0598 -0.1001
16757W        W37037   8.128   1.389   3.031  0.4100  0.1019  0.1181
16758W        W37038  15.386  13.249   1.525  0.3425 -0.1029 -0.2925
16759W        W37039  17.316   6.417  11.765  0.4827  0.0761  0.1876
16760W        W37040  12.437  14.162  10.750 -0.0985  0.2385 -0.0592
16761W        W37041   7.213   1.217   3.678  0.0115 -0.0941 -0.3758
16762W        W37042  15.675  15.873  13.708 -0.0499 -0.0670  0.0333
16763W        W37043  17.214  11.507  12.331  0.1386 -0.2460  0.0048
16764W        W37044  18.595  11.497   9.597 -0.0898 -0.0109 -0.0843
16765W        W37045   8.185   5.196   2.557  0.1056 -0.3486  0.2801
16766W        W37046  13.945  11.123  10.900  0.0336 -0.2096  0.5156
16767W        W37047  11.874   0.067  12.645 -0.1239  0.3202 -0.1684
16768W        W37048   3.431   2.158  12.165 -0.0695 -0.0497  0.0729
16769W        W37049  11.946   8.535   2.715  0.1260  0.0515 -0.1710
16770W        W37050  11.386   0.559  11.127  0.1488  0.0475 -0.2566
16771W        W37051  11.749  11.408   4.454 -0.1971  0.1565  0.1030
16772W        W37052  11.910   1.039  11.504  0.1291  0.3847 -0.0002
16773W        W37053   0.605  11.769   2.595  0.0582  0.3854 -0.1672
16774W        W37054   5.265  17.063  12.247  0.1037  0.1505  0.1298
16775W        W37055   3.589   0.936  12.758  0.3788  0.1609  0.0756
16776W        W37056   1.832  15.463   2.283 -0.1651  0.3030  0.0793
16777W        W37057  10.798   8.030  12.929 -0.0325 -0.0190  0.2876
16778W        W37058  19.036  14.564   0.314 -0.0680 -0.2262  0.1725
16779W        W37059   3.795   4.574  13.580 -0.1233 -0.1078  0.2092
16780W        W37060  11.680  12.932  12.467 -0.0756  0.1267 -0.0947
16781W        W37061   7.601  17.654   4.236  0.4014 -0.2066  0.1652
16782W        W37062  12.017  10.512   2.358  0.1041  0.0589 -0.0345
16783W        W37063  14.212  18.657  10.017 -0.0120 -0.0511  0.1441
16784W        W37064   3.481   5.682   3.637 -0.0192  0.2026 -0.1796
16785W        W37065  14.208   9.931   9.301 -0.3589  0.3655 -0.2783
16786W        W37066  17.732  10.748   2.850 -0.3239 -0.0314  0.1091
16787W        W37067   7.116   0.832   1.712 -0.2867  0.2711 -0.1717
16788W        W37068  18.718   2.170  12.829  0.1713  0.4445 -0.0133
16789W        W37069  16.347  18.672   3.999 -0.1341 -0.0318  0.0773
16790W        W37070   4.787   5.565   0.633 -0.2098  0.0709  0.0180
16791W        W37071   0.468   3.056  10.584  0.2145 -0.0225  0.1314
16792W        W37072   3.662   9.173   2.263  0.1698  0.0525  0.1334
16793W        W37073   8.382  10.295  13.438  0.1613 -0.0439  0.0069
16794W        W37074   6.481   6.672   1.292 -0.0133 -0.1587  0.2377
16795W        W37075  15.070   7.793  11.267  0.1030  0.0663 -0.3903
16796W        W37076  11.030  13.822   4.014 -0.1391  0.2532 -0.2525
16797W        W37077   5.158  12.587  13.513  0.1102 -0.3279 -0.1247
16798W        W37078   1.787   1.172  11.067 -0.1869  0.1182 -0.0623
16799W        W37079  16.517   5.786   1.291  0.2408 -0.2148  0.0808
16800W        W37080  15.426  13.581  13.438 -0.0381 -0.1727  0.0617
16801W        W37081  12.596  17.583  13.749  0.2132 -0.0270  0.1030
16802W        W37082  15.201   9.875  13.827 -0.0746  0.0820 -0.4456
16803W        W37083   5.431  11.542  11.636 -0.1009 -0.2383 -0.0503
16804W        W37084  18.135   2.299  12.160  0.2092 -0.1052 -0.0260
16805W        W37085  17.157  15.049  12.193  0.1623  0.0280  0.2967
16806W        W37086  11.501  12.519   3.995 -0.0748  0.0504 -0.1328
16807W        W37087   8.498   3.920   1.762 -0.4065  0.0084  0.0844
16808W        W37088  10.581  13.705   1.705  0.0980  0.1294  0.3457
16809W        W37089  18.508   9.389   0.912  0.4077  0.0725 -0.2097
16810W        W37090  15.534  16.269  11.353 -0.0317 -0.0626 -0.0088
16811W        W37091   1.602  12.600   4.233  0.1250  0.1157 -0.2815
16812W        W37092  17.124   9.939  13.686  0.1996  0.3598 -0.0080
16813W        W37093  14.677  10.325   9.223 -0.0047  0.1571 -0.1683
16814W        W37094   3.865  16.445   0.913  0.0445 -0.0481 -0.2164
16815W        W37095  17.889   4.740   8.886  0.0646  0.1332 -0.0226
16816W        W37096  15.654   4.275  10.227 -0.3494 -0.0543  0.0191
16817W        W37097  16.314   9.093   0.776 -0.0027 -0.1272  0.2197
16818W        W37098  17.389  16.175   0.511  0.0041  0.0927  0.0031
16819W        W37099  19.295  11.141   0.497  0.1338  0.0172 -0.1234
16820W        W37100  14.405  10.125   0.848  0.3998  0.2642 -0.1197
16821W        W37101   7.550   2.314  13.776  0.3519  0.0723  0.1821
16822W        W37102   3.915   5.735   4.684  0.1699 -0.4323 -0.2011
16823W        W37103   6.359  14.868  13.191  0.1776 -0.0107  0.2285
16824W        W37104   8.862   5.768   1.830 -0.1720  0.1915 -0.0673
16825W        W37105   4.152  12.976  11.111  0.1674  0.2017 -0.0002
16826W        W37106   0.133   2.362   0.584 -0.0709 -0.0783  0.0859
16827W        W37107  11.427  17.002  12.619  0.2013  0.0949  0.0296
16828W        W37108  14.127  19.348  10.172 -0.1548  0.2982 -0.1698
16829W        W37109   1.414  13.230   4.702  0.0824 -0.1625 -0.1190
16830W        W37110  10.008  13.080   2.354  0.1615 -0.1939  0.0786
16831W        W37111  12.678   6.481   2.325 -0.1755 -0.0917  0.0823
16832W        W37112  12.176  14.430   2.188 -0.0905  0.0348  0.0633
16833W        W37113   1.983  16.867  12.532 -0.3133 -0.1009 -0.0282
16834W        W37114   4.055   4.533   0.815 -0.0724 -0.2277  0.3511
16835W        W37115   9.616  16.408  12.605 -0.2540  0.0802  0.0939
16836W        W37116  11.694  17.245   3.160 -0.0174  0.1751  0.0653
16837W        W37117  15.580   8.156   9.653  0.2013 -0.2497 -0.3182
16838W        W37118  11.128  14.142  13.574 -0.1832  0.4125 -0.1086
16839W        W37119   2.768  15.718   3.883 -0.1621 -0.0074  0.1044
16840W        W37120   3.445   9.824  12.566 -0.0904 -0.5640 -0.0736
16841W        W37121   0.617   3.998  13.506 -0.3036 -0.0931 -0.2764
16842W        W37122   9.603  15.163   0.648  0.1213  0.1495  0.0893
16843W        W37123  15.246  11.919  13.164 -0.3102 -0.0320  0.2296
16844W        W37124  10.759  17.344  12.509  0.1135  0.3856  0.0020
16845W        W37125  16.957  18.484  13.203  0.0005 -0.4198 -0.0256
16846W        W37126   3.548   5.489  11.809 -0.2682  0.0745  0.0985
16847W        W37127  11.774  14.004   3.459  0.3128  0.0202  0.3377
16848W        W37128  16.991  17.808  11.467 -0.1224  0.2947  0.2526
16849W        W37129   5.867  19.590  13.113 -0.1167 -0.2199  0.0818
16850W        W37130   2.896  12.752  10.512  0.0250  0.1937 -0.1655
16851W        W37131  18.527   8.108  11.603 -0.0984 -0.3460  0.2914
16852W        W37132   7.299   2.529   1.388 -0.0665 -0.1229 -0.1112
16853W        W37133   3.214  11.500   1.581 -0.4724 -0.1012 -0.2740
16854W        W37134  18.018   8.320   2.602 -0.1203  0.1552  0.1509
16855W        W37135   0.440  16.322   1.731  0.0129  0.0805  0.1238
16856W        W37136   9.158  17.443  11.396 -0.2549 -0.1818 -0.1749
16857W        W37137   6.238  15.745   1.472  0.2591 -0.0216 -0.1379
16858W        W37138  17.934  14.974  11.494  0.0394 -0.1682 -0.0905
16859W        W37139   7.218   4.624  12.242 -0.1641 -0.1206  0.0519
16860W        W37140   7.429  17.667   3.755  0.3120  0.1360 -0.0374
16861W        W37141   3.661   1.265  12.364  0.0637 -0.3152 -0.0783
16862W        W37142  14.169  15.037   0.962  0.2874  0.1017 -0.1110
16863W        W37143   2.191   9.991   2.214  0.1568  0.2450 -0.0366
16864W        W37144   1.385  17.201   1.239  0.0672  0.0693  0.2466
16865W        W37145  12.632   2.346   2.905  0.1073  0.1720 -0.0846
16866W        W37146  16.867  16.703  13.401  0.2712  0.0660 -0.0203
16867W        W37147  19.236   5.727   1.080 -0.1618 -0.1115  0.1606
16868W        W37148  16.888   6.312  13.322 -0.0529  0.1444  0.2315
16869W        W37149  14.456  16.240   1.345 -0.0130 -0.1491  0.1857
16870W        W37150   1.072   4.115   9.121  0.1616  0.1823 -0.2633
16871W        W37151  15.133   9.910  12.439  0.1919 -0.1548  0.2760
16872W        W37152  17.032   6.345  10.898  0.1981  0.1793  0.0159
16873W        W37153  17.684  10.881  11.755 -0.1093  0.2292 -0.2439
16874W        W37154   6.460   5.730  11.143  0.1653  0.0758  0.1705
16875W        W37155  16.505  14.168   0.356  0.2422  0.1565  0.1016
16876W        W37156   4.564  10.447  11.471  0.1515  0.0518 -0.2218
16877W        W37157  19.634   5.781  12.371 -0.0831 -0.1403 -0.0566
16878W        W37158  15.646  10.387  12.957  0.1808 -0.1437  0.0495
16879W        W37159  11.154   9.253   0.572 -0.0869 -0.2484  0.1306
16880W        W37160  18.421   5.719  12.500  0.1756 -0.6251  0.2697
16881W        W37161   2.692  13.660  10.974 -0.1914 -0.2524  0.0585
16882W        W37162   9.718  16.504   4.890  0.1843 -0.3551 -0.2874
16883W        W37163   2.309   3.641   0.470 -0.1203 -0.3348 -0.1152
16884W        W37164   1.362  15.786   1.158  0.0282 -0.4069  0.2157
16885W        W37165   9.922   6.157   3.290  0.1162 -0.0823 -0.0745
16886W        W37166   7.715   6.600   2.621 -0.2652  0.2377 -0.1248
16887W        W37167   0.940   7.837  11.798  0.2875 -0.0190 -0.0412
16888W        W37168  17.822   3.583   1.068  0.0948  0.0045  0.0338
16889W        W37169   1.353  11.848   1.557  0.1123 -0.1782  0.0009
16890W        W37170   7.248   8.959   2.507 -0.1386 -0.2190  0.3461
16891W        W37171   4.107  10.919   3.108 -0.0155 -0.0843 -0.0273
16892W        W37172   9.720   6.196  12.580 -0.1500  0.0047  0.0307
16893W        W37173   3.176   6.720   1.489 -0.0865  0.1590  0.0011
16894W        W37174   6.546   8.531   2.468  0.0190  0.3095 -0.0963
16895W        W37175  13.360   6.556  10.790 -0.1010  0.1420  0.0777
16896W        W37176   4.700   1.168   2.509  0.1139  0.0316  0.0635
16897W        W37177   9.466   0.543  10.833 -0.0762 -0.0902  0.1044
16898W        W37178   6.892   8.799   1.287  0.1640  0.0590  0.2901
16899W        W37179  19.476  14.872  13.483 -0.0129 -0.0453  0.2605
16900W        W37180   6.600  10.857  10.827 -0.1463 -0.1555  0.1000
16901W        W37181   5.771   9.739   1.299  0.2742 -0.0517 -0.0957
16902W        W37182  16.978   0.922   3.649 -0.2392 -0.5074 -0.0436
16903W        W37183   9.534  15.596  11.650 -0.2061  0.0394 -0.0083
16904W        W37184  16.632  18.979  13.024  0.0627 -0.1324 -0.1253
16905W        W37185   8.908   1.285   3.397 -0.1264  0.2105 -0.1370
16906W        W37186  16.206  12.584   2.855  0.2291  0.0842  0.1350
16907W        W37187  11.087  15.487  13.171  0.0555  0.2243  0.0214
16908W        W37188  12.234   6.651   3.020 -0.0110 -0.3274  0.0294
16909W        W37189  10.625  15.685  11.250 -0.1159 -0.1552  0.2904
16910W        W37190  18.941  14.157   8.707 -0.0711  0.4376  0.1543
16911W        W37191   2.920   5.856  13.014 -0.1525  0.0352 -0.0570
16912W        W37192   7.800   3.336   9.655  0.0949 -0.1166  0.2102
16913W        W37193  19.014   5.476  12.666 -0.2086  0.1050 -0.2957
16914W        W37194  13.675  15.340  11.811  0.1800  0.2575 -0.1790
16915W        W37195   9.924  12.305   0.295 -0.0288 -0.0267  0.0652
16916W        W37196   7.934   9.347  12.643  0.2193 -0.0042  0.1765
16917W        W37197   2.690   9.925  11.839  0.0124 -0.0217  0.1139
16918W        W37198  17.204  19.508  10.385 -0.1644  0.0276 -0.1861
16919W        W37199  10.409  19.012  13.279  0.1460 -0.1210  0.3740
16920W        W37200  19.043  18.817   4.529  0.0707  0.3573 -0.1177
16921W        W37201  13.075  18.478  10.481 -0.1002 -0.2406  0.2307
16922W        W37202  13.112  18.410  12.843 -0.2745 -0.2064 -0.1302
16923W        W37203   4.411   2.711   3.722  0.3135 -0.2933 -0.0277
16924W        W37204  18.817  11.000   0.550  0.3881  0.2923  0.1408
16925W        W37205  19.490  19.456   1.520 -0.1395  0.2782 -0.2741
16926W        W37206   8.046   4.772   1.807  0.0378  0.1898  0.2949
16927W        W37207   8.202   6.178  12.628 -0.2077 -0.1540  0.0137
16928W        W37208  19.386   5.829  10.887  0.2192  0.1594 -0.0085
16929W        W37209   0.862  15.657  11.938 -0.1141 -0.2078 -0.2468
16930W        W37210  12.313  15.786  11.622 -0.0541 -0.4521  0.2585
16931W        W37211   3.991  14.639  10.859 -0.0381  0.1838  0.0643
16932W        W37212  11.810  15.726  12.933  0.0095  0.1144  0.0291
16933W        W37213   9.926  15.659   1.493  0.1372 -0.4090 -0.4847
16934W        W37214  19.058   3.952  10.826  0.0039  0.4859 -0.1009
16935W        W37215  17.180  11.255  13.536 -0.2198  0.3509  0.3124
16936W        W37216  10.765  13.715  10.635  0.1351 -0.0442  0.0833
16937W        W37217  15.962   3.137  11.102  0.1477 -0.2535 -0.0735
16938W        W37218  10.336   9.379  11.907  0.3421  0.0418  0.1601
16939W        W37219   7.586   4.013  13.108 -0.0192 -0.0733 -0.1214
16940W        W37220  13.579   7.494   0.158  0.1850  0.2847  0.1220
16941W        W37221   2.857   3.400   3.815  0.0516  0.0434 -0.0362
16942W        W37222   1.722   7.062  12.582 -0.0833 -0.2079  0.0474
16943W        W37223  14.271  11.388   3.452 -0.0326  0.0080  0.1826
16944W        W37224  12.086  17.919   5.321 -0.2565 -0.0868  0.2902
16945W        W37225  19.058   8.937  12.189  0.2531 -0.4104 -0.1791
16946W        W37226   6.526  19.851   2.462  0.2367 -0.2964  0.1757
16947W        W37227   6.458  14.277   0.533 -0.0744 -0.0042 -0.0912
16948W        W37228   2.637  13.452   1.985 -0.1147  0.1950  0.2238
16949W        W37229   1.876   5.914  12.261  0.2515  0.2440  0.1687
16950W        W37230  17.526  18.280  13.440 -0.1107  0.1655  0.4153
16951W        W37231   2.522  16.189  13.152  0.0783 -0.1204 -0.1290
16952W        W37232   6.530  16.189  13.750  0.3497 -0.1749 -0.0587
16953W        W37233  16.114  19.870  10.020  0.1159 -0.0704 -0.3035
16954W        W37234  11.507   4.222  12.063  0.4217 -0.0425  0.0854
16955W        W37235   0.974   0.861   3.702  0.0216 -0.0365 -0.1658
16956W        W37236  10.231   1.431   9.873  0.1061  0.0491 -0.0394
16957W        W37237   6.763  14.091   2.798  0.0820 -0.0590  0.0781
16958W        W37238  18.382   0.107   0.529 -0.2104 -0.1484  0.1038
16959W        W37239  14.993  13.976   1.952  0.0417 -0.0522 -0.2869
16960W        W37240  11.589  15.860  11.414 -0.3188 -0.0042  0.0807
16961W        W37241  18.563   1.064   1.476 -0.1592  0.1657  0.2006
16962W        W37242  17.904   3.594  12.804 -0.0633 -0.0561  0.1268
16963W        W37243   9.531   6.015  11.540 -0.1584  0.1225 -0.1529
16964W        W37244   2.020  19.354   4.082  0.1396 -0.2166  0.1171
16965W        W37245   9.497   6.107   0.840  0.0291 -0.2333  0.0488
16966W        W37246  12.462  11.648   3.994 -0.3589  0.0845 -0.0629
16967W        W37247   4.047  16.418   2.682  0.2441  0.0128  0.1511
16968W        W37248  15.882   8.854  11.396  0.2987 -0.0142  0.1118
16969W        W37249   1.020  11.815  12.114  0.4631  0.0095 -0.1785
16970W        W37250  15.536   4.677  12.049  0.1625 -0.3435  0.1510
16971W        W37251  14.826   3.222   2.657  0.0933 -0.2315  0.1910
16972W        W37252  10.169  16.115  11.830 -0.0006 -0.0719 -0.2127
16973W        W37253   5.961  14.261   5.276  0.2272 -0.3563 -0.3393
16974W        W37254   3.220  14.127   9.365  0.1880 -0.1519 -0.3861
16975W        W37255  11.049  16.992   1.749 -0.1351 -0.2099 -0.2884
16976W        W37256  16.465   6.724   2.344 -0.0284  0.1848  0.2131
16977W        W37257  18.896   8.202   3.026  0.1698  0.1177  0.0816
16978W        W37258   5.274  14.945   3.841 -0.2741  0.1835 -0.0831
16979W        W37259  18.057   4.704   3.273  0.2197 -0.0319  0.1073
16980W        W37260  13.002  13.402   8.999 -0.0610 -0.2914  0.0146
16981W        W37261   0.741   8.893  11.325  0.0275 -0.3049  0.0559
16982W        W37262   2.181  14.499  10.312 -0.2644 -0.0159 -0.2887
16983W        W37263  10.294  10.833   1.401 -0.3263 -0.2182  0.0931
16984W        W37264   6.394  16.633  12.898  0.2387 -0.3129  0.2332
16985W        W37265   9.439   8.435  12.722 -0.4493 -0.2886 -0.4274
16986W        W37266   2.703  15.828  12.791  0.0502  0.0601  0.1068
16987W        W37267   8.487  16.084   2.865 -0.1514  0.1605  0.0078
16988W        W37268  16.765   1.639   3.154 -0.0214  0.0764 -0.1989
16989W        W37269   8.458   7.681  13.576 -0.3198 -0.1240  0.0241
16990W        W37270   9.088  13.249   1.228 -0.1460 -0.0927  0.0572
16991W        W37271   9.088   0.170  10.752 -0.2268  0.2080  0.0360
16992W        W37272   1.473  15.495   3.260 -0.0323 -0.1467 -0.0689
16993W        W37273  18.844  12.184   0.260 -0.1060 -0.1562 -0.0762
16994W        W37274   2.280   1.408   2.401 -0.2526  0.0526  0.1783
16995W        W37275   7.114  12.523  12.622  0.1329  0.4311 -0.3449
16996W        W37276   0.576   0.041   0.825  0.0692 -0.1130 -0.2209
16997W        W37277  11.794  15.535   1.064 -0.1042 -0.3958  0.0415
16998W        W37278   4.043   2.095  10.613  0.1354  0.3828  0.2726
16999W        W37279  18.983  11.209   0.051  0.1507 -0.0034  0.0123
17000W        W37280  14.829   6.432  13.155  0.1276  0.1201 -0.0819
17001W        W37281  17.505  17.698   1.010 -0.1875 -0.0252  0.0545
17002W        W37282   3.320   4.575   2.859  0.3440  0.0771 -0.0955
17003W        W37283   0.683  10.970  11.928  0.2513 -0.4275 -0.0505
17004W        W37284   3.873  12.209   1.459  0.2579  0.0567  0.2453
17005W        W37285   7.290  17.720   2.342 -0.0501  0.1186  0.4663
17006W        W37286  16.328  19.787   0.088 -0.1027  0.1367 -0.0001
17007W        W37287   0.707   0.862   9.607  0.1432  0.1024 -0.4092
17008W        W37288  12.283   9.027  11.037 -0.2360 -0.1543 -0.1853
17009W        W37289   6.972   5.012   5.098 -0.4243 -0.1145 -0.0013
17010W        W37290   7.086   6.835   3.319 -0.0256  0.0693  0.0609
17011W        W37291   7.034  13.320   9.948  0.3012 -0.1875 -0.0856
17012W        W37292   3.862   1.992   0.981 -0.0709  0.0314 -0.0634
17013W        W37293  11.075  13.433   3.615 -0.0344 -0.1824 -0.0710
17014W        W37294  16.538   2.200   0.004  0.2747  0.1554 -0.1279
17015W        W37295   7.801  18.364  10.522 -0.1645 -0.2881  0.3743
17016W        W37296   3.073   7.332  12.220  0.1166  0.0019  0.0783
17017W        W37297   0.651   1.105  13.574  0.1893  0.0263  0.0599
17018W        W37298   6.447  18.253   3.888 -0.2997  0.1515  0.0579
17019W        W37299   9.145  16.778   0.507  0.2660 -0.1749 -0.3329
17020W        W37300   6.622  14.190  11.582 -0.0457  0.3043  0.4852
17021W        W37301  19.603   5.219   0.477 -0.3551  0.2041  0.0293
17022W        W37302   0.476  16.557  12.329 -0.0338 -0.0056  0.0802
17023W        W37303   4.246  14.682   0.206  0.3526  0.0264  0.0640
17024W        W37304   5.029  13.088  11.691  0.1945 -0.1710  0.0259
17025W        W37305  14.449   5.063   4.238 -0.0115 -0.1639 -0.1524
17026W        W37306  13.184  12.863   1.846 -0.0483  0.2956 -0.5007
17027W        W37307   4.672   8.871  13.079  0.0441 -0.1912 -0.1779
17028W        W37308  16.268  15.009  13.317 -0.0146 -0.1011  0.0041
17029W        W37309   3.431  18.545   0.170  0.0276  0.0903 -0.1263
17030W        W37310  16.083   4.408  10.892  0.0723  0.0004  0.1172
17031W        W37311   3.100   9.812  13.674 -0.1193  0.1676 -0.4141
17032W        W37312  18.512   1.461  11.562  0.0101 -0.1357  0.0495
17033W        W37313   1.422   0.867   2.547  0.1623 -0.0683  0.1719
17034W        W37314   9.517   5.171  13.317  0.0696  0.0449 -0.0836
17035W        W37315  14.077   9.820   1.860 -0.1996 -0.2954 -0.0645
17036W        W37316  16.842  19.545   1.241  0.0073 -0.2999 -0.1382
17037W        W37317  12.201   1.598  12.974  0.0045 -0.2282 -0.4945
17038W        W37318   6.315   6.012  10.276  0.1749  0.1556  0.0112
17039W        W37319   7.174  17.248  10.532  0.0240  0.1261 -0.4599
17040W        W37320  13.898  10.286   1.830 -0.1814 -0.1951 -0.0415
17041W        W37321  12.677  19.081  12.479 -0.0237 -0.0670 -0.0937
17042W        W37322  14.892   8.965  13.049 -0.0103 -0.1440 -0.2209
17043W        W37323   0.029  15.982  10.502 -0.1962 -0.1218  0.2338
17044W        W37324  14.793   6.464   1.887 -0.1104 -0.0720  0.0167
17045W        W37325   6.173  13.932   2.600  0.1389  0.0654 -0.1956
17046W        W37326   6.334   9.147   1.731 -0.0965 -0.0385  0.2577
17047W        W37327   0.481   7.158  12.289 -0.0720  0.3867 -0.0410
17048W        W37328  12.612   6.991   4.420  0.0515  0.2413  0.1493
17049W        W37329   3.944   8.065  11.865 -0.1658 -0.1832 -0.1262
17050W        W37330  13.587   3.163  10.528  0.1859  0.1880 -0.3037
17051W        W37331   4.833   4.391  10.719 -0.0927  0.1937 -0.1085
17052W        W37332   7.716   7.099   0.070 -0.1210 -0.0966  0.3197
17053W        W37333  14.712   0.637   0.148  0.0718 -0.3288  0.0351
17054W        W37334  11.790  18.700   9.136  0.4184 -0.1451 -0.0142
17055W        W37335  18.241  16.725   3.285  0.0170 -0.3384  0.0900
17056W        W37336  10.457  11.552   0.307  0.1747  0.1187 -0.4711
17057W        W37337  11.717  10.493  10.772  0.0857  0.0800  0.1101
17058W        W37338  15.531  10.469  12.025  0.1625 -0.0159  0.2661
17059W        W37339   2.758  10.577  11.156 -0.1103  0.1783  0.1664
17060W        W37340  11.954  19.840   1.569 -0.3317 -0.4039  0.3604
17061W        W37341   3.026  16.057   3.608  0.0202  0.4057 -0.0466
17062W        W37342   4.462   5.358   0.291  0.2812  0.1103 -0.0297
17063W        W37343   8.535   6.848   0.075  0.2093 -0.4992 -0.0461
17064W        W37344  11.231  17.774   2.112 -0.1346  0.4615 -0.0414
17065W        W37345  18.125  10.251  11.748  0.3689  0.1820 -0.1362
17066W        W37346   4.517  14.361   9.625 -0.3199 -0.0375 -0.3266
17067W        W37347  18.467  10.362   2.738  0.1332  0.2760 -0.0809
17068W        W37348   8.373   7.406   0.175 -0.0597 -0.2273  0.2142
17069W        W37349  12.165   4.060  11.161  0.1095  0.0134 -0.0851
17070W        W37350   3.631   8.287  10.662 -0.1738 -0.0800  0.1810
17071W        W37351  19.802  15.016   0.575 -0.2017 -0.1575  0.3252
17072W        W37352  16.614   7.743  10.596  0.1472 -0.0635  0.3515
17073W        W37353   3.803   1.341   2.310  0.1125 -0.1775  0.1204
17074W        W37354   1.170   6.670  10.858  0.0933  0.3667 -0.0672
17075W        W37355  18.502   8.951  12.600  0.1123  0.2005  0.1801
17076W        W37356   2.376  15.168   3.433 -0.0871 -0.0613 -0.0164
17077W        W37357   9.183  18.423   9.897 -0.1782 -0.2276  0.2269
17078W        W37358  13.591  19.225  11.346 -0.0258 -0.2971 -0.0485
17079W        W37359  17.140  15.086  11.124  0.1419 -0.0112  0.0001
17080W        W37360   1.197   9.469   3.315  0.0549  0.0635 -0.0146
17081W        W37361   4.503  18.324  11.598 -0.1658  0.1150 -0.1281
17082W        W37362   8.031   0.168  12.274  0.2120  0.2086 -0.3105
17083W        W37363   9.665   9.512  13.317 -0.1713  0.2225 -0.3168
17084W        W37364   8.355   1.244   0.613 -0.4070  0.2405  0.1049
17085W        W37365   5.664  16.077  10.889 -0.0258  0.0410  0.3088
17086W        W37366   1.169  11.682  13.463 -0.2871 -0.1413  0.1863
17087W        W37367   6.897  15.621   3.009 -0.1138  0.1032  0.0642
17088W        W37368  12.173   1.261  13.802 -0.1904  0.0930 -0.0315
17089W        W37369   9.440  19.942  13.387 -0.0719  0.0013  0.0055
17090W        W37370   3.253   1.695   0.293 -0.0250 -0.1553 -0.2192
17091W        W37371  16.764  16.948  10.099 -0.1830 -0.1863  0.1454
17092W        W37372  18.082   1.360   3.275  0.1362  0.3541 -0.2218
17093W        W37373   6.835  14.302  13.044 -0.1164  0.0736 -0.2533
17094W        W37374  13.443   3.728   2.200 -0.2339  0.3395  0.0273
17095W        W37375  17.837   8.444  13.183  0.4638  0.1659 -0.0606
17096W        W37376  15.514  12.819   1.762  0.1037 -0.0048 -0.1101
17097W        W37377  15.359   4.965  13.612 -0.0566  0.1738  0.0825
17098W        W37378   7.779   2.390   2.536  0.2458  0.0825 -0.1178
17099W        W37379   5.983   8.843   3.294  0.1725  0.0114 -0.0078
17100W        W37380  15.373   7.582  10.891 -0.4357 -0.0087  0.1323
17101W        W37381  13.166  17.446  11.076  0.0650  0.1690 -0.1203
17102W        W37382   4.552  13.665  10.402  0.3025 -0.0210  0.0410
17103W        W37383  14.147   8.666  11.176 -0.0232 -0.0949  0.2667
17104W        W37384  18.598   5.755   0.310 -0.1744  0.0847  0.3758
17105W        W37385  14.769  12.967   2.287 -0.1061 -0.1143 -0.0520
17106W        W37386   5.432  10.781   2.602 -0.1623  0.1886 -0.2089
17107W        W37387  17.895  17.814  12.347 -0.0497  0.0746 -0.2434
17108W        W37388  10.406  15.192  10.515 -0.1105  0.2548 -0.1746
17109W        W37389   2.943  16.375  11.130 -0.0391  0.0282 -0.0858
17110W        W37390  17.796  10.875   3.380 -0.1534 -0.0716  0.1228
17111W        W37391  18.586   9.888  13.205 -0.1520  0.1943 -0.1788
17112W        W37392  12.064   4.717  13.244  0.0604 -0.1350  0.3073
17113W        W37393  11.485  19.511   3.434  0.0746 -0.1412  0.0661
17114W        W37394  13.409  13.429  13.169 -0.3508  0.2005 -0.0833
17115W        W37395   6.698   3.188   1.495  0.3301 -0.1499 -0.1029
17116W        W37396   0.698   1.649  13.746  0.1479 -0.1336 -0.3179
17117W        W37397  13.841  16.834   0.657 -0.2037  0.2535 -0.1198
17118W        W37398  19.563   1.993   4.594 -0.2070  0.3180 -0.0114
17119W        W37399  14.542   4.776   9.811  0.0070  0.0745  0.2928
17120W        W37400   5.590   8.438  13.373  0.1473 -0.0784 -0.4839
17121W        W37401  16.972  17.189  13.700 -0.1689  0.1945 -0.0077
17122W        W37402  17.212  13.079  13.477  0.1844  0.0463  0.0716
17123W        W37403  17.846  16.083   0.250 -0.1013 -0.1853 -0.0956
17124W        W37404  10.608   4.644   2.667 -0.2633 -0.0382 -0.0538
17125W        W37405   9.624   9.380   3.501  0.0872  0.1941 -0.0425
17126W        W37406   3.740  16.640  12.243  0.1663  0.1298  0.1437
17127W        W37407   1.026   4.082   2.416  0.0086 -0.2537  0.1085
17128W        W37408  11.142   0.207   0.376 -0.0194  0.0381  0.0412
17129W        W37409   0.480   6.045  10.506 -0.0686  0.0179 -0.0224
17130W        W37410  12.563  14.056   4.829 -0.3813 -0.2723 -0.3656
17131W        W37411   5.254   7.223  10.700  0.0122 -0.1232 -0.0987
17132W        W37412  14.197   1.080   0.690 -0.3224  0.1452 -0.2984
17133W        W37413   2.577   7.062  10.323  0.1116  0.3949  0.1504
17134W        W37414   4.825  11.403  11.771 -0.1754 -0.0980  0.2699
17135W        W37415   9.522   8.455  13.347  0.0657 -0.0369  0.1252
17136W        W37416  18.440   7.337  10.365  0.1913  0.0434 -0.4195
17137W        W37417  13.736   2.289  12.402 -0.0136 -0.2121 -0.0614
17138W        W37418  15.491  12.341  13.202 -0.3120 -0.1557  0.1711
17139W        W37419   9.351   6.556   3.264 -0.2221  0.1963 -0.0948
17140W        W37420  18.689   7.835   4.273  0.1415  0.0651 -0.1967
17141W        W37421   8.105  18.667   3.338 -0.3573 -0.0070  0.0126
17142W        W37422  10.650   8.094   2.940  0.2501  0.0491  0.0200
17143W        W37423   4.024  14.951   4.014  0.0764 -0.4332  0.1111
17144W        W37424   7.962   2.179   1.099 -0.0541 -0.2458 -0.0401
17145W        W37425  17.613   0.803  12.486  0.1054  0.0068 -0.2564
17146W        W37426  10.452  12.962  13.430 -0.2577  0.1504 -0.1248
17147W        W37427  11.423   5.927  10.323  0.0954 -0.0674  0.1079
17148W        W37428  19.066  16.056  13.185 -0.1011 -0.1773 -0.2005
17149W        W37429   2.687   1.414   3.883 -0.0671 -0.1400 -0.0146
17150W        W37430  17.985  17.279  12.373 -0.0764 -0.1863  0.2231
17151W        W37431   9.085   2.978   0.945  0.2485 -0.3955 -0.0460
17152W        W37432  13.697  15.112   1.157  0.0864  0.0618  0.0403
17153W        W37433  17.170  14.307  11.796 -0.0971  0.1192  0.0261
17154W        W37434  12.109   5.233   0.182 -0.2258 -0.0048 -0.0555
17155W        W37435  17.473   9.437  10.897 -0.0521  0.1650  0.0626
17156W        W37436   2.391  11.736   0.183  0.1224 -0.0859  0.0302
17157W        W37437  19.453   1.584   0.387  0.0133 -0.0430 -0.0556
17158W        W37438   3.313  16.949  11.541 -0.0617 -0.2335  0.1138
17159W        W37439   1.679   6.465   4.000 -0.1034  0.0482  0.2381
17160W        W37440  14.393  17.025  12.699 -0.1721 -0.0438  0.0534
17161W        W37441   7.970  14.269   1.226  0.0494  0.0019  0.1631
17162W        W37442  14.484   9.766   2.119 -0.3414 -0.1752 -0.6996
17163W        W37443  19.687   4.779   0.147  0.0973 -0.0464  0.1261
17164W        W37444   8.517  19.694  13.587  0.1545 -0.1282  0.0771
17165W        W37445  14.564   6.308   2.585  0.0881  0.3992  0.1717
17166W        W37446  16.944   5.733  13.590 -0.1573  0.2289 -0.0850
17167W        W37447  11.027  15.008   3.830  0.0623 -0.1585 -0.1193
17168W        W37448  16.140  14.301   9.324 -0.1114 -0.0353  0.1710
17169W        W37449   7.161   4.781   1.640 -0.2873 -0.0906 -0.0893
17170W        W37450   2.719   4.377   1.153  0.3212  0.3456  0.1095
17171W        W37451  17.532   0.567   3.143  0.0664 -0.0443 -0.2857
17172W        W37452   4.802  10.807  11.210  0.2758  0.0825  0.0334
17173W        W37453  11.013  15.620   3.683 -0.0928  0.1061 -0.0089
17174W        W37454   2.239   2.619  10.222  0.0090 -0.1165 -0.1144
17175W        W37455  16.243  10.650   0.769  0.1834 -0.0197 -0.0170
17176W        W37456   8.630  16.098   3.905  0.1931 -0.0873  0.1729
17177W        W37457  10.507  16.340   1.081 -0.0129 -0.1771 -0.1929
17178W        W37458   5.632  13.079  11.112 -0.4528 -0.2951 -0.3170
17179W        W37459  17.690   8.804   1.870 -0.2365 -0.0859 -0.0360
17180W        W37460   9.647   6.598  12.975  0.2236 -0.0886  0.1997
17181W        W37461  10.196  17.063   0.328  0.1370 -0.0939 -0.2483
17182W        W37462  14.815  13.771  13.006 -0.0101 -0.2807 -0.3556
17183W        W37463   5.039   7.602   3.000  0.0131  0.2443 -0.0640
17184W        W37464   6.954   7.687  11.770 -0.1546  0.1176 -0.0261
17185W        W37465  15.756   3.962  12.682 -0.0139 -0.0126  0.2764
17186W        W37466   4.847   6.514  10.667 -0.1436 -0.1554  0.2036
17187W        W37467  11.437  12.568  10.539  0.0833 -0.0334 -0.0707
17188W        W37468   8.342   9.918  12.141 -0.0424  0.0712 -0.1882
17189W        W37469  10.175  17.302  12.816  0.0988 -0.1948  0.0092
17190W        W37470  14.813  10.851  10.056  0.2849 -0.0379  0.2523
17191W        W37471   6.387  13.174   3.560 -0.0744  0.1945 -0.0226
17192W        W37472  14.965   4.779   2.272  0.1394 -0.0967 -0.1867
17193W        W37473  13.831   0.253   3.277  0.0544  0.0504 -0.1360
17194W        W37474  19.439   6.337   3.083  0.1346  0.1375 -0.1011
17195W        W37475  15.011  15.879   3.556  0.1631  0.6651 -0.2354
17196W        W37476  14.524  15.189  12.255 -0.1360  0.0594  0.0962
17197W        W37477  12.936   3.199  11.696 -0.4105  0.0690 -0.0253
17198W        W37478   4.305  17.809   1.222  0.0773 -0.0109  0.2729
17199W        W37479   5.756   9.837  13.789  0.0144  0.0349  0.3009
17200W        W37480   4.593  12.559  12.015  0.2162 -0.2890  0.0270
17201W        W37481   4.813  18.572  13.220  0.1221  0.0663 -0.2406
17202W        W37482  13.773  14.188   0.466 -0.3014  0.0580 -0.1381
17203W        W37483  15.611   0.740  10.269 -0.0202  0.0841 -0.1813
17204W        W37484   1.071   6.018   3.572  0.0692 -0.0845  0.0425
17205W        W37485   2.587   9.978  13.790 -0.0189  0.1875  0.1866
17206W        W37486   6.700  19.864  12.942 -0.0190 -0.0959 -0.2313
17207W        W37487   3.947   0.690   1.340 -0.1873 -0.0331  0.2477
17208W        W37488  11.722   3.946  12.786 -0.0994 -0.0681  0.0659
17209W        W37489   7.924   4.153  12.703 -0.0838 -0.0983  0.1860
17210W        W37490  19.299   8.414   8.836 -0.1766  0.1563 -0.0096
17211W        W37491   9.834   5.520   0.161  0.1374  0.1289  0.1522
17212W        W37492  10.209   2.045  12.862  0.2864  0.1334 -0.2558
17213W        W37493  13.352   4.235  12.201 -0.0167  0.1522  0.2103
17214W        W37494  19.148  15.213  13.256  0.0418  0.3054  0.0130
17215W        W37495   9.378  10.960   3.093 -0.0285 -0.2033  0.0258
17216W        W37496   6.489   7.469  12.701  0.1574  0.2215  0.0026
17217W        W37497  17.763  14.839   2.716 -0.0148  0.1056 -0.0351
17218W        W37498   2.859  14.754   0.295 -0.0881 -0.0418  0.1364
17219W        W37499  14.979   4.650   2.756  0.0103 -0.0253 -0.0258
17220W        W37500  17.859  11.444   2.605 -0.0162 -0.0280  0.0269
17221W        W37501  19.023   5.839  10.481 -0.1761  0.1946 -0.0653
17222W        W37502  16.336  16.244  12.291  0.4589  0.2440 -0.2040
17223W        W37503   6.750  16.556   0.923  0.3748  0.1661 -0.2885
17224W        W37504   3.450   0.697   2.746  0.1948  0.0128  0.0870
17225W        W37505  18.282  14.169   1.242 -0.0850 -0.1442  0.0490
17226W        W37506  15.393   1.210   3.277  0.1850 -0.1841  0.2344
17227W        W37507   9.868  17.285   2.960  0.2530 -0.1236  0.2895
17228W        W37508  10.957  12.406  12.561  0.0134 -0.2656  0.0410
17229W        W37509   9.340   0.923  11.127  0.4410 -0.0579 -0.0264
17230W        W37510  11.129  10.637   1.131  0.0659 -0.0366 -0.4289
17231W        W37511   6.714   6.584  10.928  0.2368 -0.2193 -0.1986
17232W        W37512  17.646   3.274   1.527  0.0363 -0.2040 -0.3988
17233W        W37513   7.817  14.980   3.641  0.2131  0.0531 -0.0935
17234W        W37514   3.003  11.684   3.670  0.1555 -0.2428  0.1965
17235W        W37515  10.862   2.837   4.013 -0.5213  0.2069  0.0683
17236W        W37516   9.092  13.539  13.670  0.0946  0.2078  0.1726
17237W        W37517   2.243  10.981   0.706  0.2454 -0.0917  0.0250
17238W        W37518   7.647   3.187   0.348 -0.1702  0.1969  0.1175
17239W        W37519  12.253   7.475  11.459  0.0617 -0.0566  0.2232
17240W        W37520  14.610   2.695   0.796  0.0174 -0.1518  0.2217
17241W        W37521  10.439  13.714   2.961 -0.0856  0.2472 -0.0418
17242W        W37522   5.621   1.947   2.526  0.0275  0.0780  0.1447
17243W        W37523   4.405   9.456  10.891  0.0849 -0.0906 -0.1492
17244W        W37524   3.991   6.735  12.562 -0.2119 -0.0797  0.0967
17245W        W37525  18.392  15.125   3.337 -0.1851  0.1092 -0.0325
17246W        W37526  19.364   2.839  13.854 -0.0254 -0.2129  0.0748
17247W        W37527  14.654  11.375   2.760  0.0282  0.0717  0.0418
17248W        W37528   5.859  15.630  12.633 -0.1419 -0.1098  0.2648
17249W        W37529   8.648  14.817   3.244 -0.1981 -0.0368 -0.2730
17250W        W37530  11.727  14.622   9.902  0.3286 -0.0267  0.0164
17251W        W37531  18.093   9.798  12.074  0.2595 -0.0765 -0.1261
17252W        W37532   2.504  14.642   2.927 -0.0029  0.0632  0.3388
17253W        W37533  12.430  19.425  11.132 -0.0934  0.0183 -0.0538
17254W        W37534  17.687   6.036  10.243 -0.2100  0.0339  0.0841
17255W        W37535   0.819   1.422   1.353  0.1448 -0.1295 -0.0170
17256W        W37536   8.948   4.107  12.468  0.1662  0.1350  0.0650
17257W        W37537  17.663  10.160  13.836 -0.0715 -0.3363 -0.2504
17258W        W37538  14.205   7.510  12.320  0.0876 -0.0806 -0.0307
17259W        W37539  17.811   7.777  10.357  0.0884  0.1460  0.2193
17260W        W37540   3.421   8.336   2.462  0.1352 -0.0443 -0.4420
17261W        W37541   0.966  17.386  13.339  0.0661 -0.0031 -0.1058
17262W        W37542  18.525  15.100  12.441  0.0753  0.1097 -0.0118
17263W        W37543  12.469  18.738   0.179  0.1238 -0.1531  0.0041
17264W        W37544  14.479   7.700   0.868  0.0819 -0.2700  0.2900
17265W        W37545   4.261  14.810  11.771 -0.4244 -0.3847  0.0081
17266W        W37546   8.789   6.765   0.907 -0.0096  0.1696  0.1148
17267W        W37547  11.296   5.033   4.317  0.2169  0.2126 -0.1308
17268W        W37548   0.267  12.507   0.067 -0.1845 -0.2331 -0.0608
17269W        W37549   0.200   6.011  11.636  0.1017 -0.3945 -0.0716
17270W        W37550   0.917   2.644  11.512  0.0526 -0.1627 -0.0330
17271W        W37551   8.285  12.183  13.317 -0.0945 -0.1026 -0.1261
17272W        W37552   7.232   0.302  13.531  0.2464 -0.2461  0.2211
17273W        W37553  17.139   5.237  10.326 -0.3672 -0.0297 -0.1866
17274W        W37554   5.003   0.261  11.665 -0.0707 -0.3385 -0.0213
17275W        W37555  15.341  15.388  12.504  0.5485  0.1649 -0.1324
17276W        W37556  15.641   7.063   2.330 -0.0486 -0.2088  0.5329
17277W        W37557  12.708   9.343   0.059  0.0279  0.0462 -0.1552
17278W        W37558  11.866  18.112   1.886 -0.0175 -0.0245  0.2391
17279W        W37559  10.253  12.950  12.126 -0.1497 -0.1422 -0.3162
17280W        W37560  14.754   5.193  12.389  0.0171 -0.2174  0.2996
17281W        W37561  15.065   8.634  13.704 -0.2008  0.0484 -0.1215
17282W        W37562   7.381  13.994  13.730 -0.1537  0.0253 -0.4758
17283W        W37563   3.016  16.250   3.025  0.1586 -0.0996 -0.0881
17284W        W37564   5.615   8.797   2.211 -0.0552  0.0475 -0.0731
17285W        W37565   3.587   7.870   3.006  0.0807  0.0834 -0.1120
17286W        W37566   8.346   6.058  10.560  0.1652  0.0413  0.1305
17287W        W37567   9.252   5.637   3.634 -0.0208 -0.1835  0.0959
17288W        W37568  15.359   4.955   2.556 -0.2245  0.0403  0.0397
17289W        W37569   5.081  19.841   0.689 -0.2142 -0.2279  0.2687
17290W        W37570  15.765  19.750  12.144 -0.3749  0.0051  0.2781
17291W        W37571  11.800  10.512  13.301 -0.1424 -0.2850 -0.0361
17292W        W37572   9.749  18.062  12.314  0.0430  0.0675 -0.2228
17293W        W37573   1.381   7.424   1.092 -0.2042 -0.1365 -0.0303
17294W        W37574  10.825   2.184   3.482 -0.1702  0.1405  0.1825
17295W        W37575  16.528   8.259  13.376  0.0917  0.2353 -0.2011
17296W        W37576  13.188   7.461   3.581 -0.2268 -0.2469 -0.3091
17297W        W37577   1.542  14.314   0.574 -0.3735  0.1387  0.0411
17298W        W37578   8.227  15.363  12.192  0.1067  0.1457  0.1972
17299W        W37579  18.378  14.296   2.268 -0.0727  0.1741  0.3282
17300W        W37580   3.155   2.121  10.692  0.0322 -0.0200  0.1117
17301W        W37581   2.391  15.848  13.530 -0.0767 -0.1523 -0.1314
17302W        W37582  16.982   1.020  11.918  0.0805  0.0507 -0.0316
17303W        W37583  11.610  10.814   2.603  0.2021 -0.2005  0.5512
17304W        W37584   6.530   0.268   2.800 -0.0916  0.0880  0.0913
17305W        W37585   8.710   6.289   1.905 -0.0239 -0.1186  0.0273
17306W        W37586  15.021   8.085   1.617 -0.1111  0.0118  0.0878
17307W        W37587   2.411   4.626   2.758 -0.0081  0.2866  0.2045
17308W        W37588   4.417  17.578   3.936  0.0086 -0.3278 -0.4075
17309W        W37589   3.146  18.731  11.954  0.0781  0.1910 -0.0453
17310W        W37590  16.763   5.104   2.408  0.1787 -0.2654  0.0413
17311W        W37591   3.552  19.064   1.006 -0.0956  0.0550 -0.1825
17312W        W37592  13.647  10.947  10.132 -0.2432 -0.0974 -0.2180
17313W        W37593   8.623   7.280  10.597 -0.1169  0.2424  0.0717
17314W        W37594   9.290  16.182   3.497 -0.2923  0.0283  0.1434
17315W        W37595  16.066  12.824   3.762  0.0221 -0.2940  0.0580
17316W        W37596   9.944   5.141  13.032  0.0867  0.0027  0.1887
17317W        W37597   1.138  13.925   2.818 -0.1154  0.1396 -0.0414
17318W        W37598  17.739  13.237   2.410  0.0636  0.0598 -0.0077
17319W        W37599   2.198   9.716   0.659  0.1500  0.1519 -0.3410
17320W        W37600  19.274   7.919   2.234 -0.1093  0.1590  0.0825
17321W        W37601   7.718   5.499  11.239 -0.0166  0.1344 -0.0273
17322W        W37602   6.268   7.735   0.897  0.0683  0.1693 -0.3320
17323W        W37603  16.723  12.643   3.085  0.1101 -0.3015  0.0977
17324W        W37604   9.222  16.017   3.025 -0.1586 -0.2078 -0.0332
17325W        W37605  15.882   6.202   0.276  0.1104  0.3835 -0.0991
17326W        W37606   8.822  19.446  12.752 -0.0160 -0.0318 -0.2109
17327W        W37607  19.302   0.017   2.410 -0.0712  0.4746 -0.0667
17328W        W37608  16.289  16.391   9.611 -0.3968  0.0268  0.0700
17329W        W37609   7.468  12.256  12.842 -0.1728  0.1140  0.2090
17330W        W37610   1.418  11.306  11.123  0.3694 -0.0392 -0.0570
17331W        W37611   8.413   2.271   0.804  0.0035 -0.1485 -0.2403
17332W        W37612  12.780   2.855  10.328  0.0723  0.0974  0.3389
17333W        W37613   7.646  15.358   2.187 -0.0374 -0.0769  0.1964
17334W        W37614   5.842   3.068   4.694 -0.1233 -0.1005  0.1956
17335W        W37615   1.886  15.856  13.586 -0.0506 -0.0262  0.0512
17336W        W37616  17.970  10.636  11.413 -0.2355 -0.2673 -0.1398
17337W        W37617  11.056   9.317  10.799 -0.2283 -0.0702 -0.0670
17338W        W37618  10.512  10.050  11.458  0.0135 -0.0165  0.2803
17339W        W37619   3.127   7.335   0.099 -0.1209 -0.1576 -0.1200
17340W        W37620  13.344  15.835   2.196  0.1604  0.4267 -0.3485
17341W        W37621  19.114   1.772  10.750  0.2183  0.2295 -0.0183
17342W        W37622   9.891  12.578  13.636 -0.0017  0.0501 -0.3367
17343W        W37623  12.809   9.445  10.950  0.0683 -0.0909 -0.0023
17344W        W37624  17.539  14.831  12.398 -0.1562 -0.0683 -0.0181
17345W        W37625   4.501  16.749  12.725 -0.1240 -0.1080 -0.1874
17346W        W37626   9.215   0.570  10.402 -0.0056 -0.0337 -0.0455
17347W        W37627   6.226   0.598   4.223  0.1194 -0.1583  0.1119
17348W        W37628  18.876   0.661  12.492 -0.1916  0.0621 -0.1007
17349W        W37629   7.643   4.503   1.620 -0.0178 -0.0884 -0.2609
17350W        W37630   2.307  19.669  12.031 -0.1193 -0.0144 -0.0789
17351W        W37631   3.136   4.443  11.425  0.1246  0.3734  0.0267
17352W        W37632   3.882   2.065   1.781  0.2687  0.1179 -0.1290
17353W        W37633  17.913  17.584  12.791 -0.2526 -0.0382  0.0431
17354W        W37634   9.623  10.512   2.316 -0.0779  0.1422 -0.1455
17355W        W37635  19.387  14.248   9.795 -0.1500  0.0255 -0.1849
17356W        W37636  19.303   6.034   2.733  0.1912  0.3023  0.0117
17357W        W37637  18.855  16.293   0.811  0.2684  0.2073  0.2059
17358W        W37638   7.656   3.427   4.676 -0.0763  0.2599  0.1352
17359W        W37639  13.481  14.734   0.834 -0.1325  0.1332 -0.2540
17360W        W37640   9.584   6.135  13.086  0.3733  0.3427  0.1897
17361W        W37641   0.145  10.934  13.675  0.1871  0.0382  0.2154
17362W        W37642  14.287   0.141   3.443 -0.0198 -0.3437  0.0761
17363W        W37643  12.830  17.504  12.390 -0.0829  0.4057 -0.2179
17364W        W37644  17.183  19.782   0.022 -0.0199  0.1097 -0.3468
17365W        W37645  10.112  19.487  12.655 -0.1100 -0.3240  0.1099
17366W        W37646  12.707   7.570  12.326  0.2207 -0.2062 -0.0460
17367W        W37647   9.178   5.916   1.389  0.1435  0.0504  0.1868
17368W        W37648   4.443   4.503  12.037 -0.0844  0.0221  0.3015
17369W        W37649  10.007  13.740  13.507  0.0259 -0.0176  0.1161
17370W        W37650  18.275  11.168   1.846 -0.4030  0.0577 -0.4598
17371W        W37651  15.192   9.063   0.155  0.0516 -0.1849  0.3427
17372W        W37652  12.779   4.666   1.965 -0.4204  0.2682  0.1580
17373W        W37653  17.448  15.359   4.098 -0.0950 -0.0598  0.1943
17374W        W37654  19.300  11.844   3.590  0.0477  0.3191 -0.1196
17375W        W37655  11.249  16.158  13.649  0.1610  0.1968 -0.2777
17376W        W37656  16.870  13.793  11.169  0.0890  0.0217  0.1844
17377W        W37657  10.003  19.438  12.091  0.3387  0.1385 -0.1435
17378W        W37658  19.313   5.909   9.471 -0.1321  0.0952  0.0345
17379W        W37659  11.340   3.519   3.569  0.0783  0.2023 -0.0922
17380W        W37660  17.936  19.636  11.234  0.1702  0.2811  0.0546
17381W        W37661  18.898   3.885   3.121  0.3772 -0.0706 -0.1184
17382W        W37662  16.914   8.592   2.385  0.5532 -0.1565  0.0351
17383W        W37663   5.825  10.803  12.826  0.1172 -0.0270  0.1868
17384W        W37664  12.824   4.579   4.963 -0.0490  0.0467 -0.1877
17385W        W37665  15.771  19.454  13.761  0.2267  0.0490 -0.0743
17386W        W37666   0.211  16.315   2.302 -0.0577 -0.2196 -0.1292
17387W        W37667   9.536  14.944  10.164  0.0975 -0.2257 -0.1531
17388W        W37668  19.255  13.279   9.833  0.0747 -0.1449 -0.1549
17389W        W37669   9.132   9.404  10.301 -0.1588 -0.3370  0.1896
17390W        W37670   5.585  15.563  11.697 -0.1118  0.0609 -0.0338
17391W        W37671  12.086   0.157   0.041 -0.1224  0.0473 -0.2863
17392W        W37672  11.462  15.386  11.713  0.0261  0.0722  0.3370
17393W        W37673   3.867   2.255  11.931  0.0028  0.1076 -0.1539
17394W        W37674   4.650   3.478   2.029  0.2025 -0.0096 -0.1917
17395W        W37675   9.578   6.980  11.610  0.1886  0.2610  0.0444
17396W        W37676  19.013   3.074   1.198 -0.2436  0.1702 -0.2457
17397W        W37677   6.335   2.540  11.249  0.0692  0.0904  0.0030
17398W        W37678  13.992   8.318   1.354 -0.2739 -0.3296  0.1326
17399W        W37679   8.100   6.822   0.813  0.1541 -0.0251 -0.1781
17400W        W37680  11.506   1.606  10.672 -0.1310  0.0982  0.5172
17401W        W37681   6.688   2.647  12.674  0.2640  0.1572 -0.1824
17402W        W37682   3.688   6.564   3.289  0.3899 -0.5437 -0.0584
17403W        W37683  11.603  18.980  12.097  0.2031  0.1832  0.0344
17404W        W37684  16.776   9.188   9.395 -0.1945  0.1061 -0.2931
17405W        W37685  15.473   6.374  12.861 -0.0690  0.0119 -0.0177
17406W        W37686   9.585   3.706  11.814  0.3937 -0.0551 -0.1657
17407W        W37687   6.454   7.561   2.938  0.3079  0.0635 -0.0530
17408W        W37688   2.416  19.340  10.679 -0.1059 -0.0645  0.1687
17409W        W37689   7.339  19.773  13.708  0.0752 -0.4477  0.0079
17410W        W37690   9.025   5.776   3.200 -0.2097 -0.2210  0.1705
17411W        W37691   1.807  13.086   1.762 -0.0692  0.0410  0.2759
17412W        W37692   0.979   4.322   0.089  0.1917  0.1911  0.0777
17413W        W37693   8.486  16.690   4.577 -0.2943  0.0653  0.1414
17414W        W37694   9.424  14.662  10.562  0.1131  0.0995  0.4339
17415W        W37695   3.169  17.946  12.227 -0.2186  0.1365  0.2883
17416W        W37696  12.406   1.449   3.522  0.1094 -0.3983 -0.0546
17417W        W37697  18.340  18.731  12.838 -0.0431  0.0828 -0.1162
17418W        W37698   0.701  11.613  13.229  0.2332  0.4356  0.0117
17419W        W37699   0.974  17.274   2.605 -0.2683  0.1303 -0.2358
17420W        W37700  14.450  11.998   3.248 -0.0996  0.0854 -0.3835
17421W        W37701   8.025  14.709   0.843  0.0826 -0.3846  0.2017
17422W        W37702  17.086  10.428   2.823  0.1510  0.0561 -0.1371
17423W        W37703  17.891  15.764  12.659  0.0878 -0.0056  0.1953
17424W        W37704  17.609  10.421   9.511  0.2409 -0.1147 -0.0127
17425W        W37705   9.774  19.195  12.495  0.1687 -0.0043  0.1746
17426W        W37706  10.400  12.424   1.678  0.0172  0.1674  0.0330
17427W        W37707   7.708   1.220   9.892  0.1134 -0.2084 -0.0542
17428W        W37708   4.328  15.434   4.294 -0.2621 -0.2060  0.0258
17429W        W37709  19.399  11.033   9.982 -0.2038  0.3183  0.2111
17430W        W37710  16.791  17.409   1.460  0.0260 -0.1824  0.1094
17431W        W37711  15.129   5.766   3.438  0.3660 -0.2922  0.1092
17432W        W37712   2.926  14.854  11.465  0.1800 -0.0515  0.0364
17433W        W37713   0.878  19.572  10.871 -0.2893 -0.1292 -0.1285
17434W        W37714  13.281   0.736   3.525  0.0844  0.0933  0.1163
17435W        W37715  19.049   3.162  11.419 -0.0766  0.1298 -0.3014
17436W        W37716  14.556  15.316  12.821  0.1800 -0.0579 -0.5988
17437W        W37717  12.147   6.789   1.654  0.0988  0.0512 -0.0828
17438W        W37718   3.577  16.818   0.797 -0.2349  0.3826 -0.0765
17439W        W37719  12.644   6.927   2.861  0.0057  0.3882 -0.0970
17440W        W37720  17.832   6.399  10.557  0.1331  0.0372 -0.2548
17441W        W37721  15.509  10.765  13.257 -0.1825  0.1102 -0.1845
17442W        W37722   3.793   3.748  10.538 -0.0101  0.2570  0.2832
17443W        W37723  10.684   7.222   2.564 -0.4564  0.0468 -0.0569
17444W        W37724   9.235  10.789  11.724 -0.2942  0.2660 -0.2773
17445W        W37725  16.295  17.237  11.307  0.1139  0.1357  0.2462
17446W        W37726  11.414   3.124   0.851 -0.0115 -0.1585  0.1098
17447W        W37727   0.180  13.667   0.169 -0.2105 -0.1379 -0.4026
17448W        W37728  12.630  15.669  13.122 -0.1235 -0.0341 -0.0052
17449W        W37729   6.758   7.668   2.582  0.2052  0.0448 -0.1767
17450W        W37730   7.003   5.139   3.160  0.1919 -0.2592  0.1871
17451W        W37731   2.756  17.879  13.105 -0.0937  0.3030  0.2029
17452W        W37732  16.133   4.382   2.859  0.0872  0.0129 -0.1599
17453W        W37733  15.823  17.169   0.497  0.1428 -0.4893  0.2246
17454W        W37734   2.344   4.865   3.263 -0.0356  0.1953  0.0814
17455W        W37735   6.746   7.667   1.062 -0.1435 -0.1850 -0.1447
17456W        W37736  17.594   3.513   2.494  0.0069 -0.0546  0.2855
17457W        W37737  14.379   5.715  11.699  0.0784  0.0014  0.2450
17458W        W37738  17.349   2.653  10.475 -0.0227  0.4113  0.3514
17459W        W37739   4.900  13.472  11.350 -0.1676  0.0899 -0.0719
17460W        W37740   4.693   8.144  13.817 -0.1061  0.0228 -0.2251
17461W        W37741   8.949   1.738  11.470  0.1206  0.2328 -0.2373
17462W        W37742   9.679   3.551   4.119  0.0375  0.1034  0.1505
17463W        W37743  17.836   0.578  10.905  0.1776  0.2567 -0.0408
17464W        W37744   4.324  16.911   1.934 -0.2284  0.0987 -0.2183
17465W        W37745  13.525   1.737  11.658  0.0725 -0.0023  0.0259
17466W        W37746   6.161   8.166  11.201  0.0378  0.5626  0.0150
17467W        W37747  15.626  11.818  12.270  0.2049  0.5138  0.2284
17468W        W37748  14.149  11.514  11.831 -0.0850  0.1249 -0.1769
17469W        W37749   1.940   6.092   1.043  0.2028 -0.0368  0.0141
17470W        W37750  16.589  15.508  11.073 -0.1324 -0.3585 -0.0591
17471W        W37751   3.229   9.611  11.688 -0.2614  0.0033  0.2897
17472W        W37752   6.073  15.110   2.349  0.0555 -0.2104  0.1511
17473W        W37753  17.260  11.044  12.612 -0.1773  0.1638 -0.0699
17474W        W37754   4.373  10.460   2.788 -0.2080 -0.2879 -0.2207
17475W        W37755  17.490  13.661   2.419 -0.0080  0.1243  0.0952
17476W        W37756  18.540  16.752   1.713  0.0976  0.1925 -0.0624
17477W        W37757   5.398   2.451  12.835 -0.0922  0.0096 -0.1330
17478W        W37758   6.874   1.203   2.634  0.1807 -0.1420  0.2978
17479W        W37759   4.538   5.109   4.934 -0.1667 -0.2566 -0.1261
17480W        W37760  13.278  10.896   1.323  0.2318  0.0113  0.2651
17481W        W37761  13.300  13.477   0.808 -0.0076  0.1340 -0.0983
17482W        W37762   1.655  10.721  12.346 -0.0812 -0.0007 -0.1729
17483W        W37763  17.576   2.733   2.099 -0.1105  0.2219  0.4727
17484W        W37764   3.027  13.100  13.124 -0.1107  0.0354 -0.1247
17485W        W37765   3.969   2.514   3.597 -0.0574  0.0991  0.0465
17486W        W37766  14.816   4.226   1.199 -0.2871  0.1048 -0.0112
17487W        W37767   7.073  19.790   0.822 -0.3505  0.1052  0.1386
17488W        W37768  12.688  16.994  12.045 -0.1222  0.2364  0.0390
17489W        W37769   8.877   7.078   3.246 -0.1700 -0.0819  0.3811
17490W        W37770  13.694   2.138  10.760  0.0369  0.0369  0.0962
17491W        W37771  10.063   6.119  11.105 -0.0005 -0.0336  0.0878
17492W        W37772  18.760  17.582   2.829  0.1305 -0.2929  0.2383
17493W        W37773   1.464  14.318  11.122 -0.0168 -0.2423 -0.3479
17494W        W37774   3.960   1.076   0.515 -0.1127  0.0001  0.0229
17495W        W37775   7.787  19.374  11.629 -0.0525  0.1021  0.0725
17496W        W37776   4.381   1.269  13.354 -0.3579 -0.1890 -0.1357
17497W        W37777   4.996  14.635   4.373  0.0428  0.1371 -0.0146
17498W        W37778   3.300  11.444  12.324 -0.1565  0.2013 -0.3670
17499W        W37779   7.852  10.994   0.307 -0.0641  0.0785 -0.2241
17500W        W37780   8.169   9.876  10.839 -0.1403  0.1103 -0.2033
17501W        W37781   1.666   4.416   1.229 -0.2475  0.6081  0.0768
17502W        W37782  19.481  10.778   9.543 -0.0599 -0.3383  0.1367
17503W        W37783  10.472  17.053   0.815 -0.0880  0.0575  0.1245
17504W        W37784  19.932  15.063   2.863 -0.1969  0.0464 -0.0989
17505W        W37785   2.780  18.354   2.812 -0.2203 -0.0296 -0.1729
17506W        W37786   5.771  11.503   1.844 -0.2162 -0.0790  0.0026
17507W        W37787   3.913   3.106  13.025 -0.2845 -0.0333  0.3402
17508W        W37788   2.594   5.044  11.314 -0.1827 -0.1439  0.1287
17509W        W37789  14.861   3.968   9.963  0.2031  0.0764  0.4850
17510W        W37790   2.253   2.163  13.323 -0.0087 -0.1194  0.2450
17511W        W37791  12.203  13.291   9.136 -0.1826  0.0728  0.0080
17512W        W37792  18.320   6.048   0.534  0.1965  0.1188 -0.2638
17513W        W37793  15.205   6.341   1.028  0.4263 -0.2290 -0.2285
17514W        W37794  17.486   0.103   3.485 -0.4067  0.1298 -0.1717
17515W        W37795  11.619  11.571  12.972 -0.0514  0.0506 -0.0672
17516W        W37796   4.448  13.180   0.280  0.1225  0.2529 -0.0603
17517W        W37797  16.901  10.620   0.233 -0.0491  0.0489  0.0185
17518W        W37798  15.228   7.308  13.165  0.0714  0.5734  0.2657
17519W        W37799  12.933  17.854  12.045 -0.1891 -0.0034 -0.1333
17520W        W37800  16.410  12.880  12.207 -0.1355 -0.0490  0.0957
17521W        W37801  13.306  11.930   3.179 -0.0192 -0.0014  0.1810
17522W        W37802   5.452   4.866   2.461 -0.0848  0.3076 -0.1761
17523W        W37803  12.423  18.653   1.549 -0.0524 -0.0974  0.0301
17524W        W37804   2.411  10.213   1.099 -0.1553  0.2785 -0.0093
17525W        W37805   3.553   1.941   4.018 -0.0250  0.3825 -0.1477
17526W        W37806   1.361  10.996   1.108  0.0660 -0.1561 -0.0941
17527W        W37807  10.583   0.485  11.393  0.0132 -0.0961 -0.0170
17528W        W37808  17.263  17.804   2.644 -0.1410 -0.1821 -0.1271
17529W        W37809   0.547   7.493  10.324 -0.1473  0.0969 -0.0618
17530W        W37810  13.347   6.603  11.298 -0.2321  0.0094  0.3388
17531W        W37811  16.814  18.584   0.412 -0.0998 -0.0065 -0.1513
17532W        W37812   1.236   8.968  11.195  0.3627  0.2163 -0.1303
17533W        W37813   7.536  12.707   0.218 -0.0958 -0.4890 -0.1436
17534W        W37814  19.434   9.693  10.610 -0.0898 -0.2064 -0.0678
17535W        W37815   1.144   1.698   3.137  0.1784 -0.1557  0.2195
17536W        W37816   0.480  13.807  11.525  0.2750  0.2006  0.1563
17537W        W37817   5.081   8.873  10.819 -0.4795 -0.2090  0.0560
17538W        W37818   3.322   2.480   2.713 -0.0951  0.0978  0.0570
17539W        W37819   8.320   9.381  11.273 -0.0463 -0.0202  0.2716
17540W        W37820  11.663   3.695  12.066  0.1230  0.4037  0.2530
17541W        W37821  10.263   0.788   1.728  0.2218 -0.2225 -0.1963
17542W        W37822   2.390   2.987   1.034 -0.0171  0.2021 -0.1257
17543W        W37823   4.920  16.543   3.141 -0.1089  0.0181 -0.1012
17544W        W37824   5.387  13.451  11.741 -0.0109  0.0409  0.0055
17545W        W37825   5.870  15.335   2.988 -0.1325 -0.1887 -0.1671
17546W        W37826  16.568   8.037  12.019  0.5486  0.3100  0.0585
17547W        W37827  13.200   1.116   3.993 -0.1480 -0.0055  0.0301
17548W        W37828   0.869  10.148  10.667 -0.1011  0.2447 -0.3239
17549W        W37829  10.233  15.084  12.200 -0.3791  0.0858  0.0011
17550W        W37830  17.094  12.123  10.407  0.1460  0.2747  0.2694
17551W        W37831   0.170  15.788  12.628  0.1992 -0.1855  0.0078
17552W        W37832  19.023  16.328   3.169 -0.0669  0.0796  0.1078
17553W        W37833   8.395   9.849  13.018  0.1319 -0.1451  0.2829
17554W        W37834  13.456   6.765   0.717 -0.1754 -0.3490  0.0710
17555W        W37835  11.797  12.766  11.954 -0.1959  0.2568 -0.3049
17556W        W37836   3.827   3.932   1.426  0.1500  0.0558  0.1462
17557W        W37837  12.519   5.454   0.411 -0.0649  0.0664 -0.1084
17558W        W37838  17.031   4.561   3.130 -0.3520  0.0103 -0.0297
17559W        W37839   2.971  15.923  13.198 -0.0068 -0.0876  0.0745
17560W        W37840  14.836   3.700  10.406 -0.0903 -0.1471 -0.1146
17561W        W37841  16.602   9.220   0.333  0.0486  0.3663  0.1866
17562W        W37842  13.827  13.045   2.743  0.1639  0.1692  0.1474
17563W        W37843   5.969   1.097   1.371 -0.0350  0.0877  0.1323
17564W        W37844   8.822  14.026  12.475  0.0681 -0.3147  0.0272
17565W        W37845   9.268   2.000   2.757  0.2173  0.0211 -0.0595
17566W        W37846   9.630  14.413  13.283  0.0330 -0.0591  0.1695
17567W        W37847   4.235   5.647   2.118  0.0178  0.2772  0.3910
17568W        W37848  16.229  14.736  11.862 -0.2202  0.0544 -0.0830
17569W        W37849   4.978   7.291  12.179 -0.1431 -0.1267 -0.0252
17570W        W37850  12.526   0.966   3.284  0.0271  0.2490  0.1132
17571W        W37851   9.290  12.929  11.111  0.0677  0.3872  0.1508
17572W        W37852   3.400  17.414  13.496 -0.2224  0.0918  0.1344
17573W        W37853   6.801   6.561  11.494  0.2358 -0.2765 -0.2751
17574W        W37854  19.305  15.340  13.752  0.1667 -0.1324  0.1083
17575W        W37855  11.212   7.864   0.876  0.3985  0.0681  0.0476
17576W        W37856   1.357   1.712   0.731  0.0161  0.3160 -0.0852
17577W        W37857   3.549  13.168   3.074 -0.2886  0.2427 -0.0388
17578W        W37858  15.353   9.341   1.930 -0.1123  0.1222 -0.4482
17579W        W37859  13.009  18.241   9.982  0.1586  0.1849 -0.0250
17580W        W37860   3.991   4.518  12.526 -0.0024 -0.0738 -0.0360
17581W        W37861  15.219   0.311  10.682 -0.2497 -0.2659  0.1918
17582W        W37862   7.195  14.298   2.932 -0.0717 -0.0743 -0.2520
17583W        W37863   1.273   1.861  11.621  0.1109 -0.2652 -0.1077
17584W        W37864  12.727   8.876   2.871  0.2255 -0.2504  0.1040
17585W        W37865  19.802   7.604   1.403 -0.0619  0.1252  0.4827
17586W        W37866  15.046   8.970   1.860 -0.1410  0.3765  0.0093
17587W        W37867   3.823   0.502   0.426  0.2199  0.0815  0.3895
17588W        W37868   3.822   8.722   3.357  0.1389  0.1213  0.1846
17589W        W37869  17.073   4.278  11.217  0.2688  0.1068 -0.0270
17590W        W37870   1.005  16.159   1.951 -0.3768 -0.0729  0.3602
17591W        W37871  19.574   3.635   1.522 -0.1430  0.0463 -0.2720
17592W        W37872   3.391  18.201  13.576  0.2345 -0.2265 -0.0675
17593W        W37873   9.442   8.195   2.511  0.1304  0.3598 -0.2533
17594W        W37874  14.498  14.060   3.251  0.0319  0.0993 -0.0370
17595W        W37875  17.830  18.839  13.268 -0.1191 -0.2286  0.0325
17596W        W37876  16.454   4.460  10.060 -0.2814 -0.0932  0.0856
17597W        W37877   2.340  14.354   1.487  0.0331 -0.1090 -0.3561
17598W        W37878   0.727   9.876  13.274 -0.0006 -0.0447  0.0795
17599W        W37879   9.451  12.791   0.011 -0.0190  0.0565  0.2981
17600W        W37880  18.729  11.790  11.202  0.2615 -0.0242 -0.0102
17601W        W37881  11.979   8.789   9.983 -0.0671  0.1617 -0.1300
17602W        W37882   9.567   1.751   5.044  0.2964  0.1203  0.1780
17603W        W37883  14.458   9.824  13.322  0.1114  0.0281 -0.2113
17604W        W37884   7.688   0.370   3.329  0.0944  0.3266 -0.0536
17605W        W37885  15.160  15.058  10.028 -0.0712  0.0051  0.0480
17606W        W37886  18.037   8.986  10.310 -0.0532 -0.0249 -0.1521
17607W        W37887  15.176   8.172  10.975  0.0667 -0.0378  0.0017
17608W        W37888  19.403  18.276  11.230 -0.0204 -0.1062  0.0795
17609W        W37889   5.578   9.717   3.614 -0.1511  0.2000 -0.1714
17610W        W37890   1.500   5.123  11.278 -0.3490 -0.1571 -0.1656
17611W        W37891  11.640   1.141  10.580  0.1910  0.1921  0.1103
17612W        W37892  12.246  14.995  13.756 -0.3925 -0.0985 -0.1422
17613W        W37893   7.330  18.584   3.828 -0.1089 -0.0248 -0.1370
17614W        W37894   2.253   8.741  10.127  0.0316 -0.0396  0.0827
17615W        W37895  15.665   0.937   4.416 -0.0953 -0.3214  0.0953
17616W        W37896  17.478   5.082   0.206 -0.0424  0.0755  0.3547
17617W        W37897  18.884  12.353  10.055 -0.0330 -0.1138  0.2712
17618W        W37898  11.947   5.042  11.267  0.0481  0.1366  0.2600
17619W        W37899  17.928  14.252   9.694  0.1098 -0.0474 -0.0882
17620W        W37900   7.130   8.634   1.758 -0.1210 -0.0882 -0.0655
17621W        W37901  10.320  12.300  10.996 -0.0916  0.1041 -0.2857
17622W        W37902  13.706   3.257   3.037  0.4029  0.1990 -0.0280
17623W        W37903  13.160   6.807   3.018  0.0250  0.1279  0.1558
17624W        W37904   7.549   8.847  13.398  0.0569  0.1643  0.1745
17625W        W37905  16.859  17.449  12.361  0.0668  0.1245 -0.1115
17626W        W37906  12.709  16.193   1.435 -0.1840  0.0272  0.2154
17627W        W37907   3.037  10.565   2.513 -0.2758 -0.2801 -0.0625
17628W        W37908   3.388  18.855  10.397 -0.1160 -0.1702  0.0587
17629W        W37909   4.814  15.942   2.334  0.0347  0.4051 -0.0081
17630W        W37910   3.096  16.616  10.286 -0.1725 -0.2580  0.0004
17631W        W37911  12.125  11.411   1.364 -0.0719 -0.1818  0.1368
17632W        W37912  15.286  14.076   2.490 -0.2305 -0.0537  0.0290
17633W        W37913   5.698  19.392   1.053  0.0750 -0.0068  0.0011
17634W        W37914   7.360   3.487   0.639 -0.0863 -0.2328  0.0094
17635W        W37915  10.583   9.854  13.103 -0.2845  0.0607 -0.2028
17636W        W37916   7.056  10.384   9.145 -0.0508  0.0471 -0.2489
17637W        W37917   6.272   9.016   0.669 -0.0828 -0.1809  0.0901
17638W        W37918  14.026  18.949  11.218 -0.2267 -0.0052 -0.0347
17639W        W37919  12.356   3.058   0.416  0.0313 -0.1624  0.2295
17640W        W37920   3.420   4.245   2.542  0.0293 -0.3392 -0.0003
17641W        W37921  15.398   3.870   2.598  0.0006  0.0708 -0.1179
17642W        W37922   5.876  18.326  10.941 -0.1371 -0.0120  0.0206
17643W        W37923  16.618  11.396   3.331 -0.0014  0.1908  0.1057
17644W        W37924   4.114  10.490   4.517  0.1698  0.0096 -0.0258
17645W        W37925  18.921   7.827   2.661 -0.1107  0.0380 -0.0990
17646W        W37926   8.393   6.688   3.521  0.2609 -0.0262 -0.1110
17647W        W37927   5.625   5.834   2.402 -0.2197 -0.0026 -0.0166
17648W        W37928   9.949  17.743  10.372  0.0570 -0.0121 -0.0446
17649W        W37929  14.810   1.347   0.057  0.2257  0.1391 -0.1287
17650W        W37930  14.437  14.649  10.345 -0.0655 -0.0246 -0.2182
17651W        W37931   4.529  12.648   0.379  0.0592 -0.1402  0.2397
17652W        W37932   2.803   7.989  11.903 -0.4618  0.1019 -0.4089
17653W        W37933  16.666  17.449  10.230  0.1198  0.2729  0.3246
17654W        W37934   2.766   7.483   3.600 -0.2317  0.0593  0.1834
17655W        W37935   1.095  15.271   0.163  0.0234  0.1263  0.0051
17656W        W37936   9.722   2.227  12.840 -0.2808  0.6322 -0.0368
17657W        W37937   0.541   9.551   2.656 -0.1025 -0.0925 -0.1163
17658W        W37938   5.181   1.681   2.268 -0.0252 -0.3242  0.1527
17659W        W37939  11.855   8.452   3.527 -0.0135 -0.1696  0.0955
17660W        W37940  19.030   9.207  11.797  0.2852  0.0647 -0.1893
17661W        W37941  13.678   2.614  10.573  0.1492 -0.0558  0.0135
17662W        W37942   6.185   3.920   5.131 -0.1682 -0.2306 -0.0009
17663W        W37943  16.574  19.893   1.746  0.0302  0.0068 -0.0872
17664W        W37944  13.699  18.690   9.906  0.0995  0.1412 -0.1715
17665W        W37945   6.472  16.057  11.877 -0.2137 -0.0204  0.0570
17666W        W37946  10.923  13.492  12.352  0.1009  0.0404  0.0627
17667W        W37947   5.772  14.098  11.636  0.0277 -0.0409 -0.3317
17668W        W37948   5.061  11.883   0.225 -0.1268 -0.0613 -0.1043
17669W        W37949   8.532  10.074  12.614 -0.2111 -0.2311 -0.2878
17670W        W37950   5.386  13.610   3.880 -0.2096  0.1008  0.0419
17671W        W37951   7.411   8.478  12.386 -0.4480 -0.4504  0.1457
17672W        W37952   6.899  18.331  13.188  0.1652 -0.1739  0.2297
17673W        W37953   5.523  11.464   0.086 -0.0711 -0.2328  0.1606
17674W        W37954   6.587   5.274   4.225  0.4163 -0.1744  0.0321
17675W        W37955   4.107   9.544   2.380 -0.1337 -0.1620  0.1092
17676W        W37956  17.841  19.163  11.517  0.1279 -0.3514  0.0519
17677W        W37957  13.391   6.604  13.796 -0.0593 -0.2945 -0.2106
17678W        W37958  15.253   1.698  12.893 -0.0350  0.1301  0.0934
17679W        W37959   9.936   4.341   1.124  0.2292  0.0594 -0.0134
17680W        W37960  15.136   2.722  13.698 -0.1492  0.4307  0.0254
17681W        W37961  18.942   5.701   2.424  0.2665 -0.1542  0.5489
17682W        W37962  10.954  12.201   4.809  0.0038 -0.1395 -0.2592
17683W        W37963  18.889   5.709   9.337  0.1716  0.2155  0.0787
17684W        W37964  15.614  15.821   2.785 -0.2458  0.0421 -0.2886
17685W        W37965  17.157  19.481  12.810  0.0154 -0.4245 -0.3941
17686W        W37966   1.378   7.982  11.548  0.2937 -0.0892  0.0892
17687W        W37967   9.727  11.954   3.726  0.0890 -0.0865 -0.1798
17688W        W37968  10.401  19.912  11.245 -0.0823  0.0905  0.3926
17689W        W37969   5.985  19.418   2.931  0.0717 -0.0752 -0.2038
17690W        W37970   1.128   3.182   1.960  0.3424  0.0124  0.1606
17691W        W37971  13.958  16.908   2.071  0.0001 -0.0095  0.0508
17692W        W37972   8.309  19.612  11.046 -0.1201  0.1794 -0.1165
17693W        W37973   7.639   0.207   1.811  0.0811 -0.0446  0.0213
17694W        W37974   6.366  19.662  13.180 -0.0379 -0.0969 -0.0663
17695W        W37975  12.341  16.922  11.668 -0.1706 -0.4551  0.1738
17696W        W37976   0.158   4.567   0.245  0.0520  0.0878  0.0325
17697W        W37977  15.218   1.076  12.198 -0.3548  0.0229  0.0340
17698W        W37978  15.551   0.677   1.917  0.0472  0.1731 -0.0618
17699W        W37979   7.395  18.117   9.564 -0.1764  0.0398  0.0244
17700W        W37980   2.410   9.518   2.178  0.0482 -0.0022 -0.0930
17701W        W37981  11.467   6.305  13.715 -0.4411 -0.0285  0.0161
17702W        W37982   9.161   8.404   0.828  0.3184 -0.1694 -0.0536
17703W        W37983  19.711   5.011  10.832 -0.1763  0.0410 -0.0694
17704W        W37984   3.478   4.662  11.020 -0.0408  0.1898  0.0252
17705W        W37985  10.033  15.550  12.912 -0.3186  0.1658 -0.4684
17706W        W37986  15.068   7.867   2.165  0.1693 -0.0901  0.4650
17707W        W37987  11.020  15.057   2.919 -0.2613  0.1396  0.1533
17708W        W37988  12.392   9.242   1.034 -0.1294 -0.2617  0.3077
17709W        W37989  14.326   8.474   9.848 -0.1073  0.0744 -0.0761
17710W        W37990   7.758  19.107   0.707 -0.2202  0.0802  0.5581
17711W        W37991   1.124  19.406  11.966  0.2591  0.1983  0.0975
17712W        W37992   5.906  19.349  12.630  0.0598 -0.1083 -0.0538
17713W        W37993  11.979  13.939  10.799  0.0610  0.2542  0.0659
17714W        W37994   2.790  14.509   1.350 -0.0895  0.2062  0.0267
17715W        W37995   9.864   7.627   1.414 -0.0290 -0.1800  0.0094
17716W        W37996   5.193  19.488  11.246 -0.3652 -0.2310  0.1621
17717W        W37997   1.819  15.461  10.531  0.2019 -0.0303  0.0629
17718W        W37998  13.563  11.059   3.475  0.3266 -0.1287  0.0111
17719W        W37999   2.497   2.902  11.378  0.1194 -0.1101  0.0212
17720W        W38000  11.112   3.876   0.384  0.0052 -0.1404  0.0317
17721W        W38001   0.544  19.080  12.634 -0.1318  0.0914 -0.1531
17722W        W38002   1.761  14.133  11.525 -0.3827  0.0891 -0.2529
17723W        W38003   9.175  12.691   2.635 -0.2014 -0.1350 -0.2218
17724W        W38004   0.789   5.565   1.630  0.0661 -0.3042 -0.1442
17725W        W38005  11.991   8.252   3.090  0.1301  0.1365  0.1153
17726W        W38006  17.793   7.002  11.713  0.0397  0.0888  0.2820
17727W        W38007  16.633   4.501   3.793  0.0257  0.5107  0.0106
17728W        W38008  11.862   4.301   3.646  0.2033  0.0287 -0.2869
17729W        W38009  10.283   1.682   0.668 -0.2388  0.1244 -0.1419
17730W        W38010   4.781  12.926   1.730 -0.3012  0.2703  0.0068
17731W        W38011   7.039   8.927  13.151  0.1012  0.2120  0.3131
17732W        W38012   6.842   2.822   4.492  0.1096 -0.1246  0.1679
17733W        W38013   4.261   2.606  13.167  0.0324 -0.2812 -0.2240
17734W        W38014   8.966  15.778   3.659  0.1969  0.0569  0.0937
17735W        W38015  14.507   2.293   0.492 -0.0547  0.1282 -0.1289
17736W        W38016  17.630   9.894  12.095  0.2868 -0.1142 -0.3789
17737W        W38017  17.162   2.517  13.295 -0.2744 -0.2357  0.2696
17738W        W38018  16.021  13.990   1.230  0.0414 -0.1529 -0.1768
17739W        W38019  10.072   7.681   2.980 -0.3760 -0.0191  0.2539
17740W        W38020   7.625   4.186   1.159 -0.1232 -0.4571  0.1754
17741W        W38021  13.348   8.834  13.457  0.1485  0.2452  0.2653
17742W        W38022  19.930   1.931   2.522  0.1811  0.1911 -0.1373
17743W        W38023  14.286   0.239  13.231 -0.1505 -0.1950  0.1352
17744W        W38024  10.047  15.454   2.859  0.0782 -0.1212 -0.4276
17745W        W38025   6.580  10.207  12.543 -0.2626  0.4804  0.0823
17746W        W38026   2.367   0.037   0.240 -0.0873 -0.0918  0.0280
17747W        W38027  11.126   9.030  12.793  0.1045  0.1236  0.1534
17748W        W38028  16.845   6.947  13.109 -0.1368 -0.3453  0.0546
17749W        W38029  18.812   3.442  13.005 -0.2465 -0.1835 -0.2003
17750W        W38030  19.384  13.742   9.847 -0.1601 -0.0453 -0.1222
17751W        W38031  14.128   3.882   2.797 -0.0605 -0.0868 -0.0096
17752W        W38032  15.777  12.523   1.091  0.0237  0.0395 -0.3093
17753W        W38033   9.783   0.303  13.215 -0.0411 -0.0087 -0.4597
17754W        W38034   6.889  12.274  11.441 -0.1015  0.1010 -0.2393
17755W        W38035  18.151  19.298  13.368 -0.2001  0.0925  0.1424
17756W        W38036   9.078   9.087   1.284 -0.2751 -0.1653 -0.0528
17757W        W38037  19.786  19.927   2.510  0.2848 -0.2553 -0.0757
17758W        W38038   2.373   9.106   0.046  0.1346  0.2418  0.2312
17759W        W38039  10.404   3.044   0.867  0.0574  0.3192  0.0229
17760W        W38040  13.107  17.992  10.490 -0.1363 -0.1470 -0.0202
17761W        W38041  18.851   2.629   1.356  0.4358  0.3878  0.2191
17762W        W38042  16.744  12.346   0.787 -0.2804  0.1080 -0.3408
17763W        W38043   7.476  18.107   4.068 -0.0698  0.1931  0.2933
17764W        W38044  11.452  10.901   3.517  0.0062 -0.1302 -0.3258
17765W        W38045  19.555  18.066  10.358 -0.0233  0.0076  0.1018
17766W        W38046  11.693   0.426  13.274  0.1450 -0.4365  0.3564
17767W        W38047  16.924   5.946   2.523  0.0812 -0.0283 -0.0597
17768W        W38048  13.446   6.191   3.722 -0.1011 -0.0308  0.0765
17769W        W38049  10.675   2.762   0.465  0.0578 -0.0284 -0.1931
17770W        W38050  13.725  19.617   9.823 -0.0618 -0.1067 -0.0271
17771W        W38051  18.115   1.326  10.101 -0.0169 -0.0010 -0.0919
17772W        W38052  12.329  15.451  13.477 -0.1126  0.2654 -0.0307
17773W        W38053   2.330  12.402  11.182  0.0750 -0.0671 -0.0968
17774W        W38054  16.622   9.408  11.196  0.1872 -0.5101  0.2042
17775W        W38055  11.870   7.797   3.562  0.2364 -0.0677 -0.0291
17776W        W38056   2.550   0.333   3.059 -0.1497  0.1005  0.1830
17777W        W38057   5.977  13.520   2.754 -0.2031 -0.0273  0.2320
17778W        W38058   4.408  10.384  10.497  0.0025  0.0819 -0.3702
17779W        W38059   2.321   0.516   2.598  0.1773  0.0182  0.0994
17780W        W38060   9.363  15.978  10.190  0.0957  0.0128 -0.0895
17781W        W38061  19.559  13.099  12.225 -0.0260 -0.0341 -0.0729
17782W        W38062  15.529  13.430   3.714 -0.2545  0.4137  0.4567
17783W        W38063  16.681  11.948  12.094 -0.2406 -0.3198  0.2039
17784W        W38064  12.058   9.914   1.069  0.1756 -0.0387  0.3683
17785W        W38065  14.577  12.268  11.426 -0.2597  0.1906  0.3349
17786W        W38066  19.401   8.578   2.055  0.0341 -0.0445  0.1701
17787W        W38067  17.837  14.703  10.527  0.1034  0.0137 -0.2834
17788W        W38068  13.781  11.085  11.955  0.3026 -0.1080 -0.1454
17789W        W38069  17.999  19.024   2.891 -0.1838 -0.3148  0.0725
17790W        W38070   9.890  17.819   2.907  0.0968  0.3552  0.1626
17791W        W38071   2.154  18.899   1.585 -0.2193 -0.0711 -0.1776
17792W        W38072  11.384  16.377  11.795  0.0776  0.0214 -0.2720
17793W        W38073  15.108  13.654   2.747  0.1308  0.1893  0.0996
17794W        W38074  10.262   0.246  11.707 -0.1704 -0.1309  0.1726
17795W        W38075   7.703  14.438  11.919 -0.1995 -0.2417  0.0342
17796W        W38076  10.748  10.154   0.494 -0.1244  0.1498  0.0526
17797W        W38077  14.994   3.192  13.792  0.0503  0.2315 -0.0777
17798W        W38078   8.003  10.952   5.385 -0.2289 -0.1823 -0.0059
17799W        W38079   4.294   1.142   3.987 -0.2142  0.1073  0.1909
17800W        W38080  10.351   3.289  13.237 -0.0141  0.1889 -0.2252
17801W        W38081  19.279  13.730  10.940 -0.0999 -0.2709  0.1748
17802W        W38082   5.242  12.874  11.255 -0.1258  0.2204 -0.2404
17803W        W38083   6.704   5.982  12.662  0.2473  0.0709  0.2870
17804W        W38084  13.249   5.296  10.428  0.0385 -0.0746 -0.1374
17805W        W38085  12.041  12.527  13.790  0.0821  0.3075 -0.0524
17806W        W38086   2.321  11.962  10.934  0.0500 -0.2704  0.0788
17807W        W38087   0.922  13.898   2.251  0.3407 -0.1720 -0.0778
17808W        W38088  17.816  14.574   2.261 -0.1289  0.1669 -0.0475
17809W        W38089  17.303   9.403   2.189  0.0588 -0.0673 -0.3212
17810W        W38090  14.288   3.541   0.336 -0.0000 -0.4071 -0.0399
17811W        W38091   4.687  10.936   3.871 -0.1709  0.0287  0.1655
17812W        W38092  13.990  11.529  13.719 -0.1135  0.0714 -0.0654
17813W        W38093   4.897   7.387   0.057  0.2748  0.1542 -0.2273
17814W        W38094   6.329   3.432  13.755 -0.0264 -0.2669 -0.0284
17815W        W38095  14.797  12.699  10.709 -0.1583 -0.0026 -0.0809
17816W        W38096  16.091   0.580   1.796  0.0844 -0.0951 -0.1203
17817W        W38097   9.625   9.145   4.047 -0.2578  0.1304  0.3240
17818W        W38098  10.294  17.959   4.298 -0.1642 -0.3122 -0.0871
17819W        W38099   0.376  19.056   3.422 -0.0597 -0.0873 -0.0711
17820W        W38100  12.279   3.825  12.761  0.0834  0.0966 -0.1440
17821W        W38101  18.483   7.021   9.903 -0.0634 -0.0944  0.1206
17822W        W38102  14.009   6.097   0.694 -0.0600 -0.0893  0.2804
17823W        W38103  17.118   4.139  10.702  0.0734  0.0758  0.3125
17824W        W38104  18.553   7.531  10.813 -0.2942 -0.0529  0.1074
17825W        W38105  13.259  15.308  13.676 -0.0878  0.6597  0.0404
17826W        W38106   6.688  12.022   0.558  0.1361  0.0057 -0.0609
17827W        W38107   5.550   1.435   2.467 -0.1737  0.0664 -0.0765
17828W        W38108  10.972   7.975   3.361 -0.0253 -0.0429 -0.3144
17829W        W38109  14.776   8.519  13.310  0.1972  0.2857  0.0092
17830W        W38110   7.732  17.953  12.602  0.1112 -0.4396 -0.2819
17831W        W38111   1.098  16.926   0.742  0.0622 -0.1098 -0.1505
17832W        W38112   5.691   5.196  12.031 -0.0134 -0.0118  0.0129
17833W        W38113   8.307   7.520  12.827  0.1595 -0.1688  0.0728
17834W        W38114  12.213   5.233  13.130 -0.0512 -0.0527 -0.1052
17835W        W38115   1.515   9.811   2.973 -0.1062 -0.0395  0.2836
17836W        W38116   8.930  14.143  11.944  0.0357 -0.4224  0.3858
17837W        W38117  18.247   3.783   0.980  0.6007  0.1206 -0.1630
17838W        W38118   1.557  11.125  12.055  0.2009  0.0492 -0.0954
17839W        W38119   9.529  11.133  12.387  0.1774 -0.1194 -0.2877
17840W        W38120  10.515  19.288   1.828 -0.1572  0.0384  0.1350
17841W        W38121   1.394  15.482  10.204  0.1157 -0.0378 -0.0106
17842W        W38122   5.554  14.657  11.456 -0.1729 -0.1433  0.0300
17843W        W38123  11.951   1.305   2.768  0.3081  0.0714  0.4609
17844W        W38124   2.867  10.969   0.018  0.1284 -0.0493 -0.0335
17845W        W38125   8.337   6.108   3.852  0.0666 -0.2250  0.0538
17846W        W38126  13.448  11.422   1.169 -0.1303  0.1285  0.0098
17847W        W38127  12.270   5.319   2.700 -0.2620  0.0654  0.0019
17848W        W38128   3.489   8.337  11.141 -0.0100 -0.1799 -0.0122
17849W        W38129   2.615  10.049  11.084 -0.1674  0.1985  0.1112
17850W        W38130   7.400  13.736   1.916 -0.3408 -0.1714  0.0725
17851W        W38131   4.068  14.959   2.664 -0.0835  0.0508 -0.0813
17852W        W38132   2.642  13.472   3.206  0.0078  0.2668 -0.0346
17853W        W38133  15.548   3.253  12.091 -0.1241  0.0379 -0.0036
17854W        W38134   1.634   0.773  12.265 -0.2338  0.0124  0.0073
17855W        W38135   6.622   9.663   1.159 -0.0229  0.1901  0.1333
17856W        W38136  18.696   0.122   1.732 -0.0855 -0.1721 -0.0413
17857W        W38137  18.136  13.491   3.175  0.0049  0.0818 -0.1760
17858W        W38138   9.617   8.951  13.344 -0.0947  0.0024  0.0727
17859W        W38139   2.615  13.032   3.903 -0.0585 -0.4761  0.2794
17860W        W38140  16.511  12.641   0.060  0.0343 -0.2767  0.1092
17861W        W38141   0.772   5.982   9.451 -0.3452  0.3337  0.1640
17862W        W38142  11.378   2.521   0.980  0.0712  0.1532 -0.0866
17863W        W38143  15.950   1.845   2.138 -0.0285  0.0344 -0.0288
17864W        W38144  15.277   8.216  13.636 -0.1583 -0.1061 -0.1467
17865W        W38145   9.593   4.478  12.518 -0.0111 -0.0407 -0.1014
17866W        W38146   7.515  18.416  12.411 -0.1704 -0.1976 -0.1122
17867W        W38147   3.734  17.904   1.605 -0.0878 -0.1597  0.3605
17868W        W38148  15.711  15.638  10.379 -0.3440  0.2608 -0.2906
17869W        W38149  16.692  13.795   0.639 -0.0203 -0.1502 -0.3770
17870W        W38150   8.881  13.208   0.798 -0.1018  0.3047 -0.0905
17871W        W38151  10.100   4.307   0.437 -0.2652  0.0944  0.2011
17872W        W38152   3.754   4.552   2.238 -0.1193 -0.0772  0.0535
17873W        W38153  12.132  15.251  10.871  0.0381  0.0357 -0.1888
17874W        W38154  19.760  11.684  11.275 -0.0862  0.1663  0.2502
17875W        W38155  15.470   1.661   3.208  0.0727  0.2357 -0.1296
17876W        W38156  16.640  11.450   2.136  0.0871 -0.0167 -0.0589
17877W        W38157  17.934  15.567   0.872 -0.2505  0.0886 -0.0677
17878W        W38158   6.574  14.982   2.591 -0.2824  0.1469  0.1584
17879W        W38159   0.421   5.537  13.465  0.0396 -0.0059  0.3513
17880W        W38160   0.125  11.171   2.136 -0.0517 -0.1387  0.3113
17881W        W38161  17.284  13.144   2.576 -0.1230  0.0278 -0.1369
17882W        W38162  11.744   3.070  12.509  0.0186  0.2339 -0.0548
17883W        W38163  19.316  19.252   4.637 -0.2384 -0.1267  0.1587
17884W        W38164  18.908  15.067   9.805 -0.2182  0.0302 -0.1561
17885W        W38165   5.680   5.377  12.737 -0.0294  0.0063  0.3949
17886W        W38166   9.735   0.925  11.738  0.3807  0.1268  0.1071
17887W        W38167  17.485   0.883   1.447  0.0851  0.2206  0.0226
17888W        W38168  16.976  10.745  10.053  0.0418  0.2018 -0.5920
17889W        W38169   4.859   5.350   4.149 -0.0714  0.2137 -0.2156
17890W        W38170  15.288  18.235   2.671 -0.1020  0.2508  0.2017
17891W        W38171  10.243  14.784   2.727 -0.4248  0.0480  0.0330
17892W        W38172   1.687  19.410  12.509 -0.1245 -0.0740  0.0602
17893W        W38173   5.319  18.234  13.214 -0.1851  0.1964  0.2839
17894W        W38174   2.114  14.292   3.929 -0.3047 -0.1325  0.1873
17895W        W38175  12.185   1.126  10.705  0.0856  0.0686  0.6649
17896W        W38176   1.130  10.855  12.325  0.2817 -0.3394  0.2079
17897W        W38177   3.527  11.748  12.745 -0.2108  0.5531 -0.0816
17898W        W38178  12.609  12.284  13.486 -0.1051 -0.2088 -0.1470
17899W        W38179   7.014  18.135   2.999 -0.0131 -0.1148  0.0207
17900W        W38180   7.445  10.730   1.542 -0.1894 -0.3903 -0.1060
17901W        W38181   3.396  15.383  12.550  0.1966  0.0736  0.0493
17902W        W38182   4.991   0.636   1.161 -0.2384  0.2010 -0.1297
17903W        W38183   1.953  18.086   1.315 -0.0499  0.1489  0.1230
17904W        W38184  19.699  10.879   0.455  0.1851 -0.0437  0.3070
17905W        W38185  16.553  13.548   2.833  0.0951 -0.1741  0.2674
17906W        W38186   8.683   0.762  12.451  0.1829 -0.4570 -0.2899
17907W        W38187  12.159  17.227   2.140  0.0107 -0.2074  0.1115
17908W        W38188  16.632  16.995   2.283  0.1385  0.1074  0.1552
17909W        W38189  11.065  16.098  13.095 -0.2296  0.3903 -0.0357
17910W        W38190   1.109   5.758  10.059 -0.1900 -0.0328 -0.1537
17911W        W38191   0.622   2.134  13.609  0.0652  0.1396  0.0987
17912W        W38192  15.736  15.502  12.149 -0.0924 -0.1646 -0.0472
17913W        W38193  11.811  19.452  12.399  0.1040  0.1354  0.0856
17914W        W38194  10.698  11.016   1.070 -0.0652 -0.1621 -0.1505
17915W        W38195   7.249   3.817   3.210 -0.1431  0.0874 -0.1720
17916W        W38196  12.078   6.476  12.387 -0.0147  0.2833  0.0080
17917W        W38197   1.937  19.737   1.917 -0.0361 -0.1179 -0.0680
17918W        W38198  15.032   7.768   3.260  0.0029  0.3234  0.1713
17919W        W38199  16.407   7.064   0.462 -0.2420  0.0477 -0.1537
17920W        W38200   8.454   5.212  10.503 -0.0261  0.0725 -0.1520
17921W        W38201   7.950  17.139   1.922 -0.1109 -0.1553  0.2792
17922W        W38202  15.677  13.451  11.697  0.2185  0.0136 -0.2492
17923W        W38203   4.055   6.437  11.568 -0.0373  0.1487 -0.4707
17924W        W38204   0.571  16.338  12.896  0.0958  0.2618  0.1015
17925W        W38205   3.337  16.286  13.190  0.0572 -0.2665  0.1024
17926W        W38206   2.149  12.399  10.695 -0.2051  0.1305 -0.0630
17927W        W38207   4.886   8.097  10.324  0.1317 -0.0280  0.0407
17928W        W38208  19.673  19.158   1.111  0.0296  0.0415  0.1458
17929W        W38209  16.998  18.730  11.629  0.0233 -0.2529 -0.3498
17930W        W38210  11.443  18.970  13.294 -0.1953  0.4228 -0.1164
17931W        W38211  12.683   8.504  12.279 -0.0290 -0.1832 -0.3679
17932W        W38212   9.705  15.924   3.710  0.0481  0.0218 -0.0226
17933W        W38213  19.556   3.835  10.054 -0.0743  0.0003 -0.0357
17934W        W38214   1.614  19.791   3.596  0.2073 -0.1479 -0.2499
17935W        W38215  19.740  11.302   0.098 -0.1921  0.0652  0.0789
17936W        W38216  13.239   9.222   0.044  0.1217 -0.3445  0.4236
17937W        W38217   2.926   0.693   1.433  0.2815  0.1495  0.1026
17938W        W38218  19.930   1.810   0.445 -0.0236 -0.3733 -0.1993
17939W        W38219   7.941   8.841   1.981 -0.1115  0.1160  0.0070
17940W        W38220  16.357  10.169   2.295 -0.1142  0.0579  0.3144
17941W        W38221  14.928  11.089   1.204 -0.1421  0.3789  0.2726
17942W        W38222   6.909   2.343  10.129 -0.0213 -0.0001 -0.1798
17943W        W38223   3.558   7.521   0.314 -0.0002 -0.1155  0.1389
17944W        W38224  13.510   1.075  10.994  0.0902 -0.1665  0.1829
17945W        W38225   8.089   2.153   2.248 -0.1472  0.1382  0.0813
17946W        W38226   1.523  14.941   3.190 -0.1088 -0.2348 -0.0954
17947W        W38227   2.003  14.626  11.649  0.0428 -0.1912  0.1232
17948W        W38228  15.435  15.153   3.177 -0.2831  0.3019 -0.0460
17949W        W38229  14.890   1.049  11.769 -0.0114 -0.1679 -0.0541
17950W        W38230  17.896   8.839  11.675 -0.1130 -0.1224  0.0573
17951W        W38231  17.105   7.941  13.794 -0.2469  0.6400 -0.0108
17952W        W38232  17.814  15.152   3.077  0.0991  0.0086 -0.1729
17953W        W38233   6.992   9.323   1.170  0.0458  0.0647  0.4990
17954W        W38234  16.381   2.478  10.492 -0.0055 -0.1595  0.0512
17955W        W38235   8.110  13.032  12.909 -0.0277  0.0182 -0.0684
17956W        W38236  16.853   8.081  11.616  0.3073 -0.2223  0.1354
17957W        W38237  15.421  11.760   2.291 -0.0692  0.2816  0.1465
17958W        W38238   7.152   9.860  11.252 -0.0900 -0.0683  0.0404
17959W        W38239   7.426   7.310  12.889  0.0391 -0.2091 -0.0357
17960W        W38240  13.593  10.369   0.532 -0.1176  0.2163  0.0567
17961W        W38241   8.364   7.036  12.982 -0.2185 -0.3376 -0.0330
17962W        W38242   0.886   1.579   2.689 -0.0289 -0.0343 -0.0050
17963W        W38243   9.238   2.899  11.330  0.0759 -0.3124 -0.0966
17964W        W38244  10.661  18.640  11.962 -0.0977  0.0439  0.1589
17965W        W38245  11.976  11.870  10.741 -0.1588  0.1186  0.1082
17966W        W38246   0.734  15.816   9.614 -0.0624 -0.1480  0.0069
17967W        W38247   8.225  17.984   0.274 -0.0166 -0.1292  0.3670
17968W        W38248  19.661  13.570   2.662 -0.0215  0.1899  0.2164
17969W        W38249  13.767   4.232  10.856 -0.1914  0.0766 -0.0150
17970W        W38250   5.730  18.831   0.427  0.1126  0.1081 -0.6131
17971W        W38251   1.700  12.413  12.334 -0.2277 -0.0688  0.2770
17972W        W38252   2.023  17.106   1.062 -0.0853  0.1849  0.1623
17973W        W38253   7.841  19.480   3.734  0.4206  0.3643  0.2745
17974W        W38254  10.360   7.379  10.890 -0.2853 -0.1037 -0.1598
17975W        W38255  19.075   8.366   1.689  0.1466 -0.1632 -0.1045
17976W        W38256   0.841   9.353  11.033 -0.5725  0.2731  0.2444
17977W        W38257  12.968   1.924   2.948 -0.3082  0.1572  0.0133
17978W        W38258  19.482  18.275   9.384  0.3726 -0.1495 -0.1322
17979W        W38259   9.378  14.106   4.468  0.2451  0.1923  0.1879
17980W        W38260   8.580  12.467  13.102 -0.0058 -0.2016 -0.1056
17981W        W38261  16.179  17.937   0.705 -0.0296 -0.3432 -0.0789
17982W        W38262   2.415   9.256   2.611 -0.1127  0.0947 -0.0652
17983W        W38263   3.770   7.136   0.563  0.0285 -0.2553  0.3794
17984W        W38264   7.789  16.782   1.414  0.2371 -0.0870  0.0294
17985W        W38265   4.592  11.686   4.422 -0.1107 -0.0838  0.1430
17986W        W38266   9.653  10.952   9.615  0.1598  0.5376 -0.0647
17987W        W38267   6.082  15.318  13.008  0.4476 -0.2495  0.0554
17988W        W38268   5.652   1.659   3.014 -0.2668  0.0541  0.0706
17989W        W38269  12.268   4.286   9.637  0.0162 -0.1444  0.0475
17990W        W38270   8.184   0.494   4.423 -0.0007  0.0168  0.1803
17991W        W38271   8.035   0.429  11.723  0.3208  0.1676  0.0114
17992W        W38272  13.881   0.841  13.621 -0.2306 -0.4322 -0.0063
17993W        W38273  19.101  16.491  11.021  0.1196  0.1857 -0.1596
17994W        W38274  17.792  12.283  11.818  0.2448  0.0451  0.4698
17995W        W38275   3.928  18.349   1.361  0.4474  0.2759  0.0718
17996W        W38276  18.503   3.211   2.403 -0.1941 -0.0793 -0.0998
17997W        W38277   4.696  15.260  12.857 -0.3105 -0.0500 -0.1582
17998W        W38278  15.618  18.285  12.372  0.0796 -0.3138  0.2307
17999W        W38279   5.299   7.311  12.647  0.3673  0.2897  0.2466
18000W        W38280   7.612  11.025   1.984 -0.0333 -0.1084 -0.2477
18001W        W38281   1.052   7.366   1.477  0.3940  0.3527  0.1140
18002W        W38282  10.602  11.213   3.854 -0.1966 -0.2150  0.1070
18003W        W38283  11.896   6.809   2.064  0.1060  0.3366 -0.0576
18004W        W38284  11.883   7.441  11.057  0.1637 -0.0269 -0.1009
18005W        W38285   7.971   7.313   0.434  0.0657 -0.1398  0.1212
18006W        W38286   9.402   5.528   1.848  0.3792  0.1218  0.3056
18007W        W38287  10.549   5.816  12.229  0.0511  0.0226  0.2324
18008W        W38288  14.712  11.338  10.196 -0.0307 -0.0857 -0.0948
18009W        W38289  11.203  19.205  11.716 -0.0007 -0.3191  0.2487
18010W        W38290   2.302  11.543   9.432  0.1343 -0.2856 -0.1487
18011W        W38291   1.562  14.444   4.036 -0.1678 -0.0629 -0.2696
18012W        W38292   7.405  10.611  11.961 -0.0196 -0.4573 -0.1329
18013W        W38293  13.324   7.121   1.038 -0.0893  0.3359  0.1087
18014W        W38294  14.388   6.956   3.128 -0.2524  0.1438 -0.0676
18015W        W38295  11.354   2.611  12.920 -0.1006 -0.1883  0.0962
18016W        W38296  12.044   8.310   0.509 -0.1603  0.2641  0.2864
18017W        W38297   6.117   6.475   1.057  0.1057 -0.2201 -0.0585
18018W        W38298  17.870   4.008   2.269 -0.1019 -0.0608  0.0716
18019W        W38299  14.239   2.992  11.451 -0.3742  0.0547 -0.1038
18020W        W38300   7.692   0.533   4.557  0.3383 -0.0129 -0.0847
18021W        W38301  18.069  10.744  10.379 -0.0320 -0.0766  0.0757
18022W        W38302   6.936  10.556  11.042 -0.1823 -0.1510  0.4242
18023W        W38303   2.371  11.117   2.934  0.1529  0.0366  0.2995
18024W        W38304   5.484   3.166  11.269 -0.1914 -0.0439  0.1428
18025W        W38305   0.074   2.982   3.554 -0.0237  0.0157  0.1928
18026W        W38306   6.121   1.961   3.885 -0.0651 -0.0858  0.0985
18027W        W38307  17.886  11.921  13.017 -0.1121 -0.3660  0.0092
18028W        W38308  12.009  11.176   2.384  0.0985 -0.0343 -0.0291
18029W        W38309  16.052  11.802  11.392 -0.1233 -0.3356  0.0020
18030W        W38310   8.247   0.201  10.999  0.2153  0.0728  0.2210
18031W        W38311  13.522   5.965  13.220 -0.3213 -0.0758  0.2413
18032W        W38312  16.093   7.891   2.367  0.0660  0.3513 -0.1467
18033W        W38313  11.540  17.964  10.727 -0.1191  0.1884 -0.0835
18034W        W38314   5.916  11.849   1.250 -0.1526  0.0123 -0.1260
18035W        W38315  14.079  16.856   3.130 -0.0822 -0.0042  0.0222
18036W        W38316   1.209   8.859   0.143 -0.0652 -0.0543  0.0692
18037W        W38317  17.209  19.583  12.130 -0.0004  0.0989 -0.4355
18038W        W38318   1.278  11.989  12.568  0.2110 -0.1953 -0.1070
18039W        W38319   2.629  18.856   3.070 -0.1588  0.0314 -0.1024
18040W        W38320   4.498  10.059  10.123  0.2170 -0.2165 -0.0094
18041W        W38321  15.171  19.043  12.895 -0.0594 -0.1505 -0.3209
18042W        W38322  10.055   5.095   2.129  0.0018 -0.0205 -0.0099
18043W        W38323   6.286  15.031   3.836  0.0588  0.3164  0.3550
18044W        W38324   2.604   7.820  10.573  0.2193  0.0009  0.1186
18045W        W38325  15.382  14.900  12.035  0.0962 -0.1243  0.3290
18046W        W38326   1.688  18.461  12.875 -0.2610 -0.0757 -0.1887
18047W        W38327   3.048   5.398  11.415 -0.3359  0.0940 -0.0956
18048W        W38328   7.041  11.953   4.207 -0.4847 -0.0844 -0.0294
18049W        W38329   1.051  15.366  11.020 -0.3395  0.0608  0.0397
18050W        W38330  14.332   1.513   1.431 -0.1422  0.0401  0.1771
18051W        W38331  13.842   4.822  12.634  0.0403  0.1183 -0.0302
18052W        W38332  16.629   3.662  10.507 -0.3333  0.1125  0.1163
18053W        W38333   0.345  19.553  10.397 -0.4457 -0.0828 -0.3805
18054W        W38334  11.813   2.783  12.043 -0.3509  0.0486  0.0204
18055W        W38335   0.818   7.124  10.144 -0.1068 -0.0716  0.0213
18056W        W38336   3.948   9.259   3.321  0.3792 -0.3462 -0.0425
18057W        W38337   1.917  10.478  10.864 -0.0595 -0.2446  0.1463
18058W        W38338  14.152   3.345  10.872  0.3456 -0.0083  0.2528
18059W        W38339   5.916   4.025  10.932 -0.0489 -0.1107  0.1607
18060W        W38340  12.476  14.903  12.651 -0.1188  0.2869 -0.1261
18061W        W38341   9.753   5.699   3.575  0.1971 -0.2111 -0.1083
18062W        W38342  10.418   0.752   0.105  0.3361  0.1647 -0.2544
18063W        W38343  17.776   7.555   0.401 -0.0514 -0.0867  0.0428
18064W        W38344   1.181  13.607  12.048 -0.0676  0.1653 -0.0219
18065W        W38345   8.017  16.821   2.301  0.0462  0.2829 -0.1341
18066W        W38346   2.390   5.167   4.010 -0.0923  0.0710  0.1302
18067W        W38347  14.389   5.331   1.010  0.0125  0.1059  0.1860
18068W        W38348   0.772   8.750   2.996 -0.1735  0.1625 -0.1614
18069W        W38349   8.782   9.514   2.944 -0.4187  0.0538  0.1605
18070W        W38350  16.239   6.938   0.938 -0.0339  0.1224  0.1603
18071W        W38351  12.545   6.346   1.457  0.3045  0.0672 -0.0541
18072W        W38352  10.162  10.921  10.975 -0.0632  0.0072  0.0708
18073W        W38353   3.953   4.649  11.156  0.1027 -0.0553 -0.0326
18074W        W38354  12.745  17.408   1.965 -0.1236 -0.0724 -0.0774
18075W        W38355  15.624   7.833   0.419  0.1431  0.0399  0.0593
18076W        W38356   1.602   2.085  11.907 -0.1845  0.0169  0.0743
18077W        W38357   5.204  18.740   4.296 -0.1821 -0.0425 -0.2424
18078W        W38358  18.873   4.535  10.272 -0.0671  0.1467 -0.0170
18079W        W38359  11.192   7.181  11.561  0.0767 -0.3201  0.2500
18080W        W38360   8.155   9.894  11.348  0.1228  0.2723  0.0905
18081W        W38361   7.107  10.492   1.187 -0.1298  0.1837  0.1636
18082W        W38362  14.639  12.444   3.193  0.1458  0.1076 -0.0808
18083W        W38363  14.963  19.369  12.422 -0.2553  0.0799  0.2266
18084W        W38364  12.605   0.165  12.977 -0.1897  0.0470 -0.0711
18085W        W38365   0.675  11.008  12.414  0.0180 -0.3672  0.0364
18086W        W38366   6.144  12.471  11.120 -0.2428  0.2261  0.1675
18087W        W38367   2.277  18.778  11.882 -0.0189 -0.0993 -0.0662
18088W        W38368  13.323   5.261   0.087  0.0174 -0.2113 -0.1932
18089W        W38369   0.985   6.876   3.689  0.2355 -0.2971  0.0697
18090W        W38370   0.677  17.226  10.273  0.0086  0.0659 -0.1280
18091W        W38371   9.274  11.521  13.332 -0.1080  0.2079 -0.0982
18092W        W38372  17.425  19.929  10.267 -0.1688  0.1170  0.1406
18093W        W38373  14.464   2.420   1.581  0.0994  0.0207  0.0073
18094W        W38374   9.755   0.841   3.181 -0.0949 -0.4065  0.0122
18095W        W38375   0.140   6.945   0.919 -0.1291  0.1891  0.1378
18096W        W38376  19.382   6.258  11.129 -0.0369  0.1142  0.0293
18097W        W38377  12.440  14.418   4.440  0.0045  0.0570 -0.1675
18098W        W38378   3.412  14.008  13.653  0.3503 -0.0244  0.0985
18099W        W38379   1.148   2.292  11.769 -0.2093 -0.1516  0.3308
18100W        W38380   6.688   3.634  11.114 -0.0527  0.1770  0.0143
18101W        W38381  19.456  11.926  10.378 -0.2034  0.1404  0.1717
18102W        W38382   7.228  19.233  10.079 -0.2245  0.4648 -0.1732
18103W        W38383   7.135  11.921  12.592 -0.1534  0.0851  0.0459
18104W        W38384   0.925  19.663   4.039 -0.1135 -0.0202  0.1571
18105W        W38385  13.811  14.127   0.986 -0.1008  0.2231 -0.2592
18106W        W38386  17.116  12.908  11.560  0.1312 -0.0378 -0.2719
18107W        W38387   6.478  10.528  12.143 -0.1240 -0.1352  0.0739
18108W        W38388  19.065   1.092   1.411 -0.0192 -0.0489  0.0570
18109W        W38389  17.985   5.244  11.234 -0.2279  0.1118  0.3198
18110W        W38390  12.161   8.946   2.637 -0.0575  0.2180 -0.1443
18111W        W38391   6.708   6.752  11.944  0.1487  0.0648  0.2044
18112W        W38392   6.298   0.457  13.427 -0.0154 -0.0130 -0.0939
18113W        W38393  16.339  19.402   9.998 -0.2269 -0.2933 -0.1696
18114W        W38394  12.200   9.727   3.031  0.1940 -0.0543  0.2821
18115W        W38395  10.119  12.082   4.028  0.0079 -0.1266  0.1728
18116W        W38396   7.531   4.855  13.317 -0.0382  0.1577  0.0276
18117W        W38397  16.845  12.249   9.950  0.1094 -0.1231  0.0358
18118W        W38398  19.429  14.560   1.236  0.0370 -0.3432 -0.3542
18119W        W38399   8.055  13.266  10.454  0.0478  0.0106 -0.0426
18120W        W38400   6.554   2.087  10.444 -0.0556 -0.0311  0.1060
18121W        W38401  14.505  18.338   0.563 -0.2552  0.0505  0.1132
18122W        W38402   7.778   6.978   2.314 -0.0471 -0.0019  0.2436
18123W        W38403   2.988   0.091  11.835  0.0165 -0.0144 -0.1223
18124W        W38404  11.353  10.011  13.822 -0.0442 -0.2081  0.3929
18125W        W38405   1.893   1.646  10.949  0.1671  0.1738 -0.3865
18126W        W38406  13.728  19.779   3.478  0.1155  0.0016  0.0397
18127W        W38407   3.084   8.259  10.008  0.0253 -0.0312  0.2629
18128W        W38408  17.556  17.964   3.090 -0.0418  0.0418 -0.0075
18129W        W38409   4.097  15.575   0.491  0.1398 -0.0777  0.4027
18130W        W38410   0.446   6.867   2.132  0.1352 -0.0020 -0.0721
18131W        W38411  10.920  12.611   2.396 -0.0828 -0.0895 -0.0137
18132W        W38412   9.569  13.015  10.484  0.1270  0.1025 -0.0861
18133W        W38413  14.184   3.403   0.877 -0.0280 -0.2110 -0.3591
18134W        W38414  12.215   2.789  13.321 -0.1951 -0.1040  0.1831
18135W        W38415  17.949   2.525   0.393 -0.0070 -0.4223  0.0865
18136W        W38416  10.066   0.575  10.231  0.2718 -0.0304 -0.2821
18137W        W38417   2.924   6.667  11.005  0.1484  0.0954 -0.0178
18138W        W38418  12.719   7.732  11.545  0.0359  0.0668  0.1684
18139W        W38419   9.317   2.383  11.307 -0.0757  0.0288  0.0452
18140W        W38420  14.495   3.819  10.849 -0.0252 -0.1233  0.0157
18141W        W38421   0.776  13.540   0.394 -0.1747 -0.1418 -0.0328
18142W        W38422  15.712   8.923   0.189  0.0066 -0.1228  0.2979
18143W        W38423   0.252  19.457   2.083 -0.2559  0.0037  0.0566
18144W        W38424   8.394   3.355   0.001 -0.1259 -0.0574  0.2550
18145W        W38425  10.222  10.870   0.899  0.0964 -0.2803  0.0870
18146W        W38426  12.551  16.711   0.426  0.0422 -0.0191  0.3346
18147W        W38427  14.572   8.924  11.934 -0.0673 -0.0158 -0.2213
18148W        W38428  13.654   3.614   1.359  0.1223 -0.2393 -0.1482
18149W        W38429  18.867  10.932   1.066  0.0698 -0.0237  0.1616
18150W        W38430   7.152  11.132   0.724 -0.3196  0.0106  0.0447
18151W        W38431   6.265  15.039  13.703  0.1440  0.1199  0.0601
18152W        W38432   4.939   0.786   1.653  0.1325  0.2873 -0.3297
18153W        W38433   6.765  14.289   3.742 -0.0072 -0.0127 -0.1834
18154W        W38434   4.572  11.622   0.494 -0.0408  0.3740 -0.0511
18155W        W38435  14.791  16.418  13.456  0.2249 -0.1404 -0.0090
18156W        W38436  15.321  16.991   1.850  0.1219  0.0401  0.1055
18157W        W38437  11.703   1.859  11.050  0.1904 -0.2684  0.3613
18158W        W38438  19.891   6.008   0.219  0.0957 -0.0186  0.0611
18159W        W38439  11.842  19.950  11.602 -0.2478 -0.2430 -0.0759
18160W        W38440  16.946  12.805   2.181  0.1838 -0.1202  0.2735
18161W        W38441   7.842  12.242  11.179  0.0549  0.1098 -0.1517
18162W        W38442   0.513  14.237   1.880 -0.2333  0.0805  0.0824
18163W        W38443  11.588   6.044   2.333  0.0304 -0.1965  0.1246
18164W        W38444   8.827  14.941   2.141  0.0281  0.3545  0.4672
18165W        W38445  13.577   4.252  10.319  0.1383  0.0792 -0.2020
18166W        W38446  17.294  18.272   3.402  0.0638  0.3564 -0.1348
18167W        W38447  10.109   7.257   2.742 -0.0310  0.0856  0.2050
18168W        W38448  14.764  13.212  13.653  0.3087 -0.4687 -0.1591
18169W        W38449  10.069  10.224   3.274  0.2769  0.0370  0.0962
18170W        W38450   5.892   9.063  12.315 -0.1558  0.0568 -0.0338
18171W        W38451  12.282  10.910   2.006  0.2619 -0.2138  0.2123
18172W        W38452  16.520   6.288  11.397  0.2144 -0.0965 -0.1175
18173W        W38453   2.143   0.571  12.725 -0.0313 -0.0039  0.4825
18174W        W38454   7.296  13.627  11.077  0.3435 -0.1218 -0.1812
18175W        W38455  13.135  14.476  10.118 -0.1033 -0.0451  0.2238
18176W        W38456  10.635  11.350  11.883  0.2999  0.0286 -0.0545
18177W        W38457  15.164  10.358  13.018 -0.0739  0.0622  0.1133
18178W        W38458   3.112   8.795   3.711  0.0502  0.2363  0.0692
18179W        W38459  17.570  17.782  11.534  0.0451 -0.2464  0.2269
18180W        W38460   9.979  18.472   2.855  0.2313 -0.0090 -0.0432
18181W        W38461  13.504  13.879  12.864 -0.0096 -0.2837  0.2561
18182W        W38462   8.768  13.342  13.225  0.1956  0.2007  0.2094
18183W        W38463   5.970  15.437  13.506  0.1733  0.0128 -0.3419
18184W        W38464  13.437   8.582   9.899  0.2350  0.1156  0.0099
18185W        W38465   2.114  14.467   4.435 -0.0885  0.1680  0.0625
18186W        W38466  19.006  14.047  10.678  0.1821  0.0311  0.2608
18187W        W38467   5.178   0.356  11.164  0.1028 -0.0268  0.5112
18188W        W38468  11.699   7.827  11.943 -0.1047 -0.0832 -0.1659
18189W        W38469  13.170   8.844   3.138  0.1924 -0.1489 -0.0760
18190W        W38470  15.791  10.985  13.624 -0.0319  0.1280  0.0956
18191W        W38471   5.644  16.469  11.313 -0.3238 -0.1858 -0.0747
18192W        W38472  19.338  13.672  10.472  0.2782 -0.0937 -0.0117
18193W        W38473   0.080   6.920  13.215 -0.2871  0.2380  0.3436
18194W        W38474  19.628   7.160  13.536  0.2427 -0.0443  0.0275
18195W        W38475   2.668   9.672   3.674  0.0460 -0.0908 -0.0351
18196W        W38476  17.587  16.856   1.483 -0.1594  0.0459 -0.1694
18197W        W38477  10.308  18.521  11.086 -0.0627  0.1709  0.3843
18198W        W38478  19.423   4.438   1.446 -0.2550 -0.0535  0.0039
18199W        W38479  11.827  13.588   2.025 -0.0716 -0.0723 -0.0880
18200W        W38480   7.579   6.551   2.038 -0.1010 -0.2768  0.1396
18201W        W38481  17.557   1.475   4.163 -0.0323 -0.0826 -0.0104
18202W        W38482  15.082   0.213  13.714 -0.1613 -0.0125  0.2025
18203W        W38483  11.307  19.671  12.500 -0.0734 -0.0765  0.3744
18204W        W38484  11.692  12.669   4.518  0.2526 -0.1161  0.2200
18205W        W38485   0.550  14.700  10.484  0.0666  0.0619  0.2112
18206W        W38486  19.286   6.781  13.794 -0.0777  0.1486 -0.3276
18207W        W38487   1.751  13.267  11.143 -0.1031 -0.0815 -0.3517
18208W        W38488   3.102  14.813  10.484 -0.1079 -0.1897 -0.0726
18209W        W38489  15.356   4.392   2.481 -0.0806 -0.1930  0.2950
18210W        W38490  11.210   1.911   3.303 -0.2579  0.1676 -0.2680
18211W        W38491  18.469  10.094  13.715 -0.0504 -0.1640 -0.0558
18212W        W38492  13.230   0.922  11.933 -0.0656 -0.1811 -0.2982
18213W        W38493  11.813   7.895  10.341  0.1724 -0.0415  0.1123
18214W        W38494  12.164  19.678  13.649 -0.1796  0.0599  0.2697
18215W        W38495   2.714  14.334   9.508  0.0660  0.3797  0.2207
18216W        W38496  13.582   4.062   1.120  0.2177 -0.1126  0.0161
18217W        W38497  11.341   5.334  12.807 -0.1429 -0.1930 -0.0777
18218W        W38498  17.063   2.165  12.161  0.3042  0.1464 -0.4137
18219W        W38499  14.940  13.113   1.266  0.0267 -0.1841  0.1184
18220W        W38500  17.462   5.843  13.541 -0.2774 -0.2581  0.1660
18221W        W38501  14.374   1.508  10.707 -0.1111  0.0157  0.1375
18222W        W38502  15.309  14.489  11.016  0.0538 -0.0084  0.3831
18223W        W38503  19.302  18.282  10.750  0.3354  0.0538  0.3077
18224W        W38504   1.634   4.887   1.383  0.2024  0.1723  0.0892
18225W        W38505   0.533  15.468  13.767 -0.4479 -0.1699  0.0124
18226W        W38506   0.821  19.540   0.801  0.0420 -0.1213 -0.4936
18227W        W38507  14.840   9.158  10.218 -0.0400 -0.0532 -0.2842
18228W        W38508  10.967   8.108   1.327  0.0106 -0.0365  0.4021
18229W        W38509  11.893   8.957   9.130 -0.1853  0.3285  0.1018
18230W        W38510   1.274   9.876  10.257 -0.0059 -0.3463  0.2608
18231W        W38511  14.804   3.382  10.012 -0.0506 -0.0123 -0.1612
18232W        W38512   8.894  13.095  10.794 -0.1220 -0.0414 -0.1153
18233W        W38513   8.019  14.015   4.029 -0.1379 -0.0140  0.2893
18234W        W38514   0.610  11.150  11.344 -0.0577 -0.1061 -0.0312
18235W        W38515  12.225   1.927   3.817  0.0176 -0.1338 -0.0609
18236W        W38516  11.578  17.857   5.060  0.2608 -0.0580 -0.0599
18237W        W38517   5.934  12.247   3.522  0.2684 -0.0784  0.1265
18238W        W38518   0.036  13.277  10.691 -0.1464  0.0797 -0.2558
18239W        W38519  12.356   4.765   9.481 -0.1214  0.3657 -0.1681
18240W        W38520   0.376  19.850  13.619  0.0297 -0.1047  0.0599
18241W        W38521   1.282   2.229   0.547 -0.1837  0.0751  0.2599
18242W        W38522  10.071   2.111   2.678  0.3115 -0.0692  0.1599
18243W        W38523  13.004   6.247   3.333  0.0615 -0.1355  0.0014
18244W        W38524   0.328   6.482   3.860 -0.0489 -0.3228 -0.1811
18245W        W38525  10.707  16.976   3.466 -0.0953 -0.2690  0.1027
18246W        W38526   9.172  17.630  13.274  0.4581  0.0918  0.0753
18247W        W38527  10.814  14.076  10.246  0.0839  0.1411 -0.0841
18248W        W38528  16.957   6.797  12.006  0.2645 -0.2209  0.1548
18249W        W38529   2.609   5.627   3.376  0.2552 -0.1386  0.0867
18250W        W38530   4.298  11.838  13.786  0.1501 -0.0558 -0.1322
18251W        W38531   3.714   6.309  11.188 -0.3248  0.3089 -0.0528
18252W        W38532  15.280   1.968   1.327  0.1176  0.1401 -0.0249
18253W        W38533   8.131  10.908  12.672 -0.1484  0.2156 -0.2378
18254W        W38534   9.129  11.409   0.975 -0.0237 -0.1932  0.3182
18255W        W38535  19.419   8.700  12.598 -0.1559  0.0981 -0.2046
18256W        W38536  13.212  15.962  11.024  0.0633  0.0225 -0.2501
18257W        W38537  18.876  11.006  11.825  0.5142  0.0802 -0.1391
18258W        W38538  10.929   0.177  11.310  0.2570  0.2817  0.2381
18259W        W38539   2.434  12.153   1.398 -0.2990 -0.0870  0.2393
18260W        W38540  19.642  12.420   9.731 -0.0022  0.0080  0.2793
18261W        W38541  14.324  14.878  13.059 -0.2399 -0.0027 -0.1011
18262W        W38542   1.502   7.911   1.086 -0.0046  0.0914  0.1432
18263W        W38543   4.360  16.891  13.186  0.0225  0.1520  0.2916
18264W        W38544  19.893   7.456   2.487  0.0982  0.3652  0.0432
18265W        W38545   1.043   2.432   1.906  0.0464 -0.1371  0.1874
18266W        W38546   9.931  18.084   3.956  0.0620  0.1370  0.1263
18267W        W38547   7.217   5.940  11.557 -0.0085 -0.0570  0.0318
18268W        W38548  15.162  16.914   3.835 -0.4343 -0.1990  0.0261
18269W        W38549  15.458  12.000   2.788  0.1097  0.2978  0.1041
18270W        W38550   8.742  18.061  11.815  0.0843  0.0869  0.0713
18271W        W38551   5.519   2.347   1.049 -0.0929 -0.0310 -0.4876
18272W        W38552   1.102   8.786  11.659  0.3839  0.1325  0.1766
18273W        W38553   1.131  16.206   9.732  0.0560  0.0287  0.1070
18274W        W38554   5.461   1.830   0.998  0.0435 -0.0763 -0.2420
18275W        W38555   4.165  10.907   3.603  0.0662 -0.0613  0.1016
18276W        W38556   2.803   7.675   2.230  0.2603 -0.0599 -0.2729
18277W        W38557  10.624   9.511   4.060 -0.1403 -0.0357 -0.1203
18278W        W38558   2.648   5.483   1.676  0.0803  0.3873  0.0130
18279W        W38559   0.845  19.848  13.214 -0.1144  0.1227  0.0225
18280W        W38560   9.859  10.964   2.146 -0.1853 -0.3100 -0.0926
18281W        W38561  14.889   3.831   0.588 -0.0226  0.0930  0.1016
18282W        W38562  19.043   3.142  13.579 -0.1306 -0.3921 -0.0766
18283W        W38563   2.232   4.419  10.382  0.1546  0.1359 -0.3420
18284W        W38564  16.559  18.185   0.845 -0.2652 -0.0924 -0.1956
18285W        W38565  18.835  16.556   2.760  0.2007  0.0949  0.3745
18286W        W38566  14.011   1.463   9.814  0.1099 -0.0043  0.1608
18287W        W38567   7.983  12.074   4.593 -0.1307  0.0682  0.2538
18288W        W38568  17.879   9.624  11.171  0.0438 -0.0635  0.3480
18289W        W38569   2.626  11.827  11.609  0.0475 -0.1214 -0.0329
18290W        W38570   4.940   5.788  11.222 -0.1056  0.1952 -0.1371
18291W        W38571   9.261  10.630  13.346 -0.0202  0.1590  0.0943
18292W        W38572  11.471  10.438  12.946  0.2651 -0.0600 -0.1061
18293W        W38573  18.318   7.383   4.227  0.0491  0.4522 -0.2235
18294W        W38574  13.877  16.431  11.307 -0.2813 -0.0606  0.1506
18295W        W38575   5.538   3.871  13.153  0.0001  0.1763  0.0238
18296W        W38576  10.496   9.938   3.210  0.0598  0.1908 -0.2511
18297W        W38577   9.363   4.717  11.766  0.0028  0.2780  0.0216
18298W        W38578  19.162  19.874   0.637  0.1903 -0.0407  0.1769
18299W        W38579   7.983   1.831  11.777 -0.0332  0.0448  0.4107
18300W        W38580   6.022  12.523   3.145 -0.0716  0.0980 -0.0296
18301W        W38581  13.956  10.455   2.311 -0.1853 -0.2801  0.1231
18302W        W38582  14.262  13.480   0.642  0.2774 -0.2363  0.3316
18303W        W38583  11.946   3.088   2.602  0.0451 -0.0788 -0.1830
18304W        W38584  18.176   9.729   2.157  0.0092  0.4028 -0.0946
18305W        W38585   0.546   1.756  12.553 -0.0187 -0.1534 -0.2521
18306W        W38586   0.792   0.872  11.155  0.0941 -0.0209  0.2340
18307W        W38587  11.182  16.250   2.308  0.1139 -0.2414  0.0868
18308W        W38588   1.169  16.993  12.919 -0.0412 -0.0240  0.0019
18309W        W38589  14.861   2.543  10.629 -0.2076 -0.2773  0.0739
18310W        W38590   1.839   8.437   3.390 -0.0996  0.0960 -0.0887
18311W        W38591  17.953  13.914  12.108  0.1111  0.1205  0.1692
18312W        W38592  15.915   8.940   2.485 -0.0452  0.0012  0.1384
18313W        W38593  11.809   0.499  11.350  0.1814  0.2151 -0.0364
18314W        W38594  13.930   8.276   3.518  0.1906  0.1640  0.0058
18315W        W38595  17.312  16.350  13.506 -0.1377  0.0355  0.0475
18316W        W38596  18.932  18.470   0.258 -0.3831 -0.2555  0.1727
18317W        W38597  17.457  14.852  11.474  0.0888 -0.1728  0.1516
18318W        W38598  11.763  11.811  11.618 -0.0481 -0.1765 -0.1792
18319W        W38599  10.001   6.430   2.778 -0.0992 -0.1549 -0.2409
18320W        W38600   3.634  11.848  12.245 -0.0513 -0.0277  0.0888
18321W        W38601   3.686  16.525   9.498  0.3470  0.1956 -0.1551
18322W        W38602  18.532   1.778  13.314 -0.1550  0.2651  0.0887
18323W        W38603   8.109   3.161   0.824  0.1675  0.2063 -0.0601
18324W        W38604   0.070  17.135  10.935 -0.1882 -0.0374 -0.0272
18325W        W38605   7.201  18.000   5.305  0.0005  0.2721 -0.1870
18326W        W38606   4.139   6.981   4.357 -0.0593 -0.1441 -0.2237
18327W        W38607   9.105   3.581  13.369 -0.0047 -0.0557  0.2255
18328W        W38608  16.505  14.594   3.513 -0.2860 -0.0831  0.1052
18329W        W38609  11.002  13.662  11.055 -0.3279 -0.4510 -0.2206
18330W        W38610   9.717   2.467   0.596  0.0946 -0.1442  0.0640
18331W        W38611   7.578   1.929   0.987  0.0457  0.0653 -0.0169
18332W        W38612  16.504  11.185  10.826  0.2092  0.2141 -0.0807
18333W        W38613  10.594  17.304   1.651 -0.1401  0.1020  0.1886
18334W        W38614  16.586   8.970   2.854 -0.1013  0.0687  0.3645
18335W        W38615   1.059  10.405   2.357  0.1799  0.1675 -0.1361
18336W        W38616   7.904   6.216  10.709  0.2353 -0.3000  0.0605
18337W        W38617   8.148   8.403  13.192 -0.2111  0.3113 -0.0884
18338W        W38618   4.563  17.928  11.220  0.3021  0.1876 -0.2370
18339W        W38619   1.405  18.617  12.383 -0.0253 -0.1798  0.1847
18340W        W38620  16.329  18.748  11.277 -0.0999  0.0701 -0.1807
18341W        W38621   7.517  14.225  10.164 -0.2211  0.1821  0.0077
18342W        W38622  14.983   4.160  10.846  0.2761  0.1466 -0.2558
18343W        W38623  13.179  10.427   1.228 -0.1184  0.4379 -0.3898
18344W        W38624   1.065   0.664   1.404  0.1741  0.0661 -0.2164
18345W        W38625   5.337  10.444   4.009 -0.0951 -0.1827  0.1431
18346W        W38626   6.203  19.936  11.326  0.2268  0.1304  0.0172
18347W        W38627  14.734   6.079  12.413 -0.3023 -0.2094  0.2079
18348W        W38628  15.221   1.607  10.646  0.3718 -0.2938 -0.1278
18349W        W38629   9.166   3.605  12.411  0.0480  0.0844 -0.3305
18350W        W38630   1.311   7.450   0.404 -0.3705  0.0344 -0.2189
18351W        W38631  13.383   4.693  10.472 -0.0629 -0.2725  0.1749
18352W        W38632   7.669   3.404   1.139 -0.1720 -0.0319  0.2294
18353W        W38633   4.497   0.133  11.885 -0.0081 -0.0644  0.1076
18354W        W38634   5.251  14.554   1.454 -0.2649  0.5261  0.0510
18355W        W38635  18.365   4.854  10.012 -0.3452  0.1828 -0.1777
18356W        W38636   4.847   0.929   3.296  0.0007  0.0354  0.2109
18357W        W38637   8.022  14.381   2.674  0.2137 -0.1343 -0.2306
18358W        W38638  18.317   0.364  10.259  0.0433  0.1240  0.0197
18359W        W38639   9.678  16.235  11.062  0.2288  0.0807 -0.0579
18360W        W38640   9.435  18.665  13.760  0.3811 -0.0442 -0.0184
18361W        W38641  10.505  17.446   3.575 -0.1060 -0.1025  0.1309
18362W        W38642  18.856  12.398   3.027 -0.3089 -0.2499  0.2501
18363W        W38643  11.415   1.424   1.580 -0.4423  0.0499 -0.1721
18364W        W38644   1.647   6.240  11.466 -0.1735 -0.1250 -0.0353
18365W        W38645  12.908   8.163  12.598  0.0243  0.1793 -0.0617
18366W        W38646   0.782  17.579  12.882  0.0352 -0.1014  0.2383
18367W        W38647   5.703  16.406   0.477 -0.3043  0.0825  0.0809
18368W        W38648  18.247   5.580   0.001 -0.0557 -0.0212 -0.1113
18369W        W38649   3.788  12.295  11.707 -0.3387 -0.2053  0.0683
18370W        W38650   0.508   7.423   2.130  0.3558  0.1171  0.1401
18371W        W38651   7.295  18.603  11.983 -0.0006 -0.0487 -0.1634
18372W        W38652   3.087  17.294   3.823 -0.0094  0.0734  0.0248
18373W        W38653   0.139  12.015  11.493  0.2269  0.0464  0.0823
18374W        W38654   1.842  10.866   2.692  0.0561 -0.0912 -0.3688
18375W        W38655  19.499  12.478   4.100 -0.1320  0.1587 -0.3088
18376W        W38656   4.653   6.028  12.077  0.1302  0.2823 -0.1102
18377W        W38657  12.609  15.484  12.670 -0.2366  0.1846 -0.1298
18378W        W38658   5.711  11.008   2.953 -0.0823 -0.0800  0.2273
18379W        W38659   8.524   6.564   0.503 -0.1409 -0.4117  0.0412
18380W        W38660  10.947   1.701   3.741 -0.2978 -0.0079  0.1178
18381W        W38661  16.237  10.403  11.597 -0.2053 -0.2668  0.1886
18382W        W38662  13.965  17.592  12.164  0.0384  0.1145 -0.0355
18383W        W38663  19.245  15.755   0.328 -0.1439  0.2601  0.1673
18384W        W38664  19.480  17.177  13.027  0.3540 -0.0094  0.0721
18385W        W38665   9.636  12.804   5.455 -0.0647  0.0316 -0.1142
18386W        W38666   4.019  11.796  12.652 -0.2047  0.0869 -0.2454
18387W        W38667  14.916   5.623  12.511 -0.0585 -0.0996  0.2975
18388W        W38668  16.814  11.562  13.756 -0.1210 -0.0819 -0.0544
18389W        W38669  12.142  16.581   2.885 -0.0677  0.0778 -0.1534
18390W        W38670  13.080  12.165   0.777  0.1314 -0.4352 -0.0663
18391W        W38671   0.963  10.254   0.844  0.1929 -0.0780  0.0584
18392W        W38672   6.904   0.797   2.942 -0.0008  0.3257 -0.1430
18393W        W38673  12.498   2.370   0.656  0.0232 -0.3666 -0.3560
18394W        W38674   8.984  12.534   4.064  0.1945  0.0425 -0.0828
18395W        W38675   3.987  19.083   1.887  0.2655  0.0087  0.1343
18396W        W38676  15.616   5.315   1.524  0.4038 -0.1509 -0.2465
18397W        W38677  12.041   9.071   1.317 -0.1073  0.1242  0.1966
18398W        W38678   6.783  19.764   2.892  0.4564 -0.1150  0.0243
18399W        W38679   5.016  12.096   3.304  0.1089 -0.1064  0.1531
18400W        W38680  15.708  16.612  11.695 -0.0096  0.0423 -0.1635
18401W        W38681   8.821   7.741   1.825 -0.0345  0.0519 -0.0137
18402W        W38682  14.571   9.858  10.715 -0.1099  0.1076  0.0410
18403W        W38683  14.825  17.660   3.432  0.0763 -0.2151 -0.1409
18404W        W38684  13.352   2.929  13.481 -0.1447 -0.1929  0.0740
18405W        W38685  11.726   3.569  11.591  0.1035  0.0174 -0.0014
18406W        W38686  12.401   8.456  11.901  0.2600 -0.0786  0.0857
18407W        W38687  14.555   7.053   0.811 -0.3309  0.1779 -0.2369
18408W        W38688   8.862   9.059   2.672  0.5154 -0.0049  0.0963
18409W        W38689   2.871  11.224  12.009 -0.0482 -0.0738 -0.0672
18410W        W38690   9.831   8.068  13.465  0.0865 -0.0074  0.2125
18411W        W38691  19.272   7.216  11.409 -0.1085  0.1637 -0.0706
18412W        W38692   6.110  11.022  12.179 -0.1765  0.6096  0.2124
18413W        W38693   1.216   2.604   9.735 -0.0758 -0.0637 -0.0023
18414W        W38694   0.776  12.904   2.091  0.3450  0.1887  0.0660
18415W        W38695   8.659   7.722   0.981 -0.1503 -0.2326  0.1043
18416W        W38696   0.863  17.672   2.985  0.0595  0.0099  0.3018
18417W        W38697   0.497   8.934  12.158  0.2422 -0.1117  0.1415
18418W        W38698   1.972   4.760   1.048  0.0000  0.0067 -0.3504
18419W        W38699  11.450  15.323  13.645  0.3219  0.3199 -0.0924
18420W        W38700  14.402  19.584   2.744  0.3308  0.1416 -0.0822
18421W        W38701  12.734  14.017   2.071 -0.0763  0.2288  0.4049
18422W        W38702  15.700  16.024   1.416 -0.3266 -0.2353  0.2304
18423W        W38703   6.497  12.131   2.427 -0.3705 -0.2799 -0.0480
18424W        W38704   2.870   9.055   2.934 -0.0380  0.0877 -0.0984
18425W        W38705   5.282   5.549   2.582 -0.0617 -0.0795  0.1929
18426W        W38706   0.728   5.699  10.811  0.2167 -0.0179  0.2110
18427W        W38707   6.118   7.007   2.086  0.4291  0.1398  0.2346
18428W        W38708   2.231  15.601   3.642  0.3123 -0.3598  0.1479
18429W        W38709   3.522  19.403   0.638  0.4612 -0.0059 -0.0549
18430W        W38710  18.318  19.235   3.204  0.1278 -0.0054 -0.0703
18431W        W38711  13.030  15.962   4.509 -0.0022  0.0266  0.0831
18432W        W38712   4.997   6.073   1.491 -0.0139 -0.0956 -0.0786
18433W        W38713  17.276   7.348  11.152 -0.2723 -0.1791 -0.3752
18434W        W38714   6.909   8.508   4.230 -0.1548 -0.1757  0.0990
18435W        W38715  17.574  10.668   2.164 -0.1916 -0.1673 -0.0163
18436W        W38716  11.709   8.314  13.308 -0.1375  0.4063 -0.0431
18437W        W38717  17.982   2.973   9.941  0.0871  0.0254  0.0991
18438W        W38718   2.340   1.185  11.715 -0.1811 -0.0366  0.0314
18439W        W38719   6.240   7.093  13.725 -0.0555  0.3276 -0.0427
18440W        W38720  13.146   1.583   4.120  0.3649 -0.2633 -0.1842
18441W        W38721  16.899  13.954  13.602  0.0531 -0.0676 -0.0599
18442W        W38722   8.463   1.775   2.499  0.3641 -0.2933  0.0755
18443W        W38723  15.589   6.880   2.972 -0.0102 -0.3739  0.0641
18444W        W38724   4.816   7.511   4.119 -0.0920 -0.0077 -0.0032
18445W        W38725   8.333   8.405   0.637 -0.1399 -0.0260  0.0890
18446W        W38726   8.424   3.323  11.029 -0.0624 -0.1119 -0.0472
18447W        W38727   1.907  11.160  12.933  0.1848  0.1095  0.0197
18448W        W38728   7.857  19.576  13.523  0.1355  0.0376  0.0374
18449W        W38729  16.244   2.597  11.948  0.1401 -0.0755  0.0455
18450W        W38730  12.490  10.031   1.423  0.0163  0.0004 -0.1994
18451W        W38731   2.524   5.297   1.188  0.2108  0.0915 -0.1054
18452W        W38732   8.225   7.505  12.024 -0.3500 -0.0513 -0.0850
18453W        W38733   0.667   3.394   2.064 -0.0521  0.1209  0.0578
18454W        W38734   9.119  14.876  13.004 -0.0399 -0.1584  0.2197
18455W        W38735  19.094  11.447  10.492  0.0404 -0.1225 -0.0512
18456W        W38736  12.604   8.368   0.237 -0.0573 -0.2043  0.1540
18457W        W38737   1.495  18.114  13.794 -0.0030 -0.2578  0.0595
18458W        W38738  17.790  11.209  12.836  0.0385 -0.1523 -0.1759
18459W        W38739   2.993  18.332   1.356 -0.2036  0.1847  0.0057
18460W        W38740   0.973   8.998  13.198  0.0758  0.2848  0.0692
18461W        W38741  10.042  10.147  12.459 -0.2303  0.0335  0.1336
18462W        W38742  18.286  11.625  12.951  0.1388 -0.1891  0.2531
18463W        W38743  14.086   3.287  11.914 -0.1636 -0.2220 -0.1189
18464W        W38744  16.442   9.363  13.542  0.2286 -0.1733 -0.0123
18465W        W38745  16.708   9.366   9.833  0.3238  0.0288 -0.0255
18466W        W38746   4.775   6.967   2.024  0.0914  0.3371 -0.0019
18467W        W38747   1.157   2.364   3.722 -0.1442  0.0595 -0.1355
18468W        W38748   3.611   5.322   1.531  0.1350  0.4696  0.1544
18469W        W38749   0.554  15.123   2.877 -0.1091  0.1182  0.1037
18470W        W38750  18.012  11.452   4.163 -0.0915 -0.1069  0.3251
18471W        W38751   8.413  16.084   2.236  0.0294 -0.1494 -0.0794
18472W        W38752  11.565   7.301  12.893  0.0964 -0.2654 -0.0362
18473W        W38753  19.424   9.330   1.469 -0.1759  0.2156 -0.1030
18474W        W38754  18.772  16.799   3.203  0.0461  0.1517 -0.0677
18475W        W38755   2.198  13.425   1.151 -0.0657 -0.3208 -0.1989
18476W        W38756   1.912  15.767   2.727  0.2361  0.0383 -0.3862
18477W        W38757  15.684  16.103  13.233  0.0007  0.2967  0.0990
18478W        W38758   3.399  18.025   2.556 -0.0513 -0.0967  0.1044
18479W        W38759   9.987  12.505   2.496 -0.3273  0.0678 -0.4156
18480W        W38760   9.269  18.163   3.564 -0.2504  0.1711 -0.0445
18481W        W38761   4.340  15.639   3.008 -0.0134 -0.2860  0.0926
18482W        W38762   8.993  18.317   2.626 -0.0282  0.0710 -0.0437
18483W        W38763  15.963   5.985  10.727  0.3588  0.1437 -0.1247
18484W        W38764   1.018  16.781   3.215  0.2314  0.2062 -0.1051
18485W        W38765   7.763  19.471   2.782  0.1188 -0.2506 -0.1136
18486W        W38766   4.532  10.991  11.671  0.0044  0.2530 -0.1519
18487W        W38767   4.309  18.475   0.622 -0.2156  0.1824 -0.2241
18488W        W38768  16.171  15.061  11.474 -0.1914  0.0948 -0.1078
18489W        W38769  19.332   7.742  11.420 -0.1230  0.2726  0.1717
18490W        W38770  18.582   9.625  11.970  0.5252 -0.0420 -0.1729
18491W        W38771  17.046   8.763   2.808 -0.2480 -0.2066  0.0732
18492W        W38772   7.290   7.342  10.922  0.0685 -0.0288 -0.3626
18493W        W38773  19.881   7.986   0.734  0.1541 -0.0359 -0.0473
18494W        W38774   7.791  16.688   0.945  0.0034 -0.0870  0.1403
18495W        W38775   8.306   4.363   3.987  0.1787 -0.2790  0.1305
18496W        W38776  18.332  18.780   3.715 -0.1821  0.0252 -0.3216
18497W        W38777  19.564  17.883  13.568  0.2821 -0.4123  0.1232
18498W        W38778   9.290   9.791   4.476  0.1071  0.0992 -0.0531
18499W        W38779   4.174  14.541   2.169  0.0582 -0.0971 -0.0207
18500W        W38780  13.980  19.141   3.522 -0.0119 -0.1815 -0.0256
18501W        W38781  11.524  18.361   0.871 -0.1389  0.0129 -0.1258
18502W        W38782  18.252  13.686  10.276 -0.0440 -0.1892  0.0471
18503W        W38783  19.646  15.090  11.386 -0.0269  0.0643 -0.0103
18504W        W38784   6.899  11.419   2.220 -0.1159 -0.0488 -0.0355
18505W        W38785   6.393  14.540  12.248 -0.0351  0.1198  0.0744
18506W        W38786  13.179  11.274  10.260  0.1000 -0.1481  0.0567
18507W        W38787  14.426   8.376   0.455  0.0153  0.2580  0.2507
18508W        W38788  10.064  14.635   3.781  0.2354 -0.3576 -0.3339
18509W        W38789   8.481  18.171  10.886  0.3138  0.0247  0.4033
18510W        W38790   8.570   6.080  11.343  0.0088 -0.1693 -0.1780
18511W        W38791  19.674   0.678   1.904 -0.0734 -0.0685  0.0700
18512W        W38792   9.453  14.684   0.746  0.0967 -0.1281 -0.0180
18513W        W38793   9.302   1.803   3.581 -0.2660  0.0180 -0.0354
18514W        W38794   9.826   1.323  10.644  0.0370 -0.2753  0.1487
18515W        W38795   4.389   6.654   3.375 -0.0045  0.1636 -0.1496
18516W        W38796   4.712   1.932   3.107  0.2509 -0.0751  0.3521
18517W        W38797  19.534   3.209  13.487  0.2002  0.0480  0.0925
18518W        W38798   8.962  15.253   3.927  0.1588 -0.0088  0.2322
18519W        W38799   8.771   3.352  10.716  0.2102  0.0317  0.2135
18520W        W38800   1.619  12.388  13.229 -0.0260  0.0634 -0.1685
18521W        W38801  19.744  13.009  12.699  0.1317  0.3323 -0.1192
18522W        W38802  11.789   4.060   4.223  0.0139 -0.1779 -0.0907
18523W        W38803   7.982  15.746   2.059  0.4377  0.0823 -0.1659
18524W        W38804  10.156   5.666  11.924  0.0779  0.1368  0.2202
18525W        W38805   5.372   5.930   3.460 -0.0449  0.0752 -0.0932
18526W        W38806  12.851   9.677  11.902 -0.2849  0.0676 -0.0170
18527W        W38807  12.295   3.293  13.087 -0.1379  0.0136  0.0183
18528W        W38808  11.203   1.893  10.340  0.0012 -0.0597  0.0944
18529W        W38809   1.435   1.282   0.430  0.0022  0.4412  0.1418
18530W        W38810  17.217  13.661   0.586  0.1720  0.1318  0.1508
18531W        W38811   1.034  16.659   9.544 -0.0088  0.3423 -0.1121
18532W        W38812   6.414  12.700   1.298 -0.1520 -0.1923  0.0955
18533W        W38813   7.938   7.417  10.159  0.1101 -0.3372  0.3509
18534W        W38814  16.703  13.026  13.375  0.1403 -0.0726  0.1562
18535W        W38815   1.325   5.923  13.635 -0.2295 -0.1155 -0.0549
18536W        W38816  17.327  11.427   2.718 -0.1627 -0.0009 -0.1294
18537W        W38817  15.318   1.116  10.557 -0.2622 -0.0178 -0.1061
18538W        W38818  15.445   8.793   1.171 -0.0893 -0.0887 -0.0285
18539W        W38819  18.094   1.239   4.281 -0.1345  0.1491  0.0287
18540W        W38820   0.732  17.681   2.452  0.0895 -0.0997 -0.1224
18541W        W38821   2.624  17.417  12.915  0.2792 -0.1374 -0.4953
18542W        W38822  13.006   5.710   2.030 -0.2333 -0.2549  0.2415
18543W        W38823  14.590  14.418   0.377 -0.1055 -0.1154  0.2761
18544W        W38824  10.988   1.669   0.088  0.2272 -0.0286 -0.0620
18545W        W38825   9.490   4.244   0.256  0.1401 -0.2699 -0.0994
18546W        W38826   2.907  12.373  11.528  0.0621 -0.1889  0.0142
18547W        W38827   4.344   5.816   3.481  0.1252  0.1129 -0.2446
18548W        W38828  18.195  14.810   2.939 -0.2899 -0.0757 -0.3933
18549W        W38829  17.244   8.895  13.484 -0.1725 -0.3937  0.3928
18550W        W38830   4.113   0.102  11.517 -0.0344  0.3181  0.3581
18551W        W38831  17.442  16.572   0.845  0.1773 -0.1082 -0.6006
18552W        W38832   9.690  19.633  11.768 -0.1622 -0.1706  0.0231
18553W        W38833   6.265  14.830  10.738 -0.2761  0.1913  0.2440
18554W        W38834   9.594  19.855   0.496  0.2538  0.0305 -0.3800
18555W        W38835   0.110  19.394  11.507 -0.1069 -0.1180 -0.4397
18556W        W38836  17.752   7.005  13.304  0.0309  0.1377 -0.3043
18557W        W38837  13.911  16.978  11.082 -0.1790 -0.2302 -0.1444
18558W        W38838  12.723  15.378   3.636 -0.1817 -0.1631 -0.0753
18559W        W38839  15.847  15.824   3.763  0.2429 -0.1496 -0.0881
18560W        W38840  19.808   2.191  12.572  0.1219 -0.0065 -0.0114
18561W        W38841  16.028   6.665   1.293  0.2815  0.1273 -0.6082
18562W        W38842   7.851  13.556   2.042 -0.3058  0.0082  0.0272
18563W        W38843   5.889  14.540   3.238 -0.3356 -0.2138  0.0278
18564W        W38844   0.601  19.421  13.420  0.1587 -0.2061  0.3032
18565W        W38845   0.036   3.260   3.100  0.0301 -0.0346 -0.0337
18566W        W38846  11.736  19.845  10.515  0.1154 -0.0260 -0.3276
18567W        W38847   0.995  10.294  10.146  0.0950 -0.0135  0.3459
18568W        W38848  14.497  14.593  13.741 -0.1785 -0.0901  0.3843
18569W        W38849  18.435  12.210  10.295 -0.2437 -0.1102  0.1330
18570W        W38850  18.491   9.278   2.090 -0.1138 -0.2256  0.1698
18571W        W38851  19.805   9.036   3.131 -0.0785  0.1792  0.0262
18572W        W38852  13.952  16.218   1.486  0.1766  0.1182 -0.3284
18573W        W38853  12.421  16.023  10.540 -0.3151  0.1730 -0.2785
18574W        W38854  14.570  15.258   0.094 -0.0277  0.2169  0.0126
18575W        W38855   2.344   8.477  12.696  0.1801 -0.0845  0.0461
18576W        W38856   5.080  19.217  10.582 -0.0377 -0.0561  0.2838
18577W        W38857   9.521   8.633   0.602 -0.1044  0.1371 -0.0637
18578W        W38858  18.028  10.418   2.508 -0.1873  0.2134  0.1030
18579W        W38859  16.597   8.815  12.768 -0.1729 -0.1775  0.0202
18580W        W38860  13.550   5.863  11.362  0.1023  0.0395  0.2648
18581W        W38861  15.648  10.206   1.923 -0.1864  0.1584  0.0256
18582W        W38862  16.025  14.841   2.839 -0.2582 -0.1938 -0.0045
18583W        W38863  15.376   7.480   2.326  0.0440 -0.3182  0.1487
18584W        W38864   4.486  19.217  12.058 -0.1498  0.4025 -0.3875
18585W        W38865   2.832   8.950  11.848  0.0400  0.2192 -0.1707
18586W        W38866   4.893   0.155  10.041  0.0483 -0.2073 -0.3050
18587W        W38867  11.579   2.495   0.479 -0.0280  0.0560 -0.0485
18588W        W38868   7.316  15.593   2.704 -0.1718 -0.1068  0.3289
18589W        W38869   1.931   4.547   9.893 -0.0245  0.1157 -0.0541
18590W        W38870  13.049   6.205   0.057 -0.1102  0.0395 -0.0458
18591W        W38871   5.627   6.107   1.520 -0.0863 -0.0720  0.1677
18592W        W38872  14.321   8.016  10.473 -0.1480 -0.1800  0.2051
18593W        W38873  13.125  11.595   0.227  0.0157 -0.1354 -0.1464
18594W        W38874  12.902  16.330   3.455  0.0897 -0.2738 -0.1884
18595W        W38875   3.388   4.935   1.251 -0.2496  0.0956  0.0802
18596W        W38876   1.380   4.420   2.396 -0.2784 -0.4122 -0.0548
18597W        W38877  12.598   7.281   1.719  0.0892 -0.0747  0.1495
18598W        W38878  18.761   8.025  10.828 -0.1013 -0.0733  0.1430
18599W        W38879  10.075   5.903  11.532 -0.2694 -0.1826  0.0394
18600W        W38880  10.012  13.740   0.544 -0.1857  0.1004 -0.3232
18601W        W38881  11.871   3.286  13.394 -0.0507 -0.1868  0.0494
18602W        W38882   5.251  16.858   2.219 -0.0900  0.0391  0.2166
18603W        W38883   5.401   4.141  12.656  0.0267  0.1029  0.0368
18604W        W38884  11.449  14.381   2.547  0.0997 -0.1112 -0.1695
18605W        W38885  12.419   6.685   0.593  0.1273 -0.0463  0.2193
18606W        W38886   3.387  13.268   4.481 -0.3340  0.0012  0.1752
18607W        W38887   1.362   2.077  10.383  0.0297 -0.0613  0.2310
18608W        W38888  12.358   1.615   0.271  0.0014 -0.1556 -0.1520
18609W        W38889  16.901  12.800   9.794 -0.0511 -0.2716 -0.2822
18610W        W38890   3.647   3.638  11.571 -0.3315 -0.0077  0.2389
18611W        W38891   4.330   0.323   2.478 -0.1036 -0.2537 -0.1509
18612W        W38892  15.281  11.930  11.877  0.1034 -0.0135  0.0499
18613W        W38893  13.969  13.153  10.867  0.0683  0.0833 -0.1523
18614W        W38894  16.272   8.453   0.649  0.0424  0.2483 -0.1866
18615W        W38895   4.627  17.840   0.168 -0.1679 -0.1720 -0.1392
18616W        W38896   2.932   6.533  13.464 -0.0197  0.0366 -0.2044
18617W        W38897  19.941  14.680  13.464 -0.0163 -0.0153 -0.3725
18618W        W38898   6.215   8.888   2.549  0.1783 -0.3638  0.1026
18619W        W38899  15.217  10.432   1.938  0.2581  0.1661  0.2572
18620W        W38900  15.076   6.068   4.635  0.0705  0.0982  0.1397
18621W        W38901  18.817   2.122   1.282  0.0769  0.0042 -0.3614
18622W        W38902   7.320   9.924   2.930  0.3269 -0.1338 -0.0601
18623W        W38903  10.027   4.134   2.160  0.1374  0.1592 -0.1264
18624W        W38904  19.285   1.720  11.973 -0.0117  0.0998  0.0771
18625W        W38905   7.181   2.199  11.612 -0.0764 -0.2888 -0.0057
18626W        W38906   0.480   9.031  13.226  0.0746  0.0143 -0.1826
18627W        W38907   6.624  14.477  10.215 -0.0310  0.3287  0.2624
18628W        W38908  18.964  11.001  12.411 -0.1137 -0.2995 -0.2644
18629W        W38909   6.664  14.537  13.843  0.1334 -0.3150  0.3072
18630W        W38910  10.304   6.008   2.990  0.1100 -0.1225 -0.0384
18631W        W38911  12.831  18.483   2.097 -0.1718 -0.0563  0.2031
18632W        W38912   1.123  17.826  12.543 -0.2048  0.0339  0.2742
18633W        W38913   3.167  18.524   4.160 -0.1113 -0.0312 -0.0701
18634W        W38914  13.915  16.030  10.264 -0.2047  0.0658  0.0244
18635W        W38915   8.634  17.293  12.337  0.3822  0.0061  0.2051
18636W        W38916  17.020   9.879  12.081 -0.0977  0.1196 -0.1734
18637W        W38917  19.296  16.883   3.151 -0.1285  0.1482 -0.0123
18638W        W38918  13.351  15.234   0.278  0.0892  0.1125 -0.1390
18639W        W38919  17.162   5.635   3.469  0.0432 -0.0349  0.2524
18640W        W38920   6.940   3.298  10.728 -0.1187 -0.0766  0.0027
18641W        W38921   1.648  17.717   4.248  0.0106 -0.0265 -0.1679
18642W        W38922   0.044   6.410   3.485  0.3467 -0.3368 -0.0301
18643W        W38923   0.432   3.807   1.521 -0.0898 -0.1553  0.2001
18644W        W38924   5.908   2.555  12.736 -0.1265 -0.1124 -0.1266
18645W        W38925  13.833   2.216   2.143  0.1124 -0.0215 -0.0569
18646W        W38926   3.022  14.833   3.878  0.1560  0.0248  0.1154
18647W        W38927   5.040   9.822   2.602 -0.2577  0.3078  0.3003
18648W        W38928   4.733   0.687   0.265  0.2844  0.0794 -0.0900
18649W        W38929   5.232   0.608   0.319  0.0712  0.0051  0.0245
18650W        W38930  15.282  15.503   0.633  0.0391  0.1037 -0.0695
18651W        W38931  10.040   0.147   0.438  0.2173  0.0360 -0.1878
18652W        W38932  12.290  15.302  11.748  0.0728 -0.0205  0.1064
18653W        W38933  17.456   9.023   2.624  0.3873  0.2096 -0.1849
18654W        W38934  17.454   9.108   0.036 -0.1512  0.2269 -0.2461
18655W        W38935  10.730  12.272  10.711  0.2466  0.0903 -0.1067
18656W        W38936  13.552   6.142  13.715  0.1096 -0.1242 -0.1694
18657W        W38937   1.807   0.032  11.896  0.1157 -0.1251 -0.0483
18658W        W38938   4.734  14.492   0.462  0.0796 -0.0010  0.0956
18659W        W38939  19.811  10.149   1.103  0.1518 -0.0551  0.0285
18660W        W38940   0.075   2.468   3.611 -0.2419  0.1362  0.1637
18661W        W38941  17.945  18.473  10.295 -0.0804  0.0432 -0.0169
18662W        W38942  16.396  14.872   3.137  0.1444 -0.1134  0.1442
18663W        W38943   3.570  16.614   2.991 -0.1679 -0.1908 -0.1546
18664W        W38944   9.233   1.303   3.741 -0.1214  0.0431 -0.0660
18665W        W38945   9.193  19.600  13.089 -0.1466  0.1234  0.1352
18666W        W38946  19.588   3.825   2.596  0.1963 -0.2270 -0.4474
18667W        W38947  14.413  12.228   2.100  0.3628  0.1712 -0.1185
18668W        W38948   7.467   7.797  11.658 -0.0507 -0.0265 -0.0377
18669W        W38949  11.379  14.296  12.643  0.0129 -0.0019  0.1703
18670W        W38950  17.589   5.368   3.413 -0.0109 -0.0883 -0.0539
18671W        W38951  12.218  12.082  12.567 -0.1198 -0.1532 -0.1456
18672W        W38952  11.081  15.219   2.145 -0.3643 -0.1173  0.4859
18673W        W38953   1.056  17.613   3.422 -0.1870 -0.0112  0.1179
18674W        W38954   3.635  14.425  12.303  0.1670 -0.0169  0.1123
18675W        W38955  12.282   7.701  10.402 -0.0268  0.1241  0.0444
18676W        W38956  16.615   2.635   3.237 -0.1240  0.1694 -0.0914
18677W        W38957   1.871   4.711  12.399 -0.0855 -0.0224 -0.1509
18678W        W38958   5.039  11.492  11.338 -0.0547  0.0860  0.0627
18679W        W38959   9.888   4.683   4.773 -0.1445 -0.0507 -0.2200
18680W        W38960   7.976   1.893   0.680  0.1848  0.4772  0.0797
18681W        W38961  13.842   8.270  10.211  0.0160 -0.0335 -0.0484
18682W        W38962  11.518  10.697   1.515 -0.1064  0.0216 -0.0479
18683W        W38963  17.657   2.816   3.292  0.1317 -0.0487  0.0260
18684W        W38964   0.481   3.376   4.893  0.1482 -0.2143  0.2218
18685W        W38965   0.880  18.189   1.593 -0.0729 -0.1039  0.1906
18686W        W38966   6.730  17.094   1.021  0.0557 -0.1172  0.0457
18687W        W38967   6.977   6.811   1.318 -0.0137 -0.2357 -0.2256
18688W        W38968   0.538   1.557  10.315 -0.2345 -0.2778 -0.2055
18689W        W38969  12.388  12.768  13.424  0.5366 -0.0294 -0.0180
18690W        W38970   3.451   4.070   1.084 -0.0885 -0.0350 -0.2507
18691W        W38971  11.535   0.945  11.972  0.2775 -0.0202 -0.1537
18692W        W38972  15.382  19.889   3.542  0.1078  0.2802 -0.1244
18693W        W38973   1.605   0.753   1.677 -0.2337 -0.2489  0.0387
18694W        W38974  19.257  13.938  12.423  0.0169 -0.0075  0.0805
18695W        W38975   3.822   8.978   1.753 -0.0038  0.1133 -0.1224
18696W        W38976  17.448   7.893   1.700 -0.3313 -0.0538 -0.2364
18697W        W38977  19.920  19.955  13.237  0.1348 -0.0714  0.0375
18698W        W38978   3.662  19.769  12.296  0.1770 -0.0938 -0.3790
18699W        W38979  17.259  16.955  13.256  0.1706 -0.0538 -0.2530
18700W        W38980   0.407   5.904   1.717 -0.1560  0.0954 -0.0804
18701W        W38981  18.886   2.854   4.002  0.1489 -0.2479  0.0390
18702W        W38982  12.309   5.715  10.724 -0.3461  0.1440  0.0822
18703W        W38983  17.756  18.442   3.544  0.2134 -0.2004  0.3751
18704W        W38984   9.117  16.606  10.934  0.0614  0.0835  0.2255
18705W        W38985  18.025   7.438   1.734 -0.1948  0.0567 -0.1955
18706W        W38986   7.260   5.655   0.015 -0.0799  0.1038  0.1029
18707W        W38987   1.386  14.681  12.877 -0.1158 -0.4270 -0.0841
18708W        W38988   3.737   6.299   1.585  0.0512 -0.1531 -0.1776
18709W        W38989   0.406  10.241   0.389 -0.0444 -0.1334  0.3210
18710W        W38990  12.930   3.784   3.106 -0.1940 -0.1946  0.1560
18711W        W38991   4.074  19.628  13.728 -0.0424  0.1097  0.1020
18712W        W38992  12.614   9.954  12.234 -0.1153 -0.0224  0.1372
18713W        W38993   3.342  11.418  11.428 -0.1709  0.3998  0.0597
18714W        W38994  14.860   9.061   3.247 -0.0054 -0.0250 -0.2356
18715W        W38995  18.291  17.167  13.532 -0.2437 -0.2078 -0.0951
18716W        W38996   7.849  15.769  12.828 -0.0186 -0.0684 -0.2297
18717W        W38997   7.535   3.835   0.334  0.5104 -0.2202  0.1777
18718W        W38998  17.814   6.249   3.236 -0.0488  0.0570 -0.2628
18719W        W38999   1.968   5.738   3.431  0.0398 -0.1184  0.1310
18720W        W39000   0.640  15.195   2.075  0.1475  0.1934 -0.2043
18721W        W39001   2.394  18.695  12.689 -0.3285 -0.1430  0.2801
18722W        W39002  19.214   2.849   2.195  0.1026  0.0159  0.1904
18723W        W39003   9.630  12.129   1.334  0.1466 -0.2569 -0.1292
18724W        W39004   1.400   9.436  12.255  0.2462 -0.3292  0.1358
18725W        W39005   8.200  15.936  13.258 -0.3057  0.0718 -0.1007
18726W        W39006   3.705  15.493  12.943  0.1430 -0.1207  0.0173
18727W        W39007   9.316   3.539  10.045 -0.1929  0.0623  0.0089
18728W        W39008   0.669   6.658  10.629  0.1723  0.0863 -0.1072
18729W        W39009   2.206  14.424   9.543 -0.0975 -0.3074 -0.2310
18730W        W39010   9.274   4.466  13.719 -0.0258  0.2444  0.1998
18731W        W39011   2.835  16.353   0.143 -0.2608 -0.0282 -0.3635
18732W        W39012  19.339  10.214   2.282 -0.0132 -0.0763  0.0987
18733W        W39013  19.828   9.236   2.111 -0.2978  0.0830  0.0317
18734W        W39014   0.226   1.579   3.281 -0.1684  0.4434 -0.1496
18735W        W39015  10.599  15.336   0.743  0.1759  0.0082 -0.1455
18736W        W39016  14.318  14.458   3.616  0.0614  0.1818 -0.1818
18737W        W39017   7.770   0.488   2.691  0.0647  0.1622 -0.1271
18738W        W39018   7.715   7.426   4.217 -0.3025  0.2632 -0.4764
18739W        W39019   5.574   3.182  11.902  0.2773  0.2877 -0.3174
18740W        W39020  18.379   4.799  11.113  0.3882 -0.3849  0.0828
18741W        W39021   3.742   1.464   1.031  0.0674 -0.1957 -0.1368
18742W        W39022   7.755   2.925  11.856 -0.1110  0.1115 -0.1897
18743W        W39023  17.348  19.181   0.400  0.3935  0.2008 -0.2741
18744W        W39024   0.546  13.507   1.326 -0.0938  0.1664  0.0022
18745W        W39025   8.274   0.147  12.897 -0.2989 -0.0671  0.1445
18746W        W39026   0.891  19.163  11.136 -0.1710  0.1001  0.1292
18747W        W39027   8.197   4.515   9.136  0.0180  0.1912  0.1940
18748W        W39028   0.154  18.728   2.859  0.0850 -0.3118  0.1976
18749W        W39029   8.101   5.346   1.127  0.0809 -0.2416  0.1596
18750W        W39030   5.355  16.239   1.782  0.1748 -0.0388 -0.1976
18751W        W39031   9.382   6.854  12.492  0.2162 -0.0232 -0.1691
18752W        W39032   9.719  14.846  12.078 -0.1056 -0.2475  0.0731
18753W        W39033  17.484  14.491  13.250 -0.1217 -0.0603 -0.0661
18754W        W39034   0.438   1.781  11.240  0.0114  0.3177 -0.0844
18755W        W39035   9.546   6.210   2.958  0.1021  0.0751 -0.0903
18756W        W39036  15.664   9.777   0.732  0.1466  0.0238 -0.0509
18757W        W39037   6.666  19.298  10.054  0.0637 -0.1708 -0.1634
18758W        W39038   9.493  15.734   0.646  0.2376  0.1286 -0.2327
18759W        W39039  16.717   1.059  11.245 -0.2883  0.1489 -0.0351
18760W        W39040  12.865   7.096   1.347  0.3891 -0.1866  0.2078
18761W        W39041   4.119   7.966   0.047  0.1431 -0.1939  0.1243
18762W        W39042   7.100   9.804   1.262  0.0490 -0.1554 -0.1182
18763W        W39043  15.390   5.397   3.124  0.0417  0.1249 -0.0717
18764W        W39044   8.008   8.122  10.204  0.2020 -0.0661 -0.0258
18765W        W39045  18.943  10.906  13.416  0.0796 -0.1490 -0.0649
18766W        W39046  18.430  17.080  12.442 -0.0499 -0.1618  0.2306
18767W        W39047  18.432  19.704  10.344 -0.0411 -0.0057 -0.0198
18768W        W39048   4.763   0.111   2.998 -0.2528  0.1758  0.0803
18769W        W39049   3.957  13.487  11.087  0.3021  0.2111  0.2610
18770W        W39050   1.724  19.365   2.326  0.2614  0.4659  0.1398
18771W        W39051  15.791   2.271   3.313  0.1151 -0.3152  0.1066
18772W        W39052   6.149  18.713  13.310 -0.0795  0.2390 -0.0333
18773W        W39053   4.265   0.548  11.741 -0.2370 -0.0193  0.0412
18774W        W39054   9.836  10.643   3.088  0.3568  0.0236  0.1805
18775W        W39055  15.953   7.857   4.438  0.1361 -0.0273 -0.1591
18776W        W39056   3.248  14.621   2.367  0.1609 -0.0297 -0.0882
18777W        W39057   2.286   5.873   3.015  0.0183 -0.1611 -0.3709
18778W        W39058   7.953   3.186  11.285  0.2191  0.2060 -0.0380
18779W        W39059   8.691  15.378  10.701 -0.2880  0.0153  0.2543
18780W        W39060  16.624  19.143   0.843 -0.0182  0.1147 -0.2140
18781W        W39061  13.567  15.718   1.145 -0.2295 -0.0903  0.1110
18782W        W39062  11.175   4.416  13.333 -0.3146  0.1184 -0.0173
18783W        W39063   4.834  17.746  11.766  0.3632  0.3216 -0.2244
18784W        W39064   8.259  10.812   4.056 -0.0545 -0.0300  0.1524
18785W        W39065  14.493  12.017   0.499  0.0127  0.0172  0.1275
18786W        W39066  11.286   8.077   1.744  0.0013 -0.2529 -0.1045
18787W        W39067   0.723   9.785  11.117 -0.0534 -0.3371 -0.0231
18788W        W39068  19.455   1.785  12.440 -0.0100 -0.0127 -0.1823
18789W        W39069  13.434   0.074  12.556  0.1859 -0.1393  0.0214
18790W        W39070  11.760   0.099   2.150 -0.1282  0.1264  0.3559
18791W        W39071  17.333  10.625   1.463  0.0245  0.0012 -0.1188
18792W        W39072   6.276   4.129  13.715  0.4094 -0.1231 -0.0152
18793W        W39073   9.058  12.269  11.811  0.2412  0.2749 -0.1574
18794W        W39074   3.740  19.362  13.411  0.0729 -0.1656 -0.0130
18795W        W39075   3.367   3.809  10.747 -0.0715 -0.0991  0.0308
18796W        W39076   4.197  11.493   0.818 -0.0153 -0.2110  0.1846
18797W        W39077  14.462   0.888   3.518  0.2820 -0.0864  0.1429
18798W        W39078   5.903  16.737  11.775  0.1769  0.1839 -0.3844
18799W        W39079   6.643  18.748  13.444 -0.2145 -0.0379 -0.4438
18800W        W39080   9.882   3.757  12.219 -0.1958 -0.2267 -0.0208
18801W        W39081  10.058   5.294   3.594 -0.1640  0.1692 -0.0588
18802W        W39082   5.312  11.228   2.888  0.1734 -0.1179  0.1290
18803W        W39083   0.649  18.721  10.897 -0.2286  0.1773 -0.2781
18804W        W39084   7.024  10.754  12.203 -0.1093 -0.0159  0.1033
18805W        W39085   1.739  13.282   0.701 -0.2941 -0.0493  0.1383
18806W        W39086   4.757   1.682  13.506  0.0766 -0.1081 -0.0467
18807W        W39087  11.643   1.373  13.695 -0.0718 -0.0600 -0.0968
18808W        W39088   0.352   1.858  10.767 -0.2729 -0.1371  0.0058
18809W        W39089   4.108   3.154   0.093 -0.4407 -0.1523 -0.0373
18810W        W39090  12.461   4.909  11.167  0.1005 -0.1589 -0.1455
18811W        W39091  15.209  12.291   0.186 -0.1186 -0.0897 -0.0654
18812W        W39092  12.739  19.270  10.758  0.0625  0.0109  0.1777
18813W        W39093   9.483  12.518  12.961 -0.0175  0.0285 -0.3325
18814W        W39094   5.897   6.390  12.926 -0.2050  0.0270 -0.0186
18815W        W39095  18.517   9.067  13.568 -0.2111 -0.1091 -0.0918
18816W        W39096   8.514  16.969   3.299 -0.0282 -0.1915  0.1257
18817W        W39097  16.018  10.268  11.137  0.0605  0.1150  0.4172
18818W        W39098  10.070  10.763  11.514 -0.1079 -0.2649  0.1625
18819W        W39099  18.692  19.207  11.070  0.2419  0.0704  0.0648
18820W        W39100   2.780   7.056   2.251 -0.0054 -0.1215  0.0433
18821W        W39101  18.702  17.410   3.906  0.2187  0.0783  0.1005
18822W        W39102   1.001   9.950  12.790  0.1049 -0.1655 -0.1762
18823W        W39103  16.667  18.162   2.798 -0.2422 -0.2565  0.1984
18824W        W39104   7.344   4.873   9.912  0.2259 -0.1971 -0.0053
18825W        W39105   1.529   2.117   3.979 -0.2599 -0.2122  0.0012
18826W        W39106   8.809  11.742  10.870  0.1083  0.2782 -0.3549
18827W        W39107  11.350  19.238   4.158  0.4050  0.1755  0.0160
18828W        W39108   6.545   3.801   2.721  0.1007  0.0687  0.2581
18829W        W39109  14.296  19.242   0.302 -0.3428  0.2204  0.1492
18830W        W39110   8.798  11.367  10.472 -0.3527 -0.0459  0.2212
18831W        W39111   1.550  14.402  12.460 -0.1707  0.0294  0.0929
18832W        W39112  11.330   7.698  11.642  0.0874 -0.1589 -0.0892
18833W        W39113  10.408   5.249   0.071  0.0478  0.0050 -0.3015
18834W        W39114   7.541  18.639   2.422  0.0883  0.0501 -0.0042
18835W        W39115  16.945   5.321  10.791  0.0750 -0.0940  0.2003
18836W        W39116  10.603   3.989  11.057  0.0451 -0.1667  0.0774
18837W        W39117   3.231  11.812  13.145  0.1394  0.0700  0.1658
18838W        W39118   4.625   6.212   3.057 -0.0499 -0.0476 -0.1795
18839W        W39119  15.549   5.269   0.750 -0.2321 -0.0888 -0.0378
18840W        W39120   6.339   6.581   0.014  0.2362 -0.2320 -0.1140
18841W        W39121   5.002   4.446  11.231  0.1723  0.0444  0.1808
18842W        W39122  14.208  17.418  12.934  0.3049 -0.0994 -0.1369
18843W        W39123   7.443   2.543   2.840 -0.1643  0.1959 -0.0518
18844W        W39124  11.457  12.547   1.498 -0.1267  0.3436  0.0399
18845W        W39125   1.564   0.885   0.176  0.0727  0.1498  0.1308
18846W        W39126   5.238   4.646   3.906  0.1103 -0.0118  0.3093
18847W        W39127   1.873   4.598  13.558  0.1249  0.0674 -0.5063
18848W        W39128  12.949  13.378   1.868  0.1862 -0.0328  0.2535
18849W        W39129  19.279   8.669   2.950  0.1155  0.0817 -0.0387
18850W        W39130  14.717   2.363  12.820  0.2470 -0.1430 -0.3012
18851W        W39131   6.348   4.808   0.175 -0.0533  0.0230 -0.3890
18852W        W39132   0.267  10.041   3.488 -0.1425 -0.2626 -0.0034
18853W        W39133  18.089  17.546  13.301  0.0295  0.0406 -0.0580
18854W        W39134   2.118  19.687   3.750 -0.0773 -0.0821 -0.1601
18855W        W39135  15.246   9.888   1.621 -0.3119 -0.0303 -0.0646
18856W        W39136  11.822  12.319  11.656  0.0511  0.2997 -0.5223
18857W        W39137   1.782  18.084  11.272 -0.2244  0.4124  0.2657
18858W        W39138  12.114  17.097   2.784 -0.2273  0.3178 -0.0010
18859W        W39139   7.143  16.879  12.652 -0.0237  0.4324 -0.0245
18860W        W39140   7.961   8.293   2.584  0.0459  0.2182 -0.0548
18861W        W39141   2.564   1.125  13.759 -0.0891  0.0223 -0.0777
18862W        W39142  13.074  16.808  10.352 -0.1504 -0.0323 -0.3350
18863W        W39143  17.805  12.460   2.727 -0.1985 -0.1302  0.1767
18864W        W39144  12.718  10.124  11.726  0.3953  0.0514  0.1395
18865W        W39145  15.265   0.159   9.576  0.2710 -0.0745  0.0461
18866W        W39146   6.498  11.463  12.046  0.0426 -0.4338  0.2297
18867W        W39147  16.221   9.680  13.218  0.1975  0.0084  0.2392
18868W        W39148  12.176   6.602   0.078  0.1449 -0.0988 -0.1241
18869W        W39149   1.358  15.849  13.201  0.1216  0.1775 -0.0709
18870W        W39150   7.151  14.581  10.246  0.4134 -0.4326  0.0769
18871W        W39151  17.796  14.182   9.181  0.0384  0.0722  0.3084
18872W        W39152   2.692  18.521   2.221  0.0862  0.3598 -0.2220
18873W        W39153   4.989  12.791   4.130  0.3765 -0.3173  0.2469
18874W        W39154   4.963   6.394   0.200 -0.2239 -0.2252 -0.3849
18875W        W39155  11.571  17.678   1.695 -0.2264  0.1787 -0.2771
18876W        W39156   8.684  10.455   4.099 -0.0675  0.3703  0.1262
18877W        W39157  13.464  19.709  11.004 -0.1686  0.2212  0.2932
18878W        W39158  13.386   9.178   2.046  0.3928  0.0454 -0.0608
18879W        W39159  15.227   6.008  13.239 -0.2544  0.0157 -0.1957
18880W        W39160  19.435  14.529   2.305  0.1643  0.1364  0.0128
18881W        W39161   9.544  11.681  12.476  0.2640  0.1117 -0.0233
18882W        W39162   9.940  16.622   0.287  0.4005 -0.2591 -0.0431
18883W        W39163   4.917  18.062  12.116 -0.0915 -0.0335  0.0412
18884W        W39164  16.623  19.537   3.388 -0.0602  0.1806 -0.3542
18885W        W39165  16.253   3.959  11.081  0.0588 -0.1815 -0.0545
18886W        W39166  17.271  14.769   2.683 -0.2299 -0.1220 -0.2614
18887W        W39167   1.714  17.298  10.371 -0.3415 -0.0759 -0.0595
18888W        W39168   0.363  12.988  13.586 -0.1927  0.0859  0.1076
18889W        W39169  17.986  13.162  11.724  0.2026  0.2720 -0.2969
18890W        W39170   5.917   3.431  10.833 -0.2655  0.1954 -0.1267
18891W        W39171  15.828  15.070  11.786 -0.0549 -0.1263  0.1197
18892W        W39172   7.953  15.480   4.525 -0.0113 -0.2249  0.1979
18893W        W39173  10.043   4.201   4.843  0.2306 -0.2189 -0.0266
18894W        W39174   7.088  17.887   4.358 -0.0883  0.2109 -0.0271
18895W        W39175  15.814   7.720   9.683 -0.0332  0.1330  0.0531
18896W        W39176  17.088   6.990   1.166  0.1716 -0.0726 -0.0384
18897W        W39177  11.380  13.184  13.016 -0.0149  0.0669  0.1670
18898W        W39178   2.234   8.256   3.609 -0.0583 -0.1317  0.2094
18899W        W39179  17.264  17.596  11.963  0.0072  0.0688  0.1756
18900W        W39180  18.034   8.481   0.494 -0.0353  0.2122  0.0650
18901W        W39181   0.386  11.357  10.359  0.4637  0.0765 -0.0914
18902W        W39182  10.267  10.478   4.892 -0.1160  0.0157 -0.2723
18903W        W39183  17.239   1.415  13.116 -0.1075 -0.2472 -0.3243
18904W        W39184   2.838   2.435  11.535  0.2989  0.1905  0.4089
18905W        W39185  12.579  15.043   0.216  0.0586  0.0556  0.1602
18906W        W39186  19.325   9.664   0.384  0.2608  0.2817  0.0025
18907W        W39187  12.866   9.023   2.432  0.2929 -0.0708  0.0175
18908W        W39188   6.394  16.955  11.680  0.0885  0.1378  0.4710
18909W        W39189   0.305  14.333  11.461 -0.2144 -0.1448 -0.0426
18910W        W39190  10.328  19.212  11.783  0.0311  0.2290  0.0120
18911W        W39191   7.316   3.801   1.050  0.1349 -0.1463 -0.1038
18912W        W39192   6.513  19.953   3.343 -0.1010 -0.1258 -0.1333
18913W        W39193   4.357  16.518   0.427 -0.0181 -0.2618 -0.0330
18914W        W39194   8.122  17.557   0.856 -0.0692 -0.0037 -0.2384
18915W        W39195  16.539  12.089   4.266 -0.0108 -0.1400 -0.0019
18916W        W39196   4.136  15.881   3.493 -0.1206 -0.0127 -0.2436
18917W        W39197  14.843  10.487   2.675 -0.0570 -0.0860 -0.0199
18918W        W39198   0.700   7.622   2.702 -0.0705 -0.1626  0.1340
18919W        W39199   8.939   4.974  11.744  0.0869  0.0066  0.0901
18920W        W39200   4.549  17.395  10.486 -0.2512 -0.2297  0.2087
18921W        W39201  19.904  18.289  11.518 -0.0080  0.2599 -0.0031
18922W        W39202  16.847  13.339  11.412 -0.1357  0.2413  0.0271
18923W        W39203  17.427   2.181  13.508 -0.0552  0.0209 -0.2381
18924W        W39204  11.308   9.816   2.935 -0.2260 -0.2434  0.2991
18925W        W39205  13.608   1.036   1.531 -0.3336 -0.0396 -0.2476
18926W        W39206   9.378  17.410   2.091  0.2369  0.2419  0.2570
18927W        W39207  10.400  10.535  10.640  0.2782 -0.2565 -0.2837
18928W        W39208  11.880  19.123  13.529 -0.0203  0.0388  0.1641
18929W        W39209   5.432  14.906  12.187  0.2733  0.2024  0.2202
18930W        W39210   5.410  16.473  12.615 -0.0138 -0.1047  0.2606
18931W        W39211   2.309  14.674   3.548  0.1411  0.0742 -0.0911
18932W        W39212  12.457  13.277   1.662 -0.1499  0.1717 -0.0782
18933W        W39213   2.346   8.239  10.850 -0.0226  0.1609  0.0840
18934W        W39214   1.181   7.829   1.632 -0.2250 -0.0955 -0.0296
18935W        W39215   2.642  14.138   3.843 -0.4045 -0.1316  0.0955
18936W        W39216  13.497  15.502   2.985  0.1636  0.0297 -0.1720
18937W        W39217  15.071  10.082   3.564  0.2937  0.1552 -0.1376
18938W        W39218  10.529   6.524   2.347 -0.1229 -0.0599  0.1174
18939W        W39219  11.498   7.032  10.638  0.1718 -0.1008  0.0229
18940W        W39220   1.774  18.763  11.447  0.2137  0.1348  0.0557
18941W        W39221   4.567  11.797  12.028  0.3374 -0.5131 -0.3125
18942W        W39222   6.699  15.069   0.067 -0.0694  0.0266 -0.1272
18943W        W39223  16.275  13.411  12.197 -0.1704 -0.1106 -0.2930
18944W        W39224  13.079   4.470   1.561  0.0462  0.0832 -0.0841
18945W        W39225   4.385   9.642  11.406  0.0068  0.1996  0.1882
18946W        W39226  10.318   3.092  11.278 -0.0669  0.1994  0.1169
18947W        W39227  11.828  13.446   3.167  0.1379 -0.0375 -0.1045
18948W        W39228  11.339  11.322   0.263 -0.0457  0.1192 -0.0695
18949W        W39229   1.001  17.245   3.103 -0.2582  0.1005 -0.0906
18950W        W39230   2.396   2.716   3.325 -0.0323 -0.2023  0.1226
18951W        W39231  10.435  19.681  11.926 -0.0893 -0.1125 -0.3505
18952W        W39232   3.743  16.585   1.624  0.0886  0.2180 -0.0240
18953W        W39233  10.888  16.522   2.584 -0.0629 -0.2189 -0.0098
18954W        W39234   9.201   8.793  13.594  0.0538  0.0895  0.4855
18955W        W39235   8.587   1.710  11.901 -0.2438 -0.1351 -0.0318
18956W        W39236  15.598   8.840   1.960 -0.0297  0.1429  0.0110
18957W        W39237   7.533   4.667   3.491  0.2028 -0.1075 -0.0659
18958W        W39238  17.654   0.942   1.912  0.0321  0.0563 -0.0561
18959W        W39239  13.098   1.427  11.476 -0.0500 -0.0718 -0.3011
18960W        W39240   7.266   4.504   3.934 -0.1055  0.1666  0.1319
18961W        W39241   4.827  18.758   0.360 -0.0115 -0.1670  0.1670
18962W        W39242   6.447  14.052   5.350  0.1195 -0.0132  0.1694
18963W        W39243  17.643   4.485  10.680  0.1312  0.2293 -0.0373
18964W        W39244  12.741   8.777   3.405 -0.3263 -0.4180 -0.1702
18965W        W39245   7.971   8.261   1.568  0.0855  0.1407  0.0728
18966W        W39246  17.137  14.761   1.861 -0.0553 -0.0898 -0.0780
18967W        W39247  12.100   2.931   0.000 -0.1060  0.0046 -0.1663
18968W        W39248  19.905  11.811   8.398  0.1612  0.0035  0.2230
18969W        W39249   4.777  13.004  11.145 -0.1674 -0.0205 -0.1425
18970W        W39250   2.755   2.630  13.237  0.0483 -0.1931 -0.3071
18971W        W39251   0.925   8.226   1.536  0.0411  0.3219 -0.0197
18972W        W39252  18.100  14.389   2.661 -0.1419 -0.0015 -0.0263
18973W        W39253  16.634  14.704   4.040 -0.1418 -0.1836  0.0428
18974W        W39254  14.618   2.950  10.256 -0.0401  0.0741  0.0708
18975W        W39255   5.898   0.389  12.719 -0.1968 -0.1226  0.0190
18976W        W39256   3.855  19.481  11.024  0.2133 -0.0875 -0.0707
18977W        W39257  11.225   7.907   2.915  0.2929 -0.0750  0.1003
18978W        W39258  10.281  19.069   2.205 -0.1559 -0.0772 -0.0642
18979W        W39259   3.483  13.231   2.158 -0.3171 -0.2249 -0.1705
18980W        W39260  15.869   3.633  10.970 -0.2803 -0.1230 -0.0150
18981W        W39261   0.177   3.212   0.319  0.0023 -0.1661 -0.2321
18982W        W39262  13.959   5.953  12.927  0.1497  0.2094 -0.4249
18983W        W39263  11.776  18.299   1.392 -0.1271 -0.0864 -0.1972
18984W        W39264  17.682   4.007  10.546  0.0585 -0.2074  0.0099
18985W        W39265   7.262  15.356   3.986 -0.0044  0.0261  0.0714
18986W        W39266  11.804  12.117   2.036  0.2820 -0.3904  0.1553
18987W        W39267   6.776   4.500  12.557 -0.0583  0.2016  0.3915
18988W        W39268  16.074  11.254   2.813 -0.1978 -0.1467  0.0027
18989W        W39269  16.020  15.425   8.885 -0.1794  0.3371 -0.1277
18990W        W39270   7.122   8.595   3.743  0.0903 -0.0209 -0.1056
18991W        W39271   1.010  10.553   1.866  0.0083  0.0886  0.0365
18992W        W39272   5.652   1.047   3.770  0.1216 -0.0577 -0.0002
18993W        W39273   7.537   4.842  10.836 -0.0240  0.0430  0.1157
18994W        W39274  14.811  16.571  12.275  0.2972  0.2050 -0.3364
18995W        W39275   0.783  13.986  13.264 -0.2114 -0.3781 -0.0261
18996W        W39276  18.285   6.055   1.300 -0.1664  0.0259  0.0644
18997W        W39277   1.037   8.142  12.545  0.1974  0.2839  0.0658
18998W        W39278  16.365  17.764  12.959 -0.0151 -0.1414  0.0190
18999W        W39279  12.925   1.918  10.391 -0.2772  0.1205 -0.2150
19000W        W39280   5.817   3.779   3.595  0.1479 -0.1328  0.1667
19001W        W39281  11.238   2.057  10.953 -0.1461 -0.1690 -0.0691
19002W        W39282   9.382   2.602  10.409  0.0607  0.1499 -0.2042
19003W        W39283   4.440  10.062  13.695 -0.3922 -0.0609  0.0837
19004W        W39284  19.632  17.500  11.695 -0.2438 -0.2109 -0.0811
19005W        W39285   2.317   6.704   1.614 -0.0177  0.1082 -0.1516
19006W        W39286  17.010  12.305   3.022  0.0400 -0.1927 -0.2048
19007W        W39287  18.114  18.835  13.689 -0.5499  0.2899 -0.0102
19008W        W39288  16.279   1.867   1.331  0.0202  0.0643  0.0067
19009W        W39289  13.393   1.940   3.721 -0.4271  0.3795 -0.1694
19010W        W39290  18.816   4.867  10.896 -0.2290 -0.3298  0.0254
19011W        W39291   8.025   7.080  12.083 -0.1002 -0.1293 -0.1389
19012W        W39292   1.033  11.180  13.306 -0.2092 -0.0440 -0.2652
19013W        W39293   2.220  16.969  11.189 -0.0740  0.0146 -0.3010
19014W        W39294   2.664   6.468  12.147  0.3225  0.2707  0.0707
19015W        W39295  18.069  13.618   3.628  0.0108  0.0358  0.1217
19016W        W39296  11.108   0.413   0.800 -0.2305  0.0566  0.2294
19017W        W39297   1.083  13.731   9.984  0.3916 -0.2671  0.3628
19018W        W39298  19.180   4.477  10.826 -0.1674 -0.0358 -0.0257
19019W        W39299   9.324   7.942  13.449 -0.0302  0.1830  0.1662
19020W        W39300  13.980   2.773  13.081 -0.1869  0.3411 -0.0668
19021W        W39301   0.128  10.417   2.990  0.1075 -0.0124  0.1092
19022W        W39302   6.784   1.422  13.341 -0.0126 -0.0535  0.2302
19023W        W39303   5.592  13.644  10.273 -0.0679  0.0143 -0.0329
19024W        W39304   1.446  13.640  10.296  0.0091 -0.0736 -0.2532
19025W        W39305   3.882  17.297  13.814  0.0286 -0.3623 -0.6781
19026W        W39306   3.697   8.212   1.047 -0.3032 -0.0011 -0.0085
19027W        W39307   7.449   7.297   4.977  0.0488 -0.2245 -0.2258
19028W        W39308   7.504   0.816  12.315  0.0570  0.0322  0.2682
19029W        W39309  15.793  19.396   2.797 -0.3400 -0.2017  0.0111
19030W        W39310   5.791   9.026   0.943 -0.1249  0.1718  0.3544
19031W        W39311   7.593   0.709  11.579 -0.1627 -0.4221  0.1677
19032W        W39312   9.206  11.695  12.840  0.0489 -0.2256 -0.2245
19033W        W39313  11.474   1.119   1.185 -0.3651 -0.0098 -0.1019
19034W        W39314   2.786  10.827   1.376 -0.1308  0.2059  0.1086
19035W        W39315   8.862  10.696  10.062 -0.0270 -0.1060 -0.3858
19036W        W39316  14.831  18.652   0.738 -0.0734 -0.5558  0.2881
19037W        W39317   1.035   4.275  12.318 -0.2240 -0.1438 -0.0611
19038W        W39318  17.073   2.553  11.817  0.0679 -0.1267  0.1321
19039W        W39319  12.859  11.001   2.083  0.0372  0.0081  0.0362
19040W        W39320   5.078  14.835   0.727  0.3807  0.1468 -0.1874
19041W        W39321   7.904  17.517  10.961 -0.1939  0.0430  0.1128
19042W        W39322   5.113  19.282   3.528  0.1937 -0.0428  0.0639
19043W        W39323   0.526  11.745  10.616 -0.4163 -0.0347  0.1470
19044W        W39324   2.117   7.244   1.544 -0.2537 -0.2688  0.2375
19045W        W39325   0.453  11.616   0.699  0.1864 -0.0293 -0.3623
19046W        W39326  10.960   0.823  11.363  0.2059 -0.1982  0.2388
19047W        W39327   0.524   3.155   0.689  0.0440  0.1620 -0.1181
19048W        W39328   4.733  15.352  11.217  0.1757  0.2560  0.1176
19049W        W39329  16.352  14.849  12.352 -0.1208  0.0883 -0.0106
19050W        W39330  10.413  15.515   1.602  0.1549 -0.1282  0.1071
19051W        W39331  19.741   9.036   9.879 -0.2754 -0.0119 -0.1658
19052W        W39332   1.699  12.527   9.911 -0.4303 -0.1079 -0.1709
19053W        W39333  19.830   5.683  11.078  0.1597  0.0389  0.0569
19054W        W39334   9.388   7.673   2.391  0.0109  0.1089 -0.0912
19055W        W39335   7.906  16.166  12.322  0.4199  0.0359 -0.0313
19056W        W39336   0.422  16.948  10.659  0.1565  0.3598 -0.3253
19057W        W39337  18.631  19.744  12.091  0.0014 -0.3348  0.0288
19058W        W39338  11.776  15.816  12.352  0.2879  0.1107  0.0174
19059W        W39339   7.563   6.000  13.683 -0.0966 -0.1030  0.2324
19060W        W39340   0.560  12.252   3.153  0.0632  0.4150 -0.0471
19061W        W39341  15.432  11.836   3.307 -0.2174  0.0576  0.1863
19062W        W39342   8.559  14.765   0.187 -0.3484 -0.1809 -0.0516
19063W        W39343  19.914  16.459   1.883 -0.0208 -0.1153 -0.1422
19064W        W39344   1.308   8.030  12.962 -0.0755  0.0564 -0.2081
19065W        W39345   0.223   1.120  12.322 -0.0667  0.0498 -0.1497
19066W        W39346   4.892   3.643  13.453 -0.0122  0.2027 -0.1329
19067W        W39347  11.981   1.158  10.161 -0.0463  0.0322 -0.0107
19068W        W39348   0.118   0.760   3.363 -0.0693  0.0904  0.0898
19069W        W39349   7.355   0.742   2.579  0.0037  0.1300 -0.0040
19070W        W39350   2.772   4.509  10.577  0.0290  0.2006  0.1329
19071W        W39351   9.617  12.238  12.521  0.2259 -0.1701  0.3259
19072W        W39352   8.660   7.370  11.834  0.1285  0.0217 -0.1928
19073W        W39353   5.912   8.404   1.802 -0.0844  0.0348 -0.2478
19074W        W39354   0.265  18.568   2.373  0.3295  0.1318  0.1586
19075W        W39355  12.727  18.238  10.705 -0.0900  0.2499 -0.1876
19076W        W39356   2.429   8.427   3.207 -0.1770  0.0378  0.0670
19077W        W39357   9.424   6.554   2.617 -0.2470  0.1106  0.0310
19078W        W39358   0.144   0.389  11.778 -0.0392  0.0831  0.1607
19079W        W39359  10.131   7.571   2.331 -0.0632 -0.3224 -0.1015
19080W        W39360  17.054   0.794  10.437  0.0318  0.0637 -0.1302
19081W        W39361  13.039   5.093   0.556  0.6368  0.1016  0.0860
19082W        W39362  11.240  16.728  13.028 -0.2362  0.5757  0.2439
19083W        W39363   0.980   3.001  10.308 -0.2055 -0.0980 -0.1355
19084W        W39364   5.022  12.679  12.970 -0.4112 -0.0570 -0.1751
19085W        W39365   8.728   0.799  13.287 -0.1437  0.0796  0.0037
19086W        W39366  13.263  10.193   0.076  0.2372 -0.2783 -0.1798
19087W        W39367  15.458   4.763  11.563  0.2869  0.2130  0.0655
19088W        W39368  13.712  10.772  13.149  0.0958 -0.0013  0.0076
19089W        W39369   1.567   3.914   1.401  0.1086  0.0078  0.0006
19090W        W39370   3.495  10.948  11.370  0.1172  0.1128 -0.0324
19091W        W39371  11.950  18.023  12.445  0.0534 -0.2718 -0.0574
19092W        W39372   1.461   9.058  13.453 -0.2443 -0.1326  0.1316
19093W        W39373   0.591   8.049  12.759  0.1301 -0.1460 -0.0582
19094W        W39374   7.788  17.300  11.398 -0.1374 -0.0505  0.2648
19095W        W39375  17.542   6.136  12.708 -0.0260 -0.0808  0.1433
19096W        W39376  16.870  13.171  12.313 -0.0302  0.3765 -0.2235
19097W        W39377   5.068  10.330  11.388  0.1367 -0.1971 -0.0435
19098W        W39378  17.765  17.088  10.184  0.1130 -0.1715 -0.0327
19099W        W39379   1.967  10.324   0.255 -0.3840 -0.0697 -0.2209
19100W        W39380  13.427  11.546   1.656  0.0583 -0.1956  0.3231
19101W        W39381   2.429   6.736  11.234 -0.2140  0.0594 -0.2028
19102W        W39382  15.797   5.006  12.827 -0.0745  0.1875  0.1622
19103W        W39383   7.715  19.577  11.160 -0.3494 -0.4230  0.1462
19104W        W39384   4.422  10.492   3.721 -0.1679  0.0383 -0.1398
19105W        W39385   9.658   1.876   2.000  0.2531  0.0284 -0.0317
19106W        W39386   1.292   2.547   3.192 -0.3657 -0.0350  0.3675
19107W        W39387   5.926   5.578  11.252 -0.2275  0.1055 -0.2077
19108W        W39388   5.047  13.860   2.548 -0.0850  0.3412  0.1688
19109W        W39389  12.467   0.469   3.650  0.0374 -0.0389 -0.1195
19110W        W39390  12.145   2.333  12.361  0.0807  0.1135 -0.0826
19111W        W39391  13.168  10.381  11.692  0.0760 -0.0416  0.0046
19112W        W39392   1.333  19.847  10.846  0.1721  0.0501 -0.2534
19113W        W39393   7.525  19.917   3.611 -0.2237  0.1205 -0.0291
19114W        W39394  15.801   7.484   1.531  0.1603  0.2716 -0.1326
19115W        W39395  13.109   9.016  10.097 -0.0532  0.3810 -0.0505
19116W        W39396  19.504  14.204  11.223 -0.0411 -0.2237  0.0396
19117W        W39397   6.602   5.069  13.170  0.1398 -0.2757 -0.2027
19118W        W39398  14.177   7.823   2.659  0.0204  0.0684  0.2395
19119W        W39399  19.694  11.930   9.925 -0.0540 -0.1091 -0.2263
19120W        W39400  18.110   7.089   2.130 -0.0860 -0.1771  0.1278
19121W        W39401   5.533  19.277  10.853  0.0463 -0.0787 -0.5144
19122W        W39402   6.474  16.543   3.499 -0.0972  0.1403  0.2917
19123W        W39403   8.018   4.631  12.469  0.0710  0.0878  0.2397
19124W        W39404  13.576  13.818  10.722 -0.0307  0.2501  0.1516
19125W        W39405  10.396  16.589   2.596 -0.1454  0.1941  0.3715
19126W        W39406  17.179   1.319   3.130  0.4136 -0.1991 -0.0634
19127W        W39407   4.541  11.453   1.193  0.1154 -0.0235  0.0673
19128W        W39408  11.484   5.531  11.259  0.0909  0.1864 -0.3262
19129W        W39409   4.958   6.554   1.022 -0.1250  0.2901 -0.1503
19130W        W39410  15.418  18.729  12.624 -0.0465 -0.1209  0.2253
19131W        W39411  19.583   3.467   0.555  0.3540  0.0476 -0.0913
19132W        W39412  17.229   3.070  13.287  0.0589 -0.1346 -0.0895
19133W        W39413   3.866  12.370  10.332  0.3139  0.1132 -0.2612
19134W        W39414  16.168   4.854  13.607 -0.1785 -0.2002 -0.2377
19135W        W39415  13.892  15.439   0.338  0.4972 -0.1313 -0.1047
19136W        W39416   8.768   7.807  12.790 -0.1197  0.1129 -0.0143
19137W        W39417  14.537  13.410  11.821 -0.0890  0.0945  0.0308
19138W        W39418  16.345  12.431   3.949  0.1543 -0.0410  0.1121
19139W        W39419   0.702  13.826   3.633 -0.0970 -0.1709  0.1475
19140W        W39420  16.254   4.631  12.954  0.0402 -0.0561 -0.0906
19141W        W39421  14.331   3.945  10.026 -0.3731 -0.1696 -0.1992
19142W        W39422  11.558  11.705   1.388 -0.0985  0.0671  0.1404
19143W        W39423   7.924   1.156   3.906 -0.0708  0.3252  0.1007
19144W        W39424   5.313  12.510   0.806 -0.0161 -0.2587 -0.0992
19145W        W39425   1.580   1.068   2.106 -0.0409  0.3513  0.0878
19146W        W39426  15.805   9.296   3.213 -0.2290  0.0156  0.1100
19147W        W39427  12.252   3.385   2.328 -0.4214  0.0920 -0.0967
19148W        W39428   2.362  16.607  10.009  0.0430  0.0069 -0.2699
19149W        W39429   0.611   5.948  12.788  0.0847 -0.0785 -0.0438
19150W        W39430  13.345   8.330  13.409  0.1892  0.1017 -0.0905
19151W        W39431  13.732  16.354  11.766  0.2699 -0.0592  0.3693
19152W        W39432  12.758   7.723   3.424 -0.1135  0.1141 -0.0360
19153W        W39433  11.747   8.296   0.020 -0.1401  0.1868 -0.1348
19154W        W39434   8.033  17.093   0.626  0.3175 -0.0807  0.0112
19155W        W39435  16.003   3.731  13.115  0.3480 -0.1475  0.0738
19156W        W39436   5.769  15.526   0.676  0.3537  0.1501 -0.3851
19157W        W39437  19.390  17.949   2.494 -0.0906 -0.2666 -0.1702
19158W        W39438   2.202  19.469   0.993  0.1947 -0.0208 -0.0834
19159W        W39439  14.761   5.006  10.955  0.2168 -0.1816  0.0885
19160W        W39440  17.154   9.850   2.621  0.1353  0.1252  0.0389
19161W        W39441   8.658  13.367   0.373  0.0217  0.3521  0.0170
19162W        W39442   4.674  19.441  11.666  0.3113 -0.0574 -0.1493
19163W        W39443   6.835  18.607  10.645 -0.0342 -0.2078  0.1422
19164W        W39444   0.599  10.912   8.672  0.0193 -0.2849 -0.3075
19165W        W39445   4.573   8.405   2.014  0.1296  0.1433 -0.1498
19166W        W39446   0.262   4.645   0.803  0.0621  0.0523 -0.3131
19167W        W39447  12.164   7.054   0.336 -0.1991  0.0666 -0.1933
19168W        W39448  18.324   5.638  11.158  0.0460  0.1980  0.0348
19169W        W39449   0.147  17.045   0.473  0.1139 -0.0903 -0.4246
19170W        W39450  14.382  10.234  13.113  0.2363 -0.0457 -0.0918
19171W        W39451   0.383  10.487  13.823 -0.0015  0.4137 -0.1829
19172W        W39452   6.911  12.433   5.586 -0.1460  0.2263 -0.2445
19173W        W39453   9.144  18.091  12.226 -0.1542 -0.1254 -0.0122
19174W        W39454  18.323  12.313   0.386  0.1726  0.0137  0.0055
19175W        W39455   8.534  17.811  12.247 -0.1746 -0.2609  0.1315
19176W        W39456   1.165  18.045   0.700  0.1940 -0.1134 -0.0581
19177W        W39457  17.525  14.912  10.145 -0.2675 -0.2287  0.2349
19178W        W39458  19.397   0.684   2.969  0.0737 -0.0463 -0.0806
19179W        W39459  17.621  10.127  10.870  0.0470  0.1014 -0.1051
19180W        W39460   9.973  19.286  10.636 -0.0835  0.1767 -0.0080
19181W        W39461   4.205  14.892   1.021  0.2285 -0.1748 -0.3174
19182W        W39462  16.079  18.243  13.260 -0.1337  0.0671 -0.0171
19183W        W39463  12.042  11.648   2.593  0.1441  0.3341  0.0890
19184W        W39464  18.530   5.218  13.368  0.0946 -0.0170 -0.2495
19185W        W39465   4.944  12.273   0.519  0.0981 -0.1135 -0.0585
19186W        W39466   2.866   0.127   2.602  0.0412  0.4490 -0.3203
19187W        W39467   9.772   6.249   2.343 -0.0792  0.0756  0.0532
19188W        W39468  19.720  15.657  11.308 -0.0076  0.1716  0.2910
19189W        W39469   7.813  10.528  10.501 -0.2114 -0.3212  0.0344
19190W        W39470  16.034   3.452  13.611  0.0717 -0.0711 -0.1308
19191W        W39471   9.376   9.472   1.529  0.0667 -0.0429  0.0097
19192W        W39472   1.877  16.813   3.261  0.0099 -0.2172  0.1502
19193W        W39473   8.321   0.668  12.758 -0.0714  0.2022 -0.1288
19194W        W39474  11.687   7.622   1.800 -0.2302  0.1509  0.1826
19195W        W39475   4.051  11.237   4.973  0.2479  0.1563 -0.2620
19196W        W39476  15.476   6.208   0.582 -0.0803 -0.3090  0.1061
19197W        W39477   4.831   9.296  13.529  0.1649 -0.0507 -0.3570
19198W        W39478   5.459   4.859   0.380  0.0979 -0.0163  0.2791
19199W        W39479   7.063  10.480  12.776  0.5052 -0.0972 -0.0917
19200W        W39480   0.787   5.877   3.190  0.3040  0.0673 -0.2244
19201W        W39481  12.064  11.800  10.239  0.1423 -0.0380  0.0660
19202W        W39482  14.992   7.240  11.126  0.0878  0.0878 -0.1969
19203W        W39483   1.173   0.225  11.976 -0.3856 -0.1366  0.1997
19204W        W39484  14.143   3.106  10.394 -0.0739  0.1147  0.0873
19205W        W39485   1.415  14.596   2.171 -0.0759  0.0267  0.0440
19206W        W39486   4.676  17.926   2.077 -0.3090 -0.1617  0.1825
19207W        W39487   8.703   4.414   0.747 -0.0449  0.1776 -0.1090
19208W        W39488   5.673  17.173   2.602 -0.1465 -0.0468 -0.1806
19209W        W39489  10.007  11.161   1.701  0.1990  0.0002 -0.0530
19210W        W39490   8.453   8.325  13.616  0.0567 -0.4700  0.0478
19211W        W39491   7.527  11.951  10.836 -0.3453 -0.0635  0.2850
19212W        W39492   8.555  16.967   2.616 -0.1186 -0.0819  0.1424
19213W        W39493  15.204  18.517  12.055  0.0292 -0.2279 -0.4068
19214W        W39494   1.624  15.340  12.322 -0.0720  0.1164  0.2864
19215W        W39495   4.615  14.682   0.977 -0.0968 -0.1915 -0.0265
19216W        W39496  12.984  14.407  10.640 -0.0979  0.2905  0.0079
19217W        W39497   3.401  13.690   0.793  0.1943 -0.0487  0.0134
19218W        W39498   6.598   3.876   1.982  0.2179  0.3534 -0.0660
19219W        W39499   9.093  10.988  10.594 -0.0291  0.1875  0.0642
19220W        W39500   5.981  12.953   1.437 -0.1549 -0.1740 -0.3035
19221W        W39501  18.998   9.381   1.806  0.1229 -0.1736 -0.3183
19222W        W39502   5.871   2.001  13.612  0.1415  0.1225 -0.3156
19223W        W39503  10.904  12.384   1.352 -0.2001  0.1468 -0.3637
19224W        W39504   8.097   4.415   1.420  0.1712 -0.0729 -0.1457
19225W        W39505  19.620  10.991   3.071 -0.0949  0.0028 -0.1777
19226W        W39506   8.088  19.629  12.180 -0.0229  0.0603 -0.1276
19227W        W39507  15.448   6.104  11.792 -0.0243 -0.1202 -0.1581
19228W        W39508  17.719  11.613   0.473 -0.0181  0.3117 -0.0023
19229W        W39509  15.718   4.553  11.177 -0.0312  0.2934 -0.0934
19230W        W39510   5.673   8.490  11.084 -0.0145  0.2875  0.0979
19231W        W39511  18.097   5.511   1.293  0.1915 -0.3099  0.0957
19232W        W39512   8.081   9.606  10.440 -0.0976  0.1061  0.4073
19233W        W39513  11.579  17.672   3.848 -0.1179 -0.2855  0.2611
19234W        W39514  11.718  12.503  11.070 -0.2466 -0.0216 -0.4835
19235W        W39515  12.810   3.652  10.941 -0.0164 -0.1112  0.2158
19236W        W39516   3.250  12.728  13.538  0.1762 -0.0533  0.0120
19237W        W39517   4.984  17.561   3.757  0.0076 -0.1492  0.3323
19238W        W39518   4.886   6.390   2.650  0.1369  0.1230  0.1698
19239W        W39519   8.194   5.243   3.071 -0.0326 -0.0756  0.2000
19240W        W39520   8.656   3.693  12.302  0.0858 -0.1144  0.3574
19241W        W39521   6.456  13.135  10.384  0.0377 -0.2281 -0.0111
19242W        W39522   1.391  15.381   2.033  0.3221 -0.2975  0.2111
19243W        W39523  12.276   4.319   2.601 -0.1523 -0.0703  0.1874
19244W        W39524   6.150   5.223   2.588  0.0636 -0.0855 -0.1113
19245W        W39525   7.997  16.156  13.788  0.4468 -0.4925 -0.2190
19246W        W39526  11.893  15.871   3.726  0.1729  0.1826  0.0069
19247W        W39527  17.335  18.515  11.065  0.3315  0.3482 -0.2476
19248W        W39528  14.101   0.523  12.104  0.0185 -0.0074  0.1284
19249W        W39529  16.603  15.817  12.561  0.3612  0.0456  0.0508
19250W        W39530  10.661  11.276  10.464  0.0399  0.1363  0.1900
19251W        W39531  11.437   0.323  10.244  0.1626 -0.1714  0.0205
19252W        W39532   0.025  10.954  13.101 -0.1852  0.0395  0.0010
19253W        W39533  10.142   9.681  13.210  0.2685  0.1235 -0.2707
19254W        W39534   4.753   4.850  12.143  0.3238  0.2322 -0.0341
19255W        W39535  19.099   6.726  10.432 -0.1538  0.2366 -0.0734
19256W        W39536   7.783  17.439  12.160  0.1173  0.0312  0.1222
19257W        W39537  14.710  16.624   2.053 -0.0700  0.3303  0.1825
19258W        W39538  16.415  15.531   9.821  0.0912  0.0519 -0.2655
19259W        W39539   6.583   6.605   3.094  0.1237  0.0776  0.2756
19260W        W39540   7.417   6.264   3.601 -0.0655 -0.1342 -0.2677
19261W        W39541  12.814  12.877  10.646 -0.3780  0.0020 -0.1433
19262W        W39542   5.237   3.500  11.686 -0.2305  0.2915  0.2254
19263W        W39543  15.386  12.634   3.191 -0.1022  0.2222 -0.0494
19264W        W39544   4.845  18.002   1.387  0.4142 -0.0102  0.1791
19265W        W39545  13.575   5.099   0.934 -0.0242  0.1051  0.0645
19266W        W39546   0.585  15.989   0.527 -0.1744 -0.0327  0.2158
19267W        W39547   9.358  18.571  12.250  0.1557 -0.0232 -0.5995
19268W        W39548   5.817   5.465  10.753 -0.0583 -0.1031  0.1129
19269W        W39549  17.272  18.177  11.423 -0.1121 -0.0503  0.1293
19270W        W39550  13.575  18.450   3.180 -0.0229  0.0621  0.1369
19271W        W39551  17.271   5.304   1.504  0.1722  0.1828 -0.3388
19272W        W39552   4.751   7.348   0.994  0.2841  0.0488  0.0307
19273W        W39553  10.212   7.715   1.027 -0.1959 -0.1288 -0.0943
19274W        W39554  10.116   6.606  10.392 -0.2563  0.2126 -0.2158
19275W        W39555  18.579   9.138   1.618  0.0063  0.0539  0.4130
19276W        W39556  11.666   5.928   1.831 -0.1296  0.1978  0.0513
19277W        W39557  11.175  17.626  12.739  0.1049 -0.0748 -0.1351
19278W        W39558   9.438  17.995   4.039  0.2459  0.1141 -0.0542
19279W        W39559   7.985  10.973   1.574  0.3084  0.0628  0.0951
19280W        W39560   0.077   8.766   1.132 -0.2435  0.1541  0.2163
19281W        W39561  13.085  14.417   1.966 -0.3231 -0.1955  0.1881
19282W        W39562   1.443  12.113   2.906  0.0148  0.0089 -0.0421
19283W        W39563  14.428  10.550   4.306 -0.2006 -0.0695  0.0447
19284W        W39564   4.291  13.830  11.232 -0.1176 -0.3268  0.1263
19285W        W39565  14.705   5.335  10.580 -0.3343 -0.1207  0.1494
19286W        W39566   9.600   3.157   0.224 -0.0147  0.1223  0.0264
19287W        W39567  14.580  14.767  12.638  0.3609  0.1893 -0.0969
19288W        W39568   5.932  15.612  10.632  0.0512  0.1163 -0.0986
19289W        W39569   5.990  15.632   9.689  0.3019  0.1364 -0.2634
19290W        W39570   7.384   4.187   2.401 -0.1414  0.0993 -0.1457
19291W        W39571   9.774  14.544  11.033  0.2895  0.1283 -0.2561
19292W        W39572  19.291   7.601   3.051  0.4113  0.0616 -0.1379
19293W        W39573  15.464  13.820  12.037  0.1944  0.1034 -0.1469
19294W        W39574  11.171  18.821  10.057  0.2502  0.1805 -0.1327
19295W        W39575  19.372   7.917  11.880 -0.0196 -0.2946  0.1065
19296W        W39576   9.754   9.110  11.172 -0.1268  0.1510 -0.0785
19297W        W39577   3.983   5.648  10.388 -0.3618 -0.1290 -0.1147
19298W        W39578  19.177   2.310   0.834  0.1435  0.2019  0.1586
19299W        W39579   0.368   6.038   4.567 -0.2482  0.0516 -0.2937
19300W        W39580   5.638  12.583  11.231 -0.4361 -0.1688 -0.0918
19301W        W39581   7.216  12.672  10.740 -0.1087  0.0522 -0.1439
19302W        W39582   6.940   0.999  11.005 -0.2855  0.1179 -0.3081
19303W        W39583   5.460  13.222   3.418 -0.2506  0.2638 -0.0557
19304W        W39584  11.972   6.914  12.100  0.0523 -0.1383  0.1134
19305W        W39585  16.994  17.496   0.981 -0.2296 -0.1630 -0.1035
19306W        W39586  12.913   0.602   3.250  0.0371  0.0007 -0.0153
19307W        W39587  18.471  18.318  10.314  0.2458  0.0768  0.1372
19308W        W39588  12.683   9.221   4.007 -0.1326 -0.1748 -0.3098
19309W        W39589  12.636   1.553  12.730  0.0703 -0.2305 -0.4197
19310W        W39590   3.690   6.038   3.945  0.3247  0.1776 -0.0775
19311W        W39591   4.465   3.711   0.829 -0.0743 -0.1721 -0.0074
19312W        W39592  18.386  13.928  11.181  0.1243 -0.3470 -0.2775
19313W        W39593   5.769   8.031   2.198  0.4270 -0.1359 -0.0070
19314W        W39594  13.175   3.447   0.858 -0.0724 -0.1889  0.0200
19315W        W39595  12.479   9.922  12.716  0.1733 -0.2851 -0.0620
19316W        W39596  13.913   7.963  12.327 -0.0373  0.0427 -0.0289
19317W        W39597  15.607   0.261  10.346 -0.3599  0.0236  0.1603
19318W        W39598  12.217  18.127  12.876 -0.3480  0.0052  0.1415
19319W        W39599   3.791  19.396  11.987  0.1226  0.1202 -0.2433
19320W        W39600   0.357  18.400  11.204 -0.1801  0.0540  0.2103
19321W        W39601  11.801  13.875  13.554 -0.1610  0.0992 -0.0466
19322W        W39602  14.494  12.298  10.332 -0.2081  0.1372  0.0331
19323W        W39603   1.982   8.861  13.681  0.0288  0.0743  0.0106
19324W        W39604   9.772  12.331   4.367 -0.0374  0.1207 -0.2383
19325W        W39605  13.930  14.166  10.910  0.0149 -0.0114 -0.0122
19326W        W39606   8.386  11.027   1.224 -0.1759  0.1277 -0.0204
19327W        W39607  12.255  19.676   3.234  0.1942 -0.1854  0.0005
19328W        W39608   3.135  18.020   0.777 -0.2552  0.1161 -0.1836
19329W        W39609  16.906   6.035   1.247  0.2531 -0.0859 -0.1643
19330W        W39610   3.048   0.930  12.621  0.0838  0.2003  0.3285
19331W        W39611  13.142  15.003  12.832  0.0200  0.0233 -0.1210
19332W        W39612   7.882   9.521   0.661  0.0572 -0.0350  0.1031
19333W        W39613   0.628   9.688  11.623  0.0685  0.3120 -0.0953
19334W        W39614   1.985  19.561   0.512 -0.0243 -0.0045  0.0869
19335W        W39615  13.468  17.540  12.999  0.3431  0.1136 -0.0878
19336W        W39616   1.527  15.572   0.237  0.2987 -0.3775  0.0186
19337W        W39617   3.729  12.585  13.707 -0.2148  0.1132 -0.1907
19338W        W39618  10.883  13.519   3.040 -0.1671 -0.2339  0.0405
19339W        W39619  18.512  16.779   0.367 -0.0843 -0.2543  0.1186
19340W        W39620  16.143   5.329  11.309 -0.1179 -0.0985 -0.1021
19341W        W39621   6.676   7.795   1.895  0.0183 -0.0768  0.0653
19342W        W39622   8.093   3.073   0.295 -0.0834  0.0892 -0.0894
19343W        W39623   8.220  13.544   2.580  0.2253  0.3659 -0.1366
19344W        W39624   2.269   8.798  12.318  0.0107  0.2442 -0.1794
19345W        W39625  12.323  11.083  11.768 -0.0621  0.0337  0.2610
19346W        W39626  10.353  19.146   0.280 -0.3081  0.0113 -0.4002
19347W        W39627  15.284  19.218   2.887  0.0274  0.0619  0.1935
19348W        W39628   0.772   8.358   1.037  0.0963 -0.3659  0.1633
19349W        W39629   4.286  15.304  11.498 -0.1162 -0.0331  0.1304
19350W        W39630   6.372   5.670  11.622  0.1166 -0.0464  0.2354
19351W        W39631   3.094   3.908   3.621 -0.3813  0.0781  0.0222
19352W        W39632   8.163  14.293   3.189 -0.2235 -0.4023 -0.1610
19353W        W39633  10.569   1.517  12.901 -0.0282 -0.1393  0.2024
19354W        W39634  16.659  15.277  12.474 -0.0653 -0.4617  0.5049
19355W        W39635   0.957  10.948   2.114 -0.0983  0.0797  0.2567
19356W        W39636   9.802   2.911  13.606  0.2096 -0.1926 -0.1902
19357W        W39637   8.806   9.402  11.397  0.1470 -0.1737  0.1103
19358W        W39638  10.519  15.403  12.914  0.0476  0.0665  0.0044
19359W        W39639   0.283   8.482   3.238 -0.0340  0.1506  0.1915
19360W        W39640   0.787  18.204  12.484  0.0247 -0.0933 -0.2809
19361W        W39641  17.421   6.152  10.659 -0.0566 -0.2882 -0.2288
19362W        W39642   6.320   0.476   3.405  0.2190  0.2499 -0.1296
19363W        W39643   1.269  10.941  13.706 -0.2755 -0.4314  0.1111
19364W        W39644   8.273  18.485   1.107 -0.0884 -0.0269  0.2040
19365W        W39645   8.482   5.746   9.712 -0.0115  0.3424  0.0477
19366W        W39646   4.291   6.307  12.308 -0.0876  0.2961  0.0435
19367W        W39647   5.291   4.747   0.849 -0.2014  0.3052 -0.2108
19368W        W39648  16.260   1.610   0.022  0.0006  0.2521 -0.1363
19369W        W39649  15.478   3.316  10.916  0.1199  0.2856  0.0157
19370W        W39650   4.266  18.501   2.700  0.3803 -0.2027  0.1497
19371W        W39651  13.163   8.582  10.871  0.3082 -0.0344  0.0095
19372W        W39652  10.945   0.880  10.287 -0.1171 -0.2290  0.0929
19373W        W39653   6.938  11.366   3.858 -0.2925  0.0556 -0.0254
19374W        W39654   0.804  14.777   1.816  0.1356 -0.3701 -0.3206
19375W        W39655  10.948  14.166   1.665 -0.0103 -0.2152  0.2201
19376W        W39656   5.058  17.012   1.259  0.1967  0.2289 -0.0600
19377W        W39657  13.540  17.379   2.349 -0.0479 -0.0081  0.1379
19378W        W39658   4.244  10.794  11.329  0.1430 -0.1825 -0.0728
19379W        W39659  11.413  11.255   3.866  0.2228  0.0085 -0.0361
19380W        W39660  11.298  17.279  13.053 -0.2780  0.2060 -0.1416
19381W        W39661   0.042  18.755  10.697  0.0205 -0.0130 -0.2193
19382W        W39662   3.532   4.731  12.336 -0.2349 -0.2233 -0.2914
19383W        W39663   7.048   1.376  10.068 -0.1693  0.1938 -0.0646
19384W        W39664   4.916   6.295  11.773  0.0198  0.1368  0.1312
19385W        W39665   1.750  10.362   4.273 -0.0109 -0.2355  0.1899
19386W        W39666   2.981  18.950  13.283  0.0218 -0.4294  0.0170
19387W        W39667   9.471  13.079   2.639  0.0792  0.2069  0.1418
19388W        W39668  16.215  10.412  10.628  0.1233  0.1709 -0.0459
19389W        W39669   4.249  17.111  11.949  0.0151 -0.2008 -0.2061
19390W        W39670  13.329  17.101  13.217 -0.0457  0.1148  0.2668
19391W        W39671  10.849   6.940   2.202 -0.0396 -0.0300  0.1666
19392W        W39672  11.746   8.025   2.692 -0.1783  0.2450  0.4487
19393W        W39673   3.417   9.136   1.298  0.3475 -0.2895 -0.3057
19394W        W39674  12.100   2.553   0.361 -0.2802 -0.1163  0.1315
19395W        W39675  16.463   5.861  10.499 -0.1207 -0.1029  0.0536
19396W        W39676   2.822   9.887   0.739  0.2521  0.2275 -0.0651
19397W        W39677  11.339  19.704  13.724  0.1670 -0.1208  0.3804
19398W        W39678  14.787  12.751  12.836  0.3645 -0.1181 -0.2628
19399W        W39679   2.913  14.408   3.283 -0.5140 -0.2597  0.2273
19400W        W39680  13.487  13.808   1.176  0.0266 -0.2038 -0.0057
19401W        W39681  14.367   3.426  12.319 -0.1782  0.0200  0.0966
19402W        W39682   1.367   9.260   1.051  0.0937 -0.1647  0.3914
19403W        W39683   6.272  19.093   1.999  0.0542 -0.0668  0.3411
19404W        W39684  18.108   3.868  12.256 -0.0323 -0.1163 -0.1521
19405W        W39685  14.576  14.207   1.866 -0.0484  0.1917  0.3606
19406W        W39686  11.855   7.193   1.623 -0.1118 -0.1587  0.0332
19407W        W39687  17.505  13.768  11.459 -0.0472  0.1465 -0.1259
19408W        W39688  18.382  19.279   0.685  0.2814  0.2216  0.1789
19409W        W39689  15.072  11.675   9.779  0.2613 -0.1761  0.0114
19410W        W39690  12.152  13.148  11.159  0.1980  0.1023  0.1522
19411W        W39691  16.949   7.405  11.498 -0.2559 -0.0315  0.1920
19412W        W39692  13.704   7.449   3.480  0.1248  0.0413  0.1449
19413W        W39693   7.383  11.256  12.844  0.3175  0.2073 -0.0171
19414W        W39694  10.352   2.214   9.518 -0.1634  0.0388  0.1894
19415W        W39695   7.288  18.744  10.938  0.4178  0.0507  0.4670
19416W        W39696  13.478  13.379  11.018  0.1411  0.0623  0.0378
19417W        W39697  16.078   0.063  12.533  0.1067 -0.3093  0.0310
19418W        W39698  14.671   3.802   2.780  0.0576 -0.1039  0.1681
19419W        W39699  13.001  14.335  12.060  0.0182  0.1936 -0.2793
19420W        W39700   6.076  18.195  11.351 -0.1384  0.0285  0.1182
19421W        W39701  11.323   3.450  13.338  0.0869 -0.1392 -0.2951
19422W        W39702   9.585   8.035  13.025 -0.0950  0.2726  0.0549
19423W        W39703  16.237   6.825  10.635  0.0203  0.1461  0.2375
19424W        W39704   0.230   4.215   1.226  0.0692 -0.0449 -0.0402
19425W        W39705  18.669  16.241   1.798 -0.4965 -0.2513  0.1642
19426W        W39706  11.342  13.001  13.492  0.2176  0.2745 -0.2442
19427W        W39707   4.545   8.984   1.022 -0.0125 -0.1941 -0.0295
19428W        W39708  17.555  17.488   3.222 -0.3937 -0.0558 -0.1498
19429W        W39709  11.698  16.469  10.400 -0.1021  0.1719  0.0359
19430W        W39710   4.665   2.175  11.599  0.3301 -0.0375 -0.2798
19431W        W39711   7.821   3.518   3.731  0.1785 -0.2265  0.2340
19432W        W39712  14.080   0.685   2.370  0.4444  0.0400 -0.0375
19433W        W39713   6.980  19.130  13.350 -0.1225  0.0884  0.0444
19434W        W39714  18.750   0.865   9.814  0.1143  0.3389  0.0264
19435W        W39715   5.063  13.984   1.244  0.2799 -0.1501 -0.0376
19436W        W39716  13.943  16.064   1.992  0.0935 -0.0329  0.2108
19437W        W39717  15.894   1.858  12.156  0.0743  0.1301 -0.0392
19438W        W39718  11.629   8.992  10.239  0.1760  0.0888  0.0037
19439W        W39719   6.706  19.107  10.502  0.0670 -0.1175  0.2267
19440W        W39720  10.478  14.913  13.833 -0.2266  0.1256  0.2396
19441W        W39721  17.519  12.224   3.130 -0.0592 -0.1250 -0.1192
19442W        W39722  19.667   2.454  11.670 -0.2294 -0.0331 -0.1268
19443W        W39723   8.431   1.438  10.421  0.0642  0.0458 -0.0716
19444W        W39724  14.952  11.873  11.474 -0.0198 -0.1477 -0.0905
19445W        W39725   4.199   9.490   1.016  0.3686  0.3705  0.2577
19446W        W39726  15.703  16.246  10.514  0.0059  0.3886 -0.0184
19447W        W39727   5.615   3.693  10.429  0.0504 -0.3122 -0.2309
19448W        W39728  11.382  19.214   1.929 -0.1419  0.0018 -0.1520
19449W        W39729   4.596  13.068  11.967 -0.0308 -0.0466 -0.1501
19450W        W39730  19.954  11.536  10.033  0.0273 -0.1080  0.0600
19451W        W39731   2.948   8.199   2.991 -0.0180  0.1413 -0.0779
19452W        W39732  11.318  16.173   2.903  0.1096 -0.2615 -0.3702
19453W        W39733  14.063  11.989  10.215  0.0391  0.1276  0.2783
19454W        W39734  18.801   1.119  11.754 -0.0403 -0.0725  0.0379
19455W        W39735   0.780   9.886  10.275 -0.1778 -0.3351 -0.1559
19456W        W39736  14.032  10.945   3.361 -0.1945  0.2382  0.0930
19457W        W39737  14.269   2.519  12.600  0.0192 -0.4452 -0.1244
19458W        W39738   8.755   4.007   2.409 -0.0216 -0.1571 -0.0726
19459W        W39739  15.116   8.601  12.055 -0.2276 -0.2831  0.0369
19460W        W39740  10.172   4.322   2.643 -0.0216 -0.1506  0.1296
19461W        W39741   1.389   3.477  12.187  0.2021  0.0002  0.1793
19462W        W39742   6.179   3.076   2.130 -0.2246 -0.0393 -0.0790
19463W        W39743   1.281   5.872   2.187 -0.4200 -0.2964 -0.2125
19464W        W39744  13.406  16.224   3.603  0.0257 -0.1012 -0.1406
19465W        W39745  11.699   8.011   0.975 -0.1564  0.0012 -0.0235
19466W        W39746   3.188   5.599  10.724  0.0992  0.3663 -0.1948
19467W        W39747   2.823  13.231   2.842 -0.0244 -0.0922  0.2383
19468W        W39748  16.352   3.394  12.114 -0.3657 -0.0097 -0.2876
19469W        W39749   3.982   8.850   4.849  0.0738 -0.1885  0.3516
19470W        W39750  13.388  12.028   0.418 -0.0455  0.1169  0.1958
19471W        W39751  13.051  11.878   1.683  0.1622  0.1125 -0.1215
19472W        W39752  10.233   3.880  12.982  0.0509  0.0581  0.2423
19473W        W39753  13.606  19.275   0.436 -0.1415 -0.5298 -0.1626
19474W        W39754  12.354   7.704  13.214 -0.1097  0.0698  0.1434
19475W        W39755   1.938   2.826  13.126  0.1550  0.1700  0.2141
19476W        W39756   6.350   4.325   0.326 -0.0127  0.0152  0.3741
19477W        W39757  12.418   5.463   1.266  0.0509  0.2057 -0.1371
19478W        W39758   1.600   5.133  13.387  0.1299  0.0954  0.1430
19479W        W39759  19.606   7.140  12.856 -0.0635  0.1436 -0.0602
19480W        W39760   8.321  15.268   0.938 -0.3742  0.2399 -0.0575
19481W        W39761  17.303  13.560  10.146  0.0160  0.1237 -0.1761
19482W        W39762   2.533   4.846  13.457 -0.0264  0.1222 -0.0392
19483W        W39763   5.191  16.733  10.928  0.0710  0.1772 -0.2415
19484W        W39764  14.624   1.426  10.314 -0.2398 -0.3321  0.0616
19485W        W39765  11.518   3.699   1.827  0.1626 -0.0502  0.0774
19486W        W39766  16.599  13.061   1.064 -0.0005 -0.0863  0.3220
19487W        W39767   5.946  16.884   0.618  0.2395 -0.0371  0.0682
19488W        W39768   2.110   0.011   0.787 -0.0982  0.2623  0.1425
19489W        W39769   1.836   6.893   1.636 -0.1075  0.5906 -0.0156
19490W        W39770   9.515  15.827  13.065  0.1739  0.3845  0.2495
19491W        W39771  14.579   9.250   0.091 -0.1126 -0.0037  0.1751
19492W        W39772  15.281   1.032   2.244  0.1833  0.1286  0.1608
19493W        W39773   7.250  18.163  11.517  0.3640 -0.1006  0.0872
19494W        W39774  17.146   0.906   0.121 -0.0504 -0.0836 -0.2105
19495W        W39775  15.974   4.206   3.274 -0.1845 -0.0297 -0.0295
19496W        W39776   5.092   8.529   2.302  0.1022  0.3312  0.0217
19497W        W39777   3.633   8.041  13.736  0.3119 -0.1168 -0.0283
19498W        W39778  16.048   0.371  11.197  0.0405  0.2726 -0.1332
19499W        W39779   6.736  19.953   0.031  0.0695 -0.1562  0.4292
19500W        W39780   4.219   4.208  12.862 -0.0155  0.1989 -0.1628
19501W        W39781  17.613  17.313   1.930 -0.1267  0.1734 -0.1702
19502W        W39782   0.484   8.204   3.582 -0.1305 -0.0004 -0.2576
19503W        W39783   2.109   7.448   2.815  0.0893  0.2805 -0.2533
19504W        W39784  15.784  13.532  12.212  0.0438 -0.1735 -0.1349
19505W        W39785  17.568  14.069   9.967  0.2737 -0.1397  0.0069
19506W        W39786  18.562   4.336   0.436 -0.0003  0.0501 -0.2346
19507W        W39787   2.776   1.690   4.605 -0.1906 -0.2887 -0.2240
19508W        W39788  10.359  10.853   1.929  0.3862  0.0939 -0.4592
19509W        W39789   8.836  18.359  11.243 -0.0612  0.0731  0.3363
19510W        W39790  16.610   6.264  13.721  0.2383 -0.0003  0.0859
19511W        W39791  13.307  11.198  13.855  0.0320 -0.1548 -0.2470
19512W        W39792   0.969   4.064   3.790 -0.0922 -0.5014 -0.0573
19513W        W39793   8.578  11.962   2.436 -0.1116 -0.1535 -0.1704
19514W        W39794  16.877  19.840   2.200  0.1055 -0.0026 -0.0111
19515W        W39795  19.486   3.958   0.697 -0.1291  0.1170 -0.0359
19516W        W39796   1.223  19.563  11.269  0.0721 -0.1890  0.1046
19517W        W39797  13.392  17.695  12.308 -0.1833  0.0550  0.1231
19518W        W39798  17.178  17.177  11.030  0.0384 -0.0927 -0.1315
19519W        W39799  11.777  16.187  13.649 -0.3109 -0.1621  0.0137
19520W        W39800  19.872  15.265   1.573 -0.0223 -0.0989  0.0283
19521W        W39801  17.449   8.503   2.458  0.1097  0.1102 -0.1526
19522W        W39802  13.093  10.233  12.192 -0.2135 -0.2216 -0.1408
19523W        W39803   5.483  12.695   0.093 -0.0058 -0.3535 -0.2457
19524W        W39804   0.031  14.429  10.379  0.3138  0.1516  0.1020
19525W        W39805   4.297   6.454  11.072 -0.1058 -0.1688  0.1564
19526W        W39806   8.885   6.383  12.249 -0.0135 -0.0130 -0.1645
19527W        W39807   7.180   4.275  13.052 -0.2522  0.3288  0.0917
19528W        W39808  17.234   8.951   1.051 -0.4055  0.1618  0.0681
19529W        W39809  19.185  16.575   3.552  0.0110  0.2085  0.0644
19530W        W39810  13.477  18.514   4.159 -0.0804  0.2501  0.0732
19531W        W39811   1.423  16.564   2.990 -0.0832 -0.1261  0.1117
19532W        W39812  11.063   4.987   0.344 -0.3755  0.0880 -0.0603
19533W        W39813   6.407  19.288  10.841  0.2495  0.0338 -0.1077
19534W        W39814   6.976   1.400  12.917  0.2245  0.2363  0.3404
19535W        W39815   8.204   4.471  12.948 -0.1689 -0.1229 -0.0045
19536W        W39816   9.236  18.132  10.946 -0.2035 -0.1907 -0.0966
19537W        W39817  10.953   5.417  13.789  0.2287 -0.2699  0.1154
19538W        W39818   8.819   9.570  12.877 -0.0387  0.1635  0.0820
19539W        W39819  19.825  19.051   1.543 -0.0248  0.0704 -0.1716
19540W        W39820   9.656  11.677   1.086 -0.0413 -0.0242 -0.1391
19541W        W39821   3.448   2.145   3.560  0.0745 -0.1570 -0.2309
19542W        W39822  13.423   7.317   1.502 -0.0288 -0.1151  0.1655
19543W        W39823   7.930  16.646   0.152 -0.1404  0.1128  0.0063
19544W        W39824  10.349   4.884   3.878  0.2311  0.0192 -0.0173
19545W        W39825   1.954  15.980   0.339  0.1841  0.0331 -0.0225
19546W        W39826  15.252   7.756   9.842  0.1975  0.1267  0.0136
19547W        W39827  17.157  12.205   1.040 -0.0111 -0.1245 -0.3017
19548W        W39828  13.223   9.746  10.833  0.1213  0.1018  0.2593
19549W        W39829   7.644  12.415   5.282  0.0721  0.2998 -0.2191
19550W        W39830  19.652  13.197   2.228  0.0105  0.1675  0.1597
19551W        W39831  15.759   8.379   0.467 -0.0851 -0.2465  0.3677
19552W        W39832   1.807   1.811  13.156  0.1517  0.1005  0.1114
19553W        W39833  16.313   9.922  11.264  0.1194 -0.2084 -0.1161
19554W        W39834  16.092   0.428  10.128  0.4854  0.1116 -0.1581
19555W        W39835  12.503   0.193  11.118  0.0160  0.0914  0.0455
19556W        W39836  13.991   6.037   0.160 -0.0709  0.1663 -0.0547
19557W        W39837  10.071   0.619   0.515  0.5860 -0.2486  0.1408
19558W        W39838  16.726  18.328   3.279  0.0418  0.1174  0.1273
19559W        W39839  19.143  16.110  13.833 -0.0622 -0.4080 -0.0027
19560W        W39840  11.720  10.834   1.977 -0.0496  0.0428 -0.1828
19561W        W39841   5.282   1.879  10.159  0.1587 -0.2640  0.0292
19562W        W39842   4.081   6.671  12.030  0.1051  0.1892  0.1021
19563W        W39843   3.367   3.787   2.694 -0.0644  0.0611 -0.0360
19564W        W39844  12.956   0.660   1.684  0.4949 -0.2877 -0.1183
19565W        W39845  13.236   2.249  13.148 -0.1730 -0.0080  0.3420
19566W        W39846  10.505   4.178  13.816 -0.3789  0.2452  0.0338
19567W        W39847  15.245  15.785   0.069 -0.2859 -0.0036 -0.1731
19568W        W39848   0.281  14.013  10.581  0.0998  0.0891 -0.0733
19569W        W39849   4.419  14.177   0.220 -0.1001 -0.1460  0.0809
19570W        W39850   4.788   6.680   0.577  0.0226  0.1074  0.1816
19571W        W39851   0.062   1.859  11.630 -0.1888 -0.1777  0.1903
19572W        W39852   2.525  19.625   0.550  0.1915 -0.2124 -0.1411
19573W        W39853   5.983   0.062   3.509  0.1272  0.4602 -0.3098
19574W        W39854  11.214   5.121  12.353 -0.0613 -0.0954 -0.2499
19575W        W39855  14.896  19.290   3.472 -0.2078  0.1688 -0.0518
19576W        W39856  16.742  11.910  10.697 -0.3221 -0.0378 -0.2679
19577W        W39857  11.714   0.857  12.957  0.3320  0.1121  0.1068
19578W        W39858  14.481   9.231   2.953  0.0573  0.1168  0.0552
19579W        W39859  15.494  16.553  13.229  0.2783 -0.0834 -0.1523
19580W        W39860  10.519   8.791   0.896  0.1671  0.2304  0.1747
19581W        W39861  12.085  11.447  12.884 -0.2883  0.2662  0.2150
19582W        W39862  11.042  12.363   0.248  0.0023 -0.1636 -0.0503
19583W        W39863  14.405   0.413   1.536  0.1059  0.1817 -0.2015
19584W        W39864   8.074   4.835  11.956 -0.0139 -0.2303  0.3712
19585W        W39865  14.905  17.904   2.607 -0.0451  0.0556 -0.0449
19586W        W39866   0.926  13.280  13.050 -0.0016  0.3669 -0.1017
19587W        W39867  10.698   3.232  11.599  0.1276  0.3451 -0.0679
19588W        W39868  10.565   2.525   3.729 -0.0440  0.0881 -0.1798
19589W        W39869  14.428  13.288   3.984  0.1753 -0.0807  0.1149
19590W        W39870   9.390   2.953   3.056 -0.0242 -0.1705 -0.1188
19591W        W39871   3.682   8.595   3.824 -0.0108  0.0455 -0.3483
19592W        W39872   5.171   3.050  12.472 -0.0049 -0.1017  0.2276
19593W        W39873   2.717   4.294   3.681  0.2016 -0.1614  0.1603
19594W        W39874   5.551   4.610  12.123 -0.2388  0.2010  0.1623
19595W        W39875   2.620  15.128  12.357 -0.0804  0.1911  0.4189
19596W        W39876  17.623   7.042   1.801  0.2675  0.1353  0.0782
19597W        W39877  15.957  15.721   4.346 -0.2408  0.1798 -0.1855
19598W        W39878  16.638  17.827   1.159  0.0215 -0.1820 -0.3935
19599W        W39879   2.377  18.342   1.190  0.1494 -0.2881 -0.0541
19600W        W39880   8.397   0.801  11.904 -0.1167  0.2704  0.2964
19601W        W39881  11.049  17.460   0.167 -0.0963  0.2302  0.1708
19602W        W39882  19.400   7.803  13.626  0.2860 -0.0188 -0.1937
19603W        W39883   3.265  14.355   3.593 -0.2638 -0.1154 -0.1433
19604W        W39884  14.796   2.476  13.356  0.0063  0.2734  0.3722
19605W        W39885  18.276   3.726  13.668  0.0299 -0.1089  0.0083
19606W        W39886  14.852   7.444   3.943 -0.1412  0.1512 -0.1388
19607W        W39887  12.200  11.442   0.847 -0.0638 -0.0087 -0.0617
19608W        W39888   8.411  10.040   5.259  0.1411  0.1833  0.0739
19609W        W39889   5.397  19.924   2.223  0.2196 -0.0771  0.3970
19610W        W39890  14.302   3.150   1.751  0.0184 -0.1086 -0.0246
19611W        W39891   3.343  11.355   2.094 -0.0543 -0.1389  0.2639
19612W        W39892   7.767  16.560  13.535  0.0265 -0.1972  0.0875
19613W        W39893  10.216  13.925   1.018  0.0680 -0.1926 -0.1505
19614W        W39894   4.601   7.499  11.827  0.1573 -0.0159  0.1286
19615W        W39895  13.018  13.828  12.171 -0.0101  0.0456  0.1173
19616W        W39896  10.701  11.610   1.897  0.0702  0.2645  0.2161
19617W        W39897  15.545  13.299   1.046  0.0974 -0.1188  0.0691
19618W        W39898  16.223   2.738   0.725 -0.1048 -0.0168 -0.2834
19619W        W39899  17.128   0.658  13.566  0.4032  0.0376 -0.1464
19620W        W39900   7.960  13.933   2.828  0.1281 -0.0334 -0.0439
19621W        W39901  14.215   0.446   2.859 -0.0055 -0.0765 -0.0363
19622W        W39902   3.767  14.145   0.886 -0.0393 -0.3014  0.2056
19623W        W39903  17.986  15.007   0.743  0.2999  0.2027 -0.2920
19624W        W39904   4.738   3.539  10.618 -0.0363  0.0845  0.1061
19625W        W39905   2.901   6.667  11.462  0.1973  0.0173 -0.0208
19626W        W39906  16.693   3.604  11.321  0.1647  0.1746 -0.0161
19627W        W39907   5.469  13.050   3.888  0.1313 -0.0853 -0.1207
19628W        W39908   6.571  11.043  12.375 -0.1288 -0.1741  0.0736
19629W        W39909   2.081   6.425  10.553 -0.1310 -0.1256  0.2899
19630W        W39910   1.035  13.458  12.560 -0.0488 -0.2038  0.0597
19631W        W39911   1.103   6.639  10.329 -0.2012  0.0827  0.1651
19632W        W39912  17.767  13.193  12.708 -0.2579 -0.2342 -0.0890
19633W        W39913  15.937  15.212  13.640  0.0224  0.1796  0.1420
19634W        W39914  14.885   8.819   1.216  0.0506 -0.0063 -0.0080
19635W        W39915  13.911   1.826  12.536 -0.2130  0.1720 -0.0338
19636W        W39916   1.385   0.363   0.448 -0.0307  0.1989  0.0830
19637W        W39917  19.285   4.184  10.393 -0.1169  0.0310  0.0919
19638W        W39918  10.643  12.812   1.282  0.0892  0.1561 -0.1132
19639W        W39919  19.635   9.751  10.059 -0.0673 -0.2660 -0.0817
19640W        W39920   0.270  13.880  12.529  0.2481 -0.1477 -0.0705
19641W        W39921  17.231  11.080  12.005  0.0839  0.0711  0.0988
19642W        W39922  18.596   7.319  11.709 -0.2647 -0.0310  0.1900
19643W        W39923  19.618   2.861  10.275 -0.0179 -0.1482  0.2842
19644W        W39924   3.503   8.410  13.441 -0.0700 -0.2512 -0.0726
19645W        W39925  11.846  19.080   1.816 -0.1294 -0.1084 -0.1742
19646W        W39926  16.366   5.862   2.404 -0.0865  0.0650  0.1008
19647W        W39927  14.941  14.102  11.665 -0.2412  0.0235  0.1555
19648W        W39928   3.666  13.204   3.997  0.2023 -0.1489  0.0695
19649W        W39929  12.807   3.279   2.493  0.1011  0.0296  0.3445
19650W        W39930  11.242  10.877   4.913  0.1787 -0.1612  0.0776
19651W        W39931  17.023   9.201   3.226 -0.2229 -0.1781 -0.0131
19652W        W39932   1.521  18.949  13.645 -0.0660 -0.1460 -0.0114
19653W        W39933   3.163  10.840   0.778 -0.0040 -0.0769  0.0343
19654W        W39934  14.874   6.877   0.461  0.1302 -0.1383 -0.0432
19655W        W39935  15.775  16.298  12.056 -0.0344  0.0170 -0.2072
19656W        W39936   5.636  14.286  11.175 -0.1597  0.0319  0.0272
19657W        W39937   5.139  14.574   2.308 -0.1325  0.0164 -0.2654
19658W        W39938  12.409   9.073   3.626 -0.0617  0.1006  0.1113
19659W        W39939   1.265   8.095  10.582  0.4332  0.2449 -0.0547
19660W        W39940   8.062  16.613  12.400  0.1129 -0.2270  0.0197
19661W        W39941  19.083  14.602   1.574  0.0276  0.1657  0.2060
19662W        W39942  15.927   9.038   1.169  0.2953  0.1040  0.1507
19663W        W39943   9.472   7.830   1.574 -0.1076 -0.2479  0.2800
19664W        W39944  13.774   4.530   2.620  0.1869  0.1247 -0.3140
19665W        W39945   1.942  13.603   4.717  0.2756 -0.1838 -0.2650
19666W        W39946  12.444   1.003   2.471 -0.2179  0.1118 -0.1210
19667W        W39947  12.245  10.622  11.096  0.0283 -0.0398  0.0103
19668W        W39948  17.908   8.912  12.608 -0.1975 -0.0739 -0.2908
19669W        W39949   8.588  15.841  10.860  0.0622  0.1133 -0.0668
19670W        W39950  11.892  16.842  12.571  0.0063 -0.0782  0.0213
19671W        W39951   4.006   5.455  12.451 -0.0521  0.2727  0.1987
19672W        W39952   5.250  19.374   2.197 -0.3085 -0.1384 -0.0663
19673W        W39953  19.432   3.329   0.090 -0.2887  0.2043  0.2314
19674W        W39954  12.288   8.327   1.579  0.2205  0.4469  0.0139
19675W        W39955   6.835  11.057  12.845 -0.0738  0.1672 -0.1252
19676W        W39956   5.272   2.056   1.406 -0.0786  0.1044  0.2618
19677W        W39957   3.530  10.515  12.852  0.0955 -0.0611  0.1933
19678W        W39958  16.551   1.010   0.766  0.0397 -0.0125  0.0928
19679W        W39959  14.257   4.078  13.394  0.0527  0.0733 -0.0136
19680W        W39960  14.631  11.851  10.401  0.0304  0.0032  0.2794
19681W        W39961  14.379  13.193   0.212  0.1424 -0.0705 -0.3121
19682W        W39962  10.737  19.599   2.840  0.5261 -0.1930 -0.0037
19683W        W39963  12.637   4.196  10.802  0.1122 -0.0841 -0.1514
19684W        W39964  18.148   4.380  12.405 -0.1691 -0.4571 -0.1996
19685W        W39965   7.651  10.407   0.845 -0.2533  0.0472  0.0218
19686W        W39966   8.390  15.166  13.378  0.1638  0.2793 -0.0872
19687W        W39967  17.809  14.066  13.206  0.0583  0.1421 -0.1511
19688W        W39968  12.803  18.734  13.119  0.0175  0.0199 -0.1018
19689W        W39969  17.466   0.658   2.347 -0.2596 -0.1116 -0.1881
19690W        W39970   5.832   9.778   0.659  0.1949  0.1042  0.1424
19691W        W39971  17.197   1.355   1.363  0.0755  0.2050 -0.1392
19692W        W39972   0.434   8.318   1.423  0.0680  0.2541  0.1452
19693W        W39973   2.469   6.006  10.441 -0.1168  0.1056 -0.1822
19694W        W39974  13.053   9.555  13.567 -0.2818 -0.0288  0.0026
19695W        W39975   1.568  13.997  12.030  0.3280  0.2158 -0.0991
19696W        W39976  14.801   6.008  11.728  0.0712  0.2751  0.0407
19697W        W39977   5.374   1.893  13.557  0.3484  0.0813 -0.0478
19698W        W39978  16.249  17.197   2.824  0.0371 -0.1734 -0.0797
19699W        W39979  15.661  12.663   9.754  0.0649 -0.0220  0.0717
19700W        W39980  18.835   7.357   0.462 -0.3640  0.1771 -0.0926
19701W        W39981  16.705   4.576   0.530  0.0633  0.1286  0.0197
19702W        W39982   6.851   9.236   1.654  0.3088 -0.2667  0.0127
19703W        W39983  15.479  18.314   3.557 -0.2055 -0.0465 -0.0168
19704W        W39984   2.937  12.504   2.311  0.2703 -0.1647  0.3046
19705W        W39985  11.540  12.358   0.175  0.1301 -0.2728  0.2781
19706W        W39986  15.782   2.220  13.346 -0.4506 -0.1917  0.1051
19707W        W39987   8.327   6.069   9.307 -0.0463  0.0654  0.1339
19708W        W39988   7.290  10.303   3.344  0.2483 -0.0568  0.1719
19709W        W39989   1.342   7.237  12.907 -0.1662 -0.0577  0.3681
19710W        W39990  12.292  18.862  13.594  0.1781 -0.2175  0.2541
19711W        W39991   6.449   7.455   3.560  0.0039  0.1205 -0.0384
19712W        W39992  10.753   1.166   0.108  0.3424 -0.1507  0.2682
19713W        W39993  17.736  11.857   1.453  0.0399 -0.0359 -0.2409
19714W        W39994  15.136   5.068  10.561  0.1786  0.2727 -0.0067
19715W        W39995   8.284  10.221  11.638 -0.0673  0.0362 -0.5069
19716W        W39996  19.034   3.339  12.501 -0.0176  0.1819  0.2411
19717W        W39997   4.789  14.788  12.797 -0.1312 -0.1250  0.2269
19718W        W39998   2.501   2.531   1.275 -0.2383 -0.0043  0.0248
19719W        W39999   3.448   6.468   4.076 -0.1940  0.2587 -0.0344
19720W        W40000   9.571   5.845  10.173  0.0635  0.3774 -0.0840
19721W        W40001  16.916  14.790  12.516  0.0978  0.2992  0.0991
19722W        W40002  14.914  15.848   2.162  0.1199 -0.0204 -0.1706
19723W        W40003  14.622  17.804  11.795 -0.1716 -0.3506  0.0793
19724W        W40004  14.887  10.368  10.060  0.1095 -0.0981 -0.2765
19725W        W40005   4.071   1.305  11.494  0.1944  0.0186 -0.0635
19726W        W40006  19.800   7.550   3.050  0.4613  0.3442  0.0729
19727W        W40007  17.074  17.832   9.541  0.0266 -0.1905 -0.2514
19728W        W40008  13.281   7.669   1.178  0.1579 -0.1165  0.1367
19729W        W40009  10.780   4.863   1.702 -0.0111  0.1027 -0.1689
19730W        W40010  10.548  14.407   1.917  0.0888  0.1826 -0.2065
19731W        W40011   6.907  16.728   3.213  0.3029  0.1363  0.3666
19732W        W40012  11.645  15.366  12.167  0.1322  0.0897 -0.0431
19733W        W40013   2.316   9.575  11.898  0.2400 -0.2385  0.0356
19734W        W40014   2.404  11.542   1.813  0.3645  0.1462 -0.1807
19735W        W40015  14.756   7.704  13.060 -0.1351  0.2803  0.0925
19736W        W40016   3.968   9.962   3.698  0.0438 -0.0326  0.1721
19737W        W40017   1.312  19.353   1.957 -0.1617 -0.4097  0.1856
19738W        W40018  11.144  18.612  12.916  0.0142  0.1583 -0.2561
19739W        W40019  12.868   5.685   0.037  0.0047  0.1702  0.0743
19740W        W40020  15.802  11.033  12.721  0.2456  0.2949  0.0092
19741W        W40021   3.450   1.505   1.506 -0.0782 -0.1192 -0.1252
19742W        W40022   1.205   1.097  13.482  0.1990 -0.0595  0.0570
19743W        W40023  14.445   1.359   3.779 -0.2598  0.2105 -0.0143
19744W        W40024   4.962  14.333  10.344 -0.2298 -0.2621 -0.1303
19745W        W40025   7.020  15.375  13.399 -0.1185  0.0218  0.1725
19746W        W40026   8.260   7.281   4.359 -0.1816 -0.1719 -0.1970
19747W        W40027  12.548  18.387  13.602  0.1945  0.2091  0.3516
19748W        W40028   8.014  15.117   0.471  0.0080  0.1208  0.1923
19749W        W40029   4.884   7.741   2.467 -0.1385  0.2546  0.4579
19750W        W40030  12.157   1.634   1.750  0.2590 -0.0560 -0.0288
19751W        W40031  13.964  19.083   9.805 -0.1101 -0.0530  0.2475
19752W        W40032  16.738  19.879   2.982  0.1347  0.0310  0.2136
19753W        W40033  13.314   2.975   3.207  0.4216  0.1741 -0.2119
19754W        W40034   5.834   4.258  11.937  0.1594 -0.2655 -0.0451
19755W        W40035  12.282   9.354  13.157  0.0836 -0.2080 -0.0782
19756W        W40036  11.032  18.272   0.909  0.1119 -0.4707 -0.2076
19757W        W40037   9.190  10.126   1.300 -0.2297  0.0790  0.3685
19758W        W40038   5.599   4.711  10.452 -0.3076  0.0203 -0.1474
19759W        W40039   6.137   3.678   9.218 -0.0356  0.1724  0.2538
19760W        W40040  19.209  14.459  10.960  0.3929 -0.1440 -0.1577
19761W        W40041  12.474   1.969  12.449 -0.2427 -0.1937  0.1040
19762W        W40042  14.489  10.318   2.923  0.0296 -0.0106  0.0920
19763W        W40043   1.295  12.804  10.362 -0.1075 -0.1108 -0.1642
19764W        W40044   9.435   1.304   0.340  0.2721  0.4190  0.1402
19765W        W40045   5.697  13.532   2.016 -0.1933  0.4912  0.1645
19766W        W40046  19.082   3.121   2.972 -0.2714  0.2701 -0.0578
19767W        W40047   2.586  16.021  11.275  0.1454  0.0273  0.0828
19768W        W40048  14.042   2.399   3.013 -0.0788 -0.0273 -0.1636
19769W        W40049   3.336   7.800   1.318  0.0834  0.4360  0.2892
19770W        W40050   4.522   1.089   0.554 -0.2476 -0.0866 -0.0072
19771W        W40051   7.547  14.917   1.526 -0.2464 -0.1980 -0.0108
19772W        W40052   6.702   9.154   3.830 -0.0899  0.0879  0.2273
19773W        W40053   8.665   0.805   2.464 -0.1400  0.0243 -0.0027
19774W        W40054   1.888  13.318  13.579  0.0177  0.0965  0.0661
19775W        W40055  11.076   7.207  13.772  0.1940  0.0065 -0.3227
19776W        W40056   8.406  13.488   0.839 -0.1856  0.0697 -0.0743
19777W        W40057  19.514   6.278  12.731  0.0215  0.1897 -0.0611
19778W        W40058  11.986   1.735  12.580 -0.1979  0.0122  0.0871
19779W        W40059   0.062  13.929   1.904 -0.0488 -0.2724  0.0739
19780W        W40060  12.440   5.622   1.870 -0.0636 -0.0441 -0.1338
19781W        W40061   8.560  14.421   4.178  0.4247  0.2068 -0.0485
19782W        W40062  15.064   9.784   2.159 -0.0429  0.0597  0.1681
19783W        W40063   0.993   6.188   0.058 -0.0828  0.1930 -0.1045
19784W        W40064  16.785  11.732   3.045  0.0610  0.0563  0.0486
19785W        W40065  18.487   5.267  11.444 -0.1718  0.0277 -0.1434
19786W        W40066   3.648   3.015   0.270 -0.4445  0.2098  0.1328
19787W        W40067  14.743  12.908   0.433 -0.0553 -0.0057  0.0739
19788W        W40068  14.109   6.887   1.634  0.3009  0.0822  0.0379
19789W        W40069  14.203  15.938  11.997 -0.0115 -0.1526 -0.1979
19790W        W40070   2.996   1.771  12.795  0.0375 -0.0186  0.0302
19791W        W40071   8.393  12.928   3.719  0.0938 -0.0385 -0.2874
19792W        W40072   8.659  13.416   1.420 -0.1373 -0.0224 -0.1481
19793W        W40073  15.709   8.952  13.144  0.1295 -0.0640  0.0188
19794W        W40074   0.227  14.421   0.637 -0.2436 -0.1387 -0.0526
19795W        W40075   8.331   9.359  13.033 -0.3575  0.1604 -0.1168
19796W        W40076  11.344   9.415  11.996  0.2980 -0.0101 -0.0760
19797W        W40077  10.123   6.149   0.199  0.1107  0.0257  0.0589
19798W        W40078  14.034   8.644  13.528  0.0369  0.0921  0.3066
19799W        W40079  16.007  15.975   3.097  0.2141  0.1741  0.4743
19800W        W40080   9.562   7.759  12.189 -0.1695 -0.1474 -0.1500
19801W        W40081  12.807   1.174  12.091 -0.0110 -0.2828  0.2503
19802W        W40082  15.003   9.106   3.758  0.2455  0.0109  0.1450
19803W        W40083   9.979  10.128  10.558 -0.3723  0.0614 -0.0239
19804W        W40084   5.243   9.295   3.464 -0.2953 -0.1202  0.1717
19805W        W40085   9.471  15.122  11.772 -0.0640  0.0338 -0.0658
19806W        W40086   5.434  15.430  12.852 -0.1961  0.0399 -0.0432
19807W        W40087   6.490  16.285  12.422  0.2141  0.0963  0.2478
19808W        W40088   0.711   3.513  13.593 -0.0424 -0.2209 -0.1543
19809W        W40089  10.860   8.101  10.783 -0.0764 -0.0533  0.1198
19810W        W40090  15.907  11.437  13.517  0.4097 -0.1839  0.1882
19811W        W40091   5.325   2.245   0.122 -0.1054 -0.0284 -0.2724
19812W        W40092  12.518  14.382   0.215  0.1359 -0.1137 -0.3538
19813W        W40093   2.993  10.132   0.240 -0.0790 -0.0573  0.2155
19814W        W40094  11.669   4.420  13.013 -0.0425 -0.1482  0.0900
19815W        W40095   8.079   9.231  10.106 -0.0028  0.0106  0.0008
19816W        W40096   0.773   3.415   4.495  0.0709 -0.3019  0.0707
19817W        W40097   8.931   9.287  11.951  0.2005 -0.0323  0.0772
19818W        W40098  16.233   0.096  10.519  0.0643 -0.0334 -0.1169
19819W        W40099   7.304   5.846   3.973  0.3921  0.0378  0.1785
19820W        W40100   0.755   7.936  10.462 -0.1095  0.0683 -0.2035
19821W        W40101  17.809  18.691  12.750 -0.0512 -0.1946 -0.0075
19822W        W40102   7.213  19.162   0.799  0.0245 -0.3265 -0.1527
19823W        W40103  18.525   7.383   1.993  0.0808  0.0182 -0.1057
19824W        W40104  16.318  14.509  12.798 -0.1772  0.0266  0.4796
19825W        W40105  18.422  12.705   3.700  0.0624  0.2214  0.0267
19826W        W40106   8.170  16.988   2.948 -0.1540 -0.1497  0.2105
19827W        W40107  11.388   6.453  11.551 -0.3476  0.0412  0.0498
19828W        W40108   7.278   8.583   3.245  0.0195 -0.2435 -0.0781
19829W        W40109   0.593   8.906   1.184  0.3552  0.0755  0.0362
19830W        W40110  11.304  16.220  12.304 -0.3145  0.1462  0.0157
19831W        W40111  17.289  18.882   2.988  0.1381 -0.0197  0.2377
19832W        W40112   2.472   9.631  10.774 -0.2066 -0.1800 -0.2110
19833W        W40113  13.197   2.500   4.874  0.0532  0.2950  0.3745
19834W        W40114   0.095   2.849   2.601 -0.2342  0.2733 -0.1913
19835W        W40115  12.024   7.870  13.494  0.2004 -0.2794 -0.0202
19836W        W40116  10.413  12.325  12.279 -0.0600  0.4046 -0.4049
19837W        W40117   0.949  17.773   0.379 -0.1518 -0.0249 -0.1951
19838W        W40118  13.233   9.087  10.960 -0.0862 -0.1356  0.1716
19839W        W40119   9.021   5.425   1.423 -0.1965  0.0010 -0.0155
19840W        W40120  18.668   6.937  10.655  0.1055  0.1350 -0.2312
19841W        W40121   3.468   2.937   2.941  0.2014  0.0434 -0.0524
19842W        W40122  17.648  13.670   1.827 -0.1475  0.0553 -0.1730
19843W        W40123   7.131   9.138  12.155  0.0749 -0.0999 -0.2631
19844W        W40124   3.173  15.854   1.518 -0.0596 -0.0135 -0.0922
19845W        W40125  18.831  13.720   9.933 -0.1893  0.0241  0.0782
19846W        W40126   3.768  15.196  12.207  0.0348 -0.0685 -0.1446
19847W        W40127   8.979   1.208   2.911  0.1861  0.0238 -0.0665
19848W        W40128   6.310  10.933   0.530 -0.3196 -0.1363  0.1097
19849W        W40129  10.908   4.933   3.280 -0.0791 -0.2323  0.1995
19850W        W40130  15.245   4.147   0.447  0.2721  0.0883  0.3242
19851W        W40131  10.425   2.139   1.806 -0.0867 -0.0104 -0.2928
19852W        W40132  17.349   4.753   1.739  0.4619  0.3169 -0.1042
19853W        W40133  19.138  11.133   2.500 -0.0687 -0.5383 -0.0072
19854W        W40134   1.724   2.702  11.262 -0.3056 -0.3132  0.0130
19855W        W40135   6.448   9.706   5.042 -0.0315  0.0221  0.0987
19856W        W40136  12.723   8.457   1.661 -0.0784  0.2834  0.1532
19857W        W40137   0.270   2.569  13.822 -0.2777  0.0633  0.3996
19858W        W40138   4.546   5.273  11.001 -0.4417  0.0463  0.0023
19859W        W40139  17.746  18.144  12.943 -0.0096  0.1155 -0.0116
19860W        W40140  15.305   3.350   2.590 -0.1077 -0.1584 -0.0044
19861W        W40141  12.409  13.030  12.605  0.0095  0.1672  0.0578
19862W        W40142  12.440   8.713   1.246  0.1294 -0.0698 -0.2048
19863W        W40143   2.463  16.105  10.012  0.4630 -0.0823  0.1463
19864W        W40144   8.800  19.803   2.917 -0.0325  0.0913  0.0245
19865W        W40145  11.959  14.922   3.563 -0.1570 -0.3522 -0.0497
19866W        W40146  10.526  14.479  12.105 -0.1732  0.0337 -0.2575
19867W        W40147   0.008  12.214   1.397  0.0944 -0.1435  0.0271
19868W        W40148  16.710   1.128   1.754  0.1436 -0.3717  0.3064
19869W        W40149   7.106  15.207  12.146 -0.1258 -0.2239  0.1221
19870W        W40150  15.226  15.654   3.125 -0.0110  0.0217 -0.0138
19871W        W40151  14.307   0.416  13.711  0.2621 -0.1184  0.5192
19872W        W40152   8.360   2.329   2.647  0.1038  0.0895  0.1160
19873W        W40153   0.912  11.914   3.032  0.4061 -0.0512 -0.1072
19874W        W40154   9.646  18.892  10.732 -0.0324 -0.2551 -0.3489
19875W        W40155  12.736   7.939   2.472 -0.1178 -0.1398 -0.2818
19876W        W40156  10.812   3.484  13.056  0.0215 -0.5906 -0.0541
19877W        W40157   1.433   0.810   4.509  0.5729  0.1583  0.2062
19878W        W40158  16.751   9.474  10.328  0.2048 -0.0913  0.1990
19879W        W40159   2.220  12.489  12.187 -0.0103  0.4777 -0.0607
19880W        W40160  16.623  19.890   0.678  0.3567  0.0880 -0.0747
19881W        W40161  10.201  18.163  10.687 -0.1369 -0.1343  0.1075
19882W        W40162  13.756  15.751   3.509 -0.1308  0.2637 -0.1200
19883W        W40163  14.070   9.798  11.022 -0.1642  0.1758 -0.1366
19884W        W40164   4.550   5.262  13.296 -0.1568 -0.2064 -0.1174
19885W        W40165  10.973  18.648  11.564  0.0657  0.2624  0.4020
19886W        W40166   9.124   6.442   1.712  0.0582 -0.0753 -0.0117
19887W        W40167  18.089  11.892  10.103 -0.2678  0.0422 -0.0503
19888W        W40168  17.179   2.997   2.360 -0.0880  0.0942  0.1698
19889W        W40169   0.110  10.484   3.459  0.1603 -0.1449 -0.2615
19890W        W40170   8.928  11.314  11.602 -0.0731 -0.0047 -0.0966
19891W        W40171  17.929   7.903   1.449 -0.0947  0.0143  0.0095
19892W        W40172  14.295  11.551  10.143 -0.0799 -0.0540 -0.2662
19893W        W40173   5.624   8.273   3.058 -0.0509  0.3117 -0.3298
19894W        W40174  19.007   9.723   0.769  0.0098 -0.0565 -0.0520
19895W        W40175  12.104   5.115   9.176  0.0366  0.1147 -0.1216
19896W        W40176   9.241  17.868   3.149  0.1436  0.0366 -0.0179
19897W        W40177   3.440  12.619   0.892  0.0258  0.0611 -0.2272
19898W        W40178  10.238  16.270  13.618 -0.2820 -0.3523  0.3024
19899W        W40179   1.555  16.698   2.490  0.1776 -0.1267  0.0913
19900W        W40180   7.420  12.123  12.253 -0.4017  0.1465 -0.0033
19901W        W40181   1.286   3.476   3.816  0.2511 -0.1080  0.1821
19902W        W40182  10.724  17.607  13.649 -0.2031  0.0720  0.1743
19903W        W40183  11.304  12.581  12.097  0.1346 -0.0304 -0.1020
19904W        W40184  11.569  17.452  11.174  0.0524  0.0410  0.1645
19905W        W40185   8.431   6.370   0.950  0.0497 -0.1668 -0.2451
19906W        W40186  13.331  11.607  13.114 -0.1448 -0.2194  0.0984
19907W        W40187   2.940  18.842   2.675  0.2155 -0.1455  0.2539
19908W        W40188  18.078   1.896  13.693  0.2781  0.1662  0.2574
19909W        W40189  19.363   9.830  11.133  0.0038 -0.1207  0.0422
19910W        W40190  15.604  16.771  12.143  0.0032  0.0986 -0.1633
19911W        W40191   4.447   4.595   1.148  0.1720 -0.0996  0.1087
19912W        W40192   8.278  13.671   3.774 -0.1139  0.0601  0.0032
19913W        W40193   3.190   6.109  13.430 -0.1578  0.2563  0.0182
19914W        W40194   8.608   7.051   2.564 -0.0882  0.0429  0.1049
19915W        W40195  14.637   5.520  11.297 -0.0073  0.2320 -0.1027
19916W        W40196  14.730  12.940  11.541  0.0025  0.1170 -0.3846
19917W        W40197   4.989  11.169  10.987  0.1783 -0.1397  0.1386
19918W        W40198  15.527   2.665  13.318 -0.1886 -0.1267 -0.1606
19919W        W40199   1.026  13.752  11.531  0.2779 -0.1288 -0.2671
19920W        W40200  17.918   9.797  12.532 -0.3008  0.1121 -0.0552
19921W        W40201   1.087   3.639  11.215  0.3150  0.2417  0.1481
19922W        W40202  15.986  16.151   0.165  0.1142 -0.1868  0.0470
19923W        W40203  14.841   9.951   2.633 -0.2806 -0.1374 -0.2973
19924W        W40204  14.937  15.475  11.438  0.1822  0.1475 -0.1945
19925W        W40205   2.510  13.550  10.494  0.0110 -0.1061  0.2328
19926W        W40206   5.367   4.360   2.276  0.0901  0.1319  0.3051
19927W        W40207  13.636  17.649   3.204  0.4125  0.3385 -0.1852
19928W        W40208  15.322  15.802  12.837  0.3577 -0.1595  0.0387
19929W        W40209   5.137  17.958   2.387  0.1619  0.3317 -0.1604
19930W        W40210  12.513   6.280   3.313 -0.2758  0.2196 -0.0831
19931W        W40211  13.484  17.870  11.372 -0.1527  0.0169 -0.0759
19932W        W40212  15.645   9.533  10.714 -0.0372 -0.0314 -0.3176
19933W        W40213  10.170  10.131  12.916  0.1442 -0.1008  0.0423
19934W        W40214   0.474   4.524   4.397 -0.0960  0.0890 -0.3487
19935W        W40215  19.830  11.645   2.485 -0.0073  0.1683 -0.1827
19936W        W40216  11.846   0.818   4.409  0.0606 -0.0381  0.0399
19937W        W40217   0.433   2.778  11.470 -0.0043 -0.0207  0.0033
19938W        W40218   7.254  16.422  13.486  0.0832 -0.0276  0.0206
19939W        W40219  11.359  19.462  13.274  0.0111  0.0044 -0.6370
19940W        W40220  14.098  13.228  13.583 -0.0770 -0.0931  0.1067
19941W        W40221   5.566  18.269  11.325 -0.0867 -0.0745 -0.0638
19942W        W40222  10.433   9.405   3.202  0.0758 -0.0814 -0.0675
19943W        W40223   1.443  12.179   4.438  0.0648 -0.0319 -0.3891
19944W        W40224  12.578  14.260   0.716 -0.3368 -0.0584  0.1386
19945W        W40225   6.651  12.435   4.620 -0.1901 -0.1822 -0.1410
19946W        W40226   1.359  10.484   1.056 -0.0433  0.0137 -0.0659
19947W        W40227  19.929   6.861  10.616  0.0593  0.0069 -0.1238
19948W        W40228   3.264   3.213   0.606  0.3773  0.1439  0.1269
19949W        W40229  12.179   0.308  10.178  0.1132  0.0340  0.1958
19950W        W40230   7.801   8.495   3.229  0.2677 -0.2951 -0.1053
19951W        W40231   5.277  14.141   1.727 -0.1534 -0.2258  0.0991
19952W        W40232   3.080   4.596   9.227  0.3261 -0.1744  0.1912
19953W        W40233  16.460  19.516  12.519 -0.1722  0.0211 -0.1600
19954W        W40234  15.830   7.350  11.002 -0.2293 -0.2126 -0.0662
19955W        W40235   8.045   2.018   1.623 -0.0636  0.1244  0.1054
19956W        W40236  17.604  12.938   2.900 -0.1147 -0.3474 -0.0330
19957W        W40237  19.202  16.986   0.243  0.0752 -0.1260 -0.0194
19958W        W40238  11.512  18.443  10.835  0.2813 -0.3856  0.0673
19959W        W40239   2.085  10.776  12.672  0.0586 -0.1600  0.0769
19960W        W40240   9.915   3.959  13.862 -0.0064 -0.2840 -0.0944
19961W        W40241   6.613   2.485  13.486 -0.1998  0.1578  0.4621
19962W        W40242  10.537   5.205  13.399 -0.3351  0.1466  0.1636
19963W        W40243   9.564  12.254  11.602 -0.1928  0.0802  0.0616
19964W        W40244   2.021   6.031  10.220  0.3449 -0.0177  0.3531
19965W        W40245   7.454  16.097  10.891 -0.1344 -0.0939 -0.3579
19966W        W40246  14.121  13.573   1.791 -0.0577 -0.0161  0.0772
19967W        W40247  13.828   7.110  11.283 -0.0955  0.0129  0.1053
19968W        W40248   2.375  18.378   3.060 -0.0534 -0.2822  0.0136
19969W        W40249   0.371  15.760  11.942  0.2017  0.2642 -0.1550
19970W        W40250  11.685  14.507   1.069  0.0508  0.2695 -0.2481
19971W        W40251   6.492   4.805   0.742  0.2710 -0.3403  0.0480
19972W        W40252  11.171  18.603  13.527  0.1188 -0.0782 -0.0011
19973W        W40253   9.425  13.728   4.812 -0.2552  0.1047 -0.1888
19974W        W40254   5.667   7.258  12.990  0.0109  0.1240 -0.0155
19975W        W40255   5.619  11.321   1.326 -0.1382 -0.0014  0.0437
19976W        W40256  13.122  10.582   0.356 -0.1810  0.1179 -0.1614
19977W        W40257  14.099   9.417   0.305 -0.0431 -0.0956 -0.1075
19978W        W40258   3.824   0.401  10.593 -0.1308  0.1821  0.2117
19979W        W40259  10.552   9.885  12.586  0.1106  0.2082 -0.1584
19980W        W40260  11.574   8.680  13.608 -0.1227  0.0896  0.2436
19981W        W40261  19.667  15.664  12.709  0.1650 -0.4322 -0.1492
19982W        W40262   5.576  11.239   3.358  0.2191 -0.1110 -0.0172
19983W        W40263  13.952   0.960  10.865  0.1110 -0.6274  0.0231
19984W        W40264  10.163   4.425  12.322  0.0565 -0.0533 -0.0039
19985W        W40265   4.117  13.927  13.690 -0.0091 -0.2880  0.1692
19986W        W40266   3.062   2.248  12.606  0.0996 -0.0733 -0.2431
19987W        W40267   6.888  16.437  12.685 -0.3522  0.1467 -0.1049
19988W        W40268  12.791   9.650  10.518  0.0955  0.0238 -0.1230
19989W        W40269  19.067  19.685   0.089  0.0888 -0.0450  0.3118
19990W        W40270   0.010   1.777  13.399  0.2466 -0.1161 -0.3646
19991W        W40271   7.359  10.923   0.295  0.1887 -0.1471  0.3679
19992W        W40272   2.652  10.260   3.003 -0.1158 -0.1420  0.1170
19993W        W40273  17.074   7.496   2.254 -0.2247 -0.3324  0.3243
19994W        W40274   9.468   1.329  10.204 -0.0892  0.1653  0.0854
19995W        W40275   0.830   3.132  12.798  0.2127 -0.1517 -0.0347
19996W        W40276  11.283   1.373   5.136  0.1163 -0.1339 -0.1569
19997W        W40277   2.418   2.909   3.872 -0.2520  0.1148 -0.0904
19998W        W40278  15.007   1.978  11.909  0.3686  0.1159 -0.0998
19999W        W40279   6.709   4.093   0.047 -0.3409  0.0728  0.3116
20000W        W40280   3.319   2.754   0.742 -0.1177 -0.3148  0.1631
20001W        W40281  18.358  10.147   2.202  0.2336  0.2290  0.0322
20002W        W40282  15.697   2.460  11.114 -0.2619  0.1255  0.0859
20003W        W40283   5.035   4.634  10.205  0.2727 -0.0511  0.1601
20004W        W40284   2.800   4.530   1.636  0.4684 -0.1499 -0.0519
20005W        W40285   4.536  14.565   4.394  0.3387 -0.0794  0.3427
20006W        W40286  14.255  15.496  11.784 -0.0631  0.3630 -0.3574
20007W        W40287  10.473  14.818   0.507  0.1144 -0.0982 -0.0903
20008W        W40288   3.463   0.961   4.957  0.3089 -0.1440  0.0891
20009W        W40289   0.688   9.196  11.776 -0.0911 -0.2947 -0.2030
20010W        W40290   8.999  12.232   2.680 -0.0922  0.0614 -0.0620
20011W        W40291  12.897   1.528   2.658  0.2356  0.1396  0.0439
20012W        W40292   8.510  12.934   0.206 -0.0538 -0.2398  0.3243
20013W        W40293   9.722  14.032   3.143  0.1116  0.1797  0.0503
20014W        W40294   0.973  12.302  11.826  0.0420 -0.2979  0.0426
20015W        W40295  19.581  12.883   9.503  0.1795  0.0741 -0.3283
20016W        W40296   6.057   3.359   3.793 -0.2062 -0.0335  0.2005
20017W        W40297   9.638  17.312  11.243 -0.1550  0.0563 -0.2139
20018W        W40298  17.367   0.341  11.086  0.3204  0.0872  0.0220
20019W        W40299  18.008  19.381   1.080  0.3221 -0.0793  0.0181
20020W        W40300  12.552   2.800   3.816 -0.0111 -0.1109  0.1032
20021W        W40301  12.390  12.945   1.252 -0.0314  0.1833  0.0928
20022W        W40302   7.890  14.102  13.428  0.1693  0.1652 -0.1395
20023W        W40303  11.721   3.031  11.566 -0.1018  0.2089 -0.3840
20024W        W40304  10.244   0.589  12.401 -0.0945 -0.1380  0.0722
20025W        W40305  10.328  13.187   4.231  0.0318  0.1280 -0.1679
20026W        W40306  18.889   7.708  11.758 -0.0057 -0.0603  0.1177
20027W        W40307   4.127   1.168   1.044  0.1485 -0.0139  0.0061
20028W        W40308   1.295   8.467   3.483  0.1844 -0.1055  0.4061
20029W        W40309   2.423  11.022  13.159 -0.0056  0.4245  0.1140
20030W        W40310   5.578  18.521   3.109  0.3364 -0.1847  0.1403
20031W        W40311   3.307   6.333   3.614 -0.0783  0.3239 -0.0130
20032W        W40312   1.595   6.368  10.904 -0.0814  0.3885 -0.1319
20033W        W40313   6.887  12.999  12.881 -0.1431 -0.0397 -0.2021
20034W        W40314   6.628  15.662  10.917 -0.1556  0.0591 -0.1195
20035W        W40315  17.211   6.199   9.933 -0.5003  0.2473 -0.1731
20036W        W40316   8.213  16.983   3.755  0.2366  0.2129  0.0058
20037W        W40317   3.688   4.959   0.833 -0.0141 -0.0799  0.2178
20038W        W40318  15.796  11.086   1.674 -0.0485  0.1565  0.1758
20039W        W40319   5.157   9.040   1.964 -0.0241 -0.0736 -0.2706
20040W        W40320   7.929  11.721  11.080  0.3171 -0.0770 -0.0355
20041W        W40321   6.764  15.113   0.747  0.0161 -0.0401  0.1349
20042W        W40322  13.425  13.900  13.370 -0.0154 -0.0867 -0.2018
20043W        W40323  17.237   3.485   1.691  0.1313  0.0019 -0.1348
20044W        W40324   5.328  15.477   1.403 -0.2942 -0.0530 -0.0439
20045W        W40325  17.550  14.468   8.783  0.1226  0.2008  0.2729
20046W        W40326   3.549  16.300  11.453 -0.0969  0.2636  0.3415
20047W        W40327  11.494   4.224   0.364  0.1287 -0.5579  0.3109
20048W        W40328   9.597  16.045   1.492 -0.1008  0.0777 -0.0120
20049W        W40329  16.771  11.793  10.039 -0.0713 -0.0920 -0.0504
20050W        W40330  16.463   6.400   1.259  0.0063 -0.1124 -0.2483
20051W        W40331  10.011  12.022  11.543  0.3319  0.0276 -0.0297
20052W        W40332   1.862  17.934   1.761 -0.2397 -0.1487 -0.0093
20053W        W40333  19.176   5.035  13.280  0.2725 -0.4312 -0.0993
20054W        W40334   4.937   4.854   9.744  0.4126  0.1380  0.2550
20055W        W40335  11.003   9.625   2.529  0.0838  0.2809 -0.1090
20056W        W40336  11.623  16.708   3.537  0.0079 -0.1921 -0.1007
20057W        W40337   2.541   3.778   2.264 -0.1642  0.2240 -0.0828
20058W        W40338   0.281  12.634   2.904  0.0272 -0.1421  0.1490
20059W        W40339  10.112  16.107   3.928  0.0124  0.1926 -0.0272
20060W        W40340   3.040  12.273  10.458  0.0479 -0.1333  0.3657
20061W        W40341   3.845   8.488  12.179 -0.1743 -0.0691  0.4922
20062W        W40342  10.784  16.286  10.091 -0.4355 -0.0487  0.0486
20063W        W40343   3.538  13.514  11.558 -0.2272  0.0076 -0.3680
20064W        W40344  11.317  12.094   1.678  0.1375 -0.1676 -0.0077
20065W        W40345  14.401  13.423  10.913  0.1259 -0.2636  0.2208
20066W        W40346  10.061   8.083   2.507 -0.0908 -0.1175 -0.2152
20067W        W40347   4.527   3.532  11.086 -0.1385 -0.1231 -0.1052
20068W        W40348  10.339   2.502  12.036  0.1120  0.0208 -0.2195
20069W        W40349  13.352   0.742  10.078  0.0645 -0.2195 -0.1319
20070W        W40350  11.558  13.332   2.452  0.2226  0.0396 -0.1761
20071W        W40351   1.251  10.520  11.402 -0.1331  0.0269  0.1641
20072W        W40352   9.435   2.049   0.806 -0.0279 -0.0443 -0.2338
20073W        W40353  14.288  11.183  12.405 -0.4544  0.3420 -0.1956
20074W        W40354   2.900   1.000   1.887 -0.3153  0.1470 -0.1778
20075W        W40355  18.947   6.259  12.958 -0.1527  0.1099  0.1000
20076W        W40356  14.312   2.670  13.442 -0.0964  0.2361  0.1605
20077W        W40357   0.141  19.904   1.980 -0.0041  0.2007  0.0186
20078W        W40358  19.071  11.509   0.670  0.0588 -0.1884  0.3761
20079W        W40359  12.059  13.638   0.691  0.1827 -0.0930  0.2700
20080W        W40360   7.291   9.798   3.484 -0.3118 -0.0781  0.0408
20081W        W40361  13.730   6.384   0.977  0.3958 -0.1880  0.0509
20082W        W40362   6.538  10.615  12.750  0.2772  0.0451  0.0031
20083W        W40363  11.514   1.671   4.642  0.2204  0.1569  0.1728
20084W        W40364   6.101   1.624   0.656 -0.1130  0.1159 -0.1157
20085W        W40365   6.337   1.094  11.704 -0.0817  0.2485  0.2479
20086W        W40366  13.389   0.109   8.870  0.0967 -0.2722 -0.0112
20087W        W40367   9.182   3.901   2.816 -0.1155  0.1485 -0.0302
20088W        W40368   6.032  16.833  13.124  0.1552  0.1673  0.0029
20089W        W40369   9.317   6.531   2.115 -0.0198 -0.0407  0.0065
20090W        W40370   4.885  15.671   0.657 -0.1406  0.1758 -0.1418
20091W        W40371   8.713  10.937  12.577  0.0380  0.1969 -0.2380
20092W        W40372   1.367  17.528   3.778 -0.0083  0.1457  0.1148
20093W        W40373   6.163  12.437   4.900  0.0980 -0.0342 -0.0030
20094W        W40374   4.932  12.074   2.786  0.1228 -0.0100  0.2087
20095W        W40375   7.924   4.926   2.247 -0.1193  0.2906 -0.1648
20096W        W40376   4.094   2.701  10.558  0.2118 -0.0503 -0.2531
20097W        W40377  11.670  13.706  11.605 -0.2457 -0.1576  0.0251
20098W        W40378   2.536   3.611  10.504  0.0991  0.0677  0.2395
20099W        W40379   7.874   1.419   0.833  0.2963  0.1292  0.2824
20100W        W40380   9.265  19.075   3.158  0.0502  0.0580 -0.2881
20101W        W40381  18.381   1.473   0.262  0.2053  0.0499 -0.3108
20102W        W40382   7.863  11.735  10.245 -0.0526  0.0880  0.2162
20103W        W40383   6.154  16.116  12.758  0.2681 -0.0636  0.5810
20104W        W40384   0.045  11.498  10.774 -0.0631  0.3941  0.0367
20105W        W40385   7.787   3.854  11.830  0.1447 -0.1336  0.0636
20106W        W40386  13.604   3.527   2.643  0.2818  0.0506  0.2853
20107W        W40387  14.800  16.242  12.705  0.2449  0.1229  0.0718
20108W        W40388  19.872   8.134  11.075  0.1297 -0.3991 -0.0046
20109W        W40389   5.081   9.187   3.978  0.2285 -0.0324 -0.1464
20110W        W40390  19.759   0.106   9.423 -0.0901 -0.0097 -0.0595
20111W        W40391  18.273   9.530   1.662 -0.1615  0.0538  0.1089
20112W        W40392  15.322   2.671   2.041  0.3564 -0.2714  0.1609
20113W        W40393   4.563   3.443   3.550  0.0822  0.0043 -0.0938
20114W        W40394  14.101  16.487  13.465  0.0536  0.0953 -0.0672
20115W        W40395   5.182  11.677   1.897  0.0996 -0.2446  0.1329
20116W        W40396   4.814   7.876  10.879 -0.6263  0.2456  0.0292
20117W        W40397  11.046   9.365  11.330  0.2634 -0.0244 -0.1752
20118W        W40398   0.372   2.648   1.479 -0.0848  0.1311 -0.0977
20119W        W40399  16.260  12.839   1.423  0.0920  0.0518  0.0913
20120W        W40400  15.370   3.164   3.039  0.0433  0.3643  0.1440
20121W        W40401  16.951   2.389   0.419 -0.0744  0.1615  0.1769
20122W        W40402   5.329  11.338   3.816 -0.0342  0.0457  0.1744
20123W        W40403   7.026  11.060   1.873  0.1009  0.1848 -0.0911
20124W        W40404   7.091  10.897  11.687  0.0157 -0.2143 -0.1086
20125W        W40405  16.128   3.019   1.932 -0.0217 -0.1957  0.0259
20126W        W40406  15.078   8.225   2.502  0.0158  0.0911 -0.2504
20127W        W40407   3.430  12.246  12.847  0.3420 -0.0708 -0.1533
20128W        W40408   0.350   5.876  11.155 -0.0934  0.0763  0.0979
20129W        W40409   2.918  19.556   2.303  0.1223  0.0203 -0.1281
20130W        W40410  17.420  12.040  11.417  0.3533 -0.2115 -0.1723
20131W        W40411   5.232   6.838   0.735  0.2644  0.5035 -0.0183
20132W        W40412   9.447   0.461   1.266 -0.0078  0.1589  0.2275
20133W        W40413  15.802   3.597  11.884 -0.1622  0.1256 -0.2601
20134W        W40414  17.833   2.832  13.837 -0.1900  0.0456 -0.0617
20135W        W40415  19.483   8.931   0.560 -0.0561  0.1441  0.0887
20136W        W40416   2.951   5.836  10.327 -0.2380 -0.0525  0.0943
20137W        W40417  17.561  19.109   0.876 -0.1435  0.0128  0.3233
20138W        W40418  14.785   1.086   2.010  0.1018 -0.2767  0.0461
20139W        W40419  15.810   7.478   2.547  0.2158 -0.1469  0.3295
20140W        W40420  13.854  16.051  10.982 -0.0226 -0.2023 -0.2138
20141W        W40421   1.358  12.162  12.082  0.0012  0.0891 -0.0589
20142W        W40422  14.529   9.460  12.677  0.0628 -0.2200 -0.5630
20143W        W40423   4.901   5.780  11.761  0.1208  0.2373 -0.2080
20144W        W40424  10.013   3.650   0.406  0.0379  0.0542 -0.0181
20145W        W40425  14.062   2.403   9.809 -0.0752  0.0167  0.2817
20146W        W40426  12.395   6.878  12.896 -0.0325 -0.1651 -0.0053
20147W        W40427   4.156   5.060   0.547 -0.1006  0.3244  0.2412
20148W        W40428   0.111   6.195   0.613 -0.2504 -0.0992 -0.0276
20149W        W40429   9.756  10.661   0.788 -0.3507  0.0359 -0.0085
20150W        W40430  15.192   6.841   2.066 -0.0466  0.0300 -0.0782
20151W        W40431   5.116   8.109   2.917 -0.0047  0.0962 -0.1697
20152W        W40432   3.467  16.133   0.744  0.0277 -0.1040  0.3511
20153W        W40433  10.894  17.834   3.449 -0.1740 -0.2811 -0.4173
20154W        W40434   0.633   3.432  10.276 -0.0748  0.2654 -0.1988
20155W        W40435   2.722  12.042   1.016  0.1730 -0.4602 -0.0499
20156W        W40436   0.705  13.647   2.661  0.1179 -0.0720 -0.0421
20157W        W40437  10.680   7.050   3.939  0.0308 -0.1533 -0.3383
20158W        W40438  12.493   2.945   2.312 -0.0816 -0.1186 -0.2048
20159W        W40439   7.443   4.347  10.422  0.0631 -0.0464 -0.1413
20160W        W40440   1.400  16.300   1.066 -0.0682  0.0882 -0.2498
20161W        W40441  13.209   0.140   0.687  0.0683  0.0067  0.2814
20162W        W40442   1.921   8.590  10.746 -0.0691  0.1964 -0.0616
20163W        W40443  16.180   4.435   0.174 -0.1480  0.0133 -0.1982
20164W        W40444   9.608  10.328   3.500  0.0681  0.0932 -0.4344
20165W        W40445  16.113  13.825   0.005  0.1099 -0.1008 -0.2301
20166W        W40446   3.339   6.332  10.370 -0.0511 -0.0327 -0.2914
20167W        W40447   7.769  13.619  12.056  0.1447  0.1276  0.1986
20168W        W40448   4.414  12.731  12.823 -0.1162 -0.0261  0.0434
20169W        W40449  17.659  18.535   3.008  0.0218  0.2418 -0.1593
20170W        W40450   2.815  19.533  10.958 -0.0493  0.2971  0.2020
20171W        W40451   1.038  14.327  13.555 -0.0348 -0.0027 -0.0526
20172W        W40452   5.708  14.259  13.391 -0.2746 -0.1454  0.0799
20173W        W40453  18.035   6.866  10.247  0.0623  0.0194 -0.0054
20174W        W40454   8.193   3.304  13.458 -0.3167 -0.2856 -0.3695
20175W        W40455  14.909   7.259  11.617  0.3027  0.1630 -0.1505
20176W        W40456  16.255  18.353  13.821 -0.2091 -0.1400 -0.0262
20177W        W40457  13.198   6.086  10.967 -0.1585 -0.1348  0.0362
20178W        W40458   4.037  15.080   1.467 -0.1282 -0.0087 -0.0295
20179W        W40459  15.596  14.809  10.096 -0.0060 -0.2922 -0.1297
20180W        W40460   5.563  11.961   2.057 -0.2062 -0.1507  0.2747
20181W        W40461  10.855  14.090  12.818  0.1428 -0.0020  0.0398
20182W        W40462  17.578   5.955  11.739  0.0240  0.0554 -0.0833
20183W        W40463  19.927   0.829   2.345 -0.2332 -0.2373 -0.3703
20184W        W40464  17.657   1.638  10.401  0.2032  0.0993 -0.0618
20185W        W40465   8.946  14.220   1.304  0.2418 -0.2368  0.0005
20186W        W40466  11.211  10.884   1.934  0.0009  0.4747  0.2032
20187W        W40467  12.086  10.732  13.799 -0.1029  0.1167 -0.0996
20188W        W40468   0.090  17.603   9.112  0.0421 -0.3524  0.2707
20189W        W40469   1.310  17.664  12.033 -0.0325 -0.1496 -0.2647
20190W        W40470  16.793   6.839   3.381 -0.0460  0.2483  0.0974
20191W        W40471  19.759   6.364   1.718 -0.1033 -0.2675 -0.1372
20192W        W40472   9.842  15.047  10.971 -0.3481  0.0893  0.1197
20193W        W40473   7.419   3.418   4.244  0.2259 -0.1997 -0.0835
20194W        W40474  11.200  10.471   2.641 -0.1663 -0.1407 -0.0618
20195W        W40475  12.515  15.885  11.206  0.0639  0.1197 -0.1821
20196W        W40476  16.104   0.737  13.344  0.2076 -0.2920  0.3359
20197W        W40477  18.111   4.714   1.817  0.1707  0.1760  0.1415
20198W        W40478   8.975  16.865   2.902  0.0270  0.3245 -0.1186
20199W        W40479  18.014  13.669  11.598 -0.3480  0.0060  0.4156
20200W        W40480   7.505   6.843  12.643 -0.0867  0.0417  0.0610
20201W        W40481  18.713  12.840  12.618  0.4675 -0.3516  0.1064
20202W        W40482   1.524   2.591  12.246  0.1899 -0.1350  0.1369
20203W        W40483  19.742  12.605  12.377  0.2334  0.3414 -0.0303
20204W        W40484   7.703   0.726   8.987  0.3400  0.1772  0.1482
20205W        W40485  12.082  19.850  12.069  0.0517  0.2214 -0.1073
20206W        W40486  15.328   9.275   2.962 -0.0470  0.2355 -0.1774
20207W        W40487   5.807  13.595   0.646 -0.0901  0.0634  0.1389
20208W        W40488  10.613   3.515  11.159  0.2726  0.1696  0.3663
20209W        W40489   8.836  19.914   0.870  0.2079  0.1159 -0.5055
20210W        W40490  13.360  18.353  11.333  0.0532 -0.1111  0.2526
20211W        W40491   5.454  15.642  12.378  0.1176 -0.3702 -0.1765
20212W        W40492   0.640   2.596  12.963 -0.0663 -0.3412  0.1875
20213W        W40493  14.888  10.708   0.580  0.1936 -0.0211 -0.1326
20214W        W40494   6.774   7.167   3.018 -0.3324  0.0053 -0.0859
20215W        W40495   5.452   4.621  13.533  0.0493 -0.0698 -0.1445
20216W        W40496  13.553   8.512   1.335  0.2341 -0.2870 -0.0064
20217W        W40497   5.938   9.613   9.963 -0.4537 -0.0664  0.0403
20218W        W40498  12.715   6.419   9.158  0.0088  0.1575  0.1085
20219W        W40499   3.501   3.398  13.020  0.0353 -0.2924  0.0270
20220W        W40500  13.721   5.314   2.100  0.2380 -0.0815 -0.1313
20221W        W40501  16.545   2.032  10.731 -0.0220  0.0049 -0.2039
20222W        W40502   6.266  15.286   0.759 -0.0271 -0.1054  0.3089
20223W        W40503   9.501   4.835  12.918 -0.0682 -0.0379 -0.2452
20224W        W40504  11.664   9.346  10.570  0.2942  0.0881  0.0812
20225W        W40505  13.032  16.972   0.155  0.2154  0.1584  0.0290
20226W        W40506  13.283   0.287   3.297  0.2798 -0.1034 -0.3672
20227W        W40507  14.712   8.195   2.086 -0.0675  0.2175 -0.0124
20228W        W40508  19.269   6.354   1.685 -0.2146  0.1057 -0.0213
20229W        W40509  10.497  17.763  10.500  0.1664  0.0132 -0.0385
20230W        W40510   9.359   3.460   1.260 -0.1360 -0.3808 -0.4811
20231W        W40511   5.054  10.309  12.819 -0.2970 -0.0246  0.1448
20232W        W40512  13.562  14.432  10.447 -0.0684  0.5172 -0.1324
20233W        W40513   8.164  14.937  12.920  0.0317  0.1182 -0.3085
20234W        W40514  10.614  17.784   1.380  0.1257 -0.0010  0.0864
20235W        W40515   8.367   6.377   1.467 -0.0127  0.0546 -0.1960
20236W        W40516  17.718  10.313  10.406 -0.1690 -0.2479  0.1181
20237W        W40517  15.555  13.783   9.658  0.2549  0.3672 -0.0240
20238W        W40518  11.531   0.504   4.699  0.0652  0.1236 -0.2218
20239W        W40519  10.359   4.350  12.833  0.3747  0.0053  0.4252
20240W        W40520  18.008  11.872  12.027  0.1675 -0.0581 -0.2331
20241W        W40521  15.342   5.827   0.193  0.1214 -0.1538  0.1515
20242W        W40522   4.664  11.776   3.690  0.1283  0.2048  0.2644
20243W        W40523   7.601   8.947  12.313 -0.0299  0.1414 -0.2555
20244W        W40524  15.774  14.847  11.277  0.0584 -0.2504 -0.0476
20245W        W40525  13.214  16.493   0.987 -0.1252  0.0087 -0.2359
20246W        W40526  12.006  16.695  11.314  0.0424  0.1521 -0.1171
20247W        W40527   9.447   7.448   3.264 -0.1928 -0.3436 -0.0766
20248W        W40528  12.922   1.965   1.262 -0.0148  0.1719 -0.1755
20249W        W40529   2.701  18.788  12.190  0.0324  0.0315 -0.3235
20250W        W40530   1.692   8.821   2.497 -0.0596 -0.0086  0.0882
20251W        W40531  13.889   9.858   0.209 -0.1449 -0.0649 -0.1654
20252W        W40532  13.438  16.888   2.350  0.1372  0.0471 -0.1564
20253W        W40533  14.539  10.202   9.687  0.1241 -0.2613 -0.5065
20254W        W40534   2.656  17.402   0.338 -0.1799 -0.2740  0.0087
20255W        W40535   7.654  12.479   3.754  0.4305  0.1472  0.1349
20256W        W40536   0.815  15.016  12.981 -0.4257 -0.0615 -0.3367
20257W        W40537  13.099   5.421  13.512 -0.3550 -0.0273  0.2545
20258W        W40538   8.498   9.153   2.183 -0.0265 -0.1310 -0.3801
20259W        W40539   3.359  11.387   3.749 -0.1155 -0.0259 -0.0546
20260W        W40540  19.826  15.267  13.591 -0.0790 -0.1118  0.0878
20261W        W40541   6.907  11.731  11.224  0.0700  0.0329  0.2179
20262W        W40542   7.806  11.810   1.294 -0.1656  0.1640 -0.0645
20263W        W40543  16.731   7.745  11.240  0.0865 -0.1073  0.1351
20264W        W40544  16.603   7.901   0.046  0.2649 -0.0996  0.2847
20265W        W40545  13.570  14.291  12.125  0.3005  0.1354  0.3128
20266W        W40546   2.804   9.733   2.334  0.2849  0.2339 -0.4567
20267W        W40547   7.488   0.172   2.443  0.2198 -0.1596  0.1007
20268W        W40548   3.269  11.505   3.233  0.4779  0.0892  0.0691
20269W        W40549   9.299  12.384  11.216  0.2148  0.2086 -0.3016
20270W        W40550  10.244   3.142   1.857  0.1285 -0.0235 -0.0545
20271W        W40551   7.954   2.381   0.547 -0.0683  0.2314  0.3590
20272W        W40552   6.823   2.902   3.241 -0.3643  0.1029  0.2567
20273W        W40553  13.165  16.960   2.800  0.0417  0.1170 -0.0086
20274W        W40554   5.479   1.570   0.497 -0.1109 -0.0699  0.0205
20275W        W40555   3.735   7.079   2.871  0.2813 -0.1402 -0.2499
20276W        W40556   4.909  17.478  11.365  0.1232  0.0871  0.1025
20277W        W40557  18.074  10.478   3.575  0.0868 -0.0259  0.0150
20278W        W40558   8.671  19.549   0.521  0.0426  0.0163 -0.3617
20279W        W40559  14.836   2.712   2.316 -0.0037 -0.1150 -0.1554
20280W        W40560   5.801   0.899   3.310 -0.0688 -0.0075 -0.1936
20281W        W40561  16.888   8.866  10.376 -0.0746 -0.1712  0.1612
20282W        W40562  14.044  14.015   1.948 -0.1215  0.0484  0.2561
20283W        W40563   4.915   7.570  12.872  0.2882 -0.1262  0.0537
20284W        W40564   1.580  11.069   0.584  0.0212 -0.2177  0.0300
20285W        W40565   0.780  18.539   2.127 -0.0421 -0.4424  0.3701
20286W        W40566   1.872  12.595   2.727  0.0114 -0.1781  0.1044
20287W        W40567  13.910   4.179   9.953  0.0672  0.1463 -0.3601
20288W        W40568  16.537  11.695  11.217 -0.4449 -0.0274 -0.0498
20289W        W40569  13.175  19.491   2.620  0.1056  0.3212 -0.0883
20290W        W40570   8.118   3.332   1.335  0.0899  0.1112 -0.0365
20291W        W40571   3.109  15.543   2.206  0.0269 -0.1208  0.0840
20292W        W40572  11.121  15.343  12.087  0.0940 -0.0177  0.0129
20293W        W40573   4.564  19.708   0.716  0.1479 -0.2798 -0.0536
20294W        W40574   7.207  19.939   3.183  0.2295 -0.0067  0.0207
20295W        W40575  14.351  11.646   4.460  0.2480 -0.1498  0.0098
20296W        W40576  19.462  19.224   3.760 -0.2220  0.0245  0.0082
20297W        W40577  18.076  17.694  11.795  0.0753 -0.2221  0.0791
20298W        W40578  14.051   6.240  10.545  0.0153 -0.0515 -0.2785
20299W        W40579  11.996   6.924   1.079  0.4432 -0.0750 -0.2489
20300W        W40580  19.921   2.833   1.095 -0.0295  0.0417 -0.0857
20301W        W40581  13.303  16.228  10.130 -0.3169  0.1143  0.1734
20302W        W40582   1.875   0.304   1.793 -0.0461 -0.2946  0.1538
20303W        W40583  10.076  19.850  10.845 -0.1468 -0.2665 -0.3261
20304W        W40584  10.474   4.386   4.613 -0.1067 -0.2231  0.2389
20305W        W40585  11.921   6.434  13.453 -0.2034  0.0276  0.0591
20306W        W40586  16.222  16.470   3.049  0.2158 -0.3347 -0.0505
20307W        W40587   3.871  12.197  13.093  0.0919 -0.3417  0.0107
20308W        W40588   4.431   5.475   1.033 -0.0346 -0.1036 -0.3709
20309W        W40589   7.566  17.207  12.630  0.3214  0.2328  0.0721
20310W        W40590   6.967   3.946   0.487 -0.0901 -0.1937 -0.1409
20311W        W40591  13.124   5.895   9.489 -0.3741  0.0270  0.3093
20312W        W40592   8.206  16.682  10.718 -0.2320  0.4089  0.2235
20313W        W40593  17.615  12.480  13.132  0.0199 -0.2246  0.0826
20314W        W40594   9.224   4.265   2.398  0.0422 -0.0616 -0.0223
20315W        W40595  14.957  13.300  13.196 -0.3369 -0.0417 -0.0152
20316W        W40596   5.181   9.771  10.522  0.0699  0.2079 -0.1651
20317W        W40597  12.094   2.604  10.274 -0.5237 -0.0813  0.0280
20318W        W40598  16.695  14.802   4.578  0.1656  0.2021  0.0423
20319W        W40599  10.885   2.532  12.070 -0.0911  0.0710  0.1381
20320W        W40600  17.051   9.071   9.979 -0.1892  0.0119  0.2229
20321W        W40601  12.020   3.450   0.188 -0.1281 -0.1535 -0.0255
20322W        W40602   0.197   1.390  10.686 -0.1073 -0.2689  0.0047
20323W        W40603  13.263  17.003   3.845 -0.2497 -0.0429  0.0367
20324W        W40604   1.102  18.199   0.232 -0.1131 -0.3054  0.1835
20325W        W40605  18.579  12.252  13.721 -0.1514  0.2035  0.2380
20326W        W40606  14.464   2.691  11.764 -0.0422 -0.0032  0.2796
20327W        W40607   9.138   6.949  13.536 -0.2448  0.0878  0.0064
20328W        W40608  15.757  15.140  13.188 -0.1395 -0.1564 -0.4020
20329W        W40609   5.667  10.542   0.363  0.0557 -0.2703 -0.0628
20330W        W40610  11.499   2.410  12.083 -0.0451 -0.2399 -0.0900
20331W        W40611   0.530   5.221  11.684 -0.0064 -0.2450 -0.0568
20332W        W40612  10.408   7.183  13.294  0.3302  0.3943 -0.0667
20333W        W40613   0.838   2.594  10.543 -0.1052 -0.0010 -0.2621
20334W        W40614   6.122   7.203   3.839 -0.4031  0.1093 -0.0014
20335W        W40615  11.963  12.550   2.766  0.0551  0.0599 -0.6467
20336W        W40616  16.621  18.264   1.425  0.1020  0.0940  0.1618
20337W        W40617   0.332  14.985  12.112 -0.0379 -0.2978 -0.0869
20338W        W40618  12.779   5.868  10.823  0.2424  0.0496 -0.1270
20339W        W40619   3.494   5.404   2.431  0.0700  0.0479 -0.3660
20340W        W40620  10.799  15.067   1.740  0.0448  0.2811 -0.0859
20341W        W40621  14.905  11.430  12.991  0.2910  0.1225  0.5560
20342W        W40622  19.709  10.008   0.439  0.1238 -0.2539 -0.1004
20343W        W40623   2.236  11.598  12.267  0.1124 -0.4663 -0.2192
20344W        W40624  15.255   8.639   1.592 -0.2377  0.0234  0.0896
20345W        W40625   4.455  16.117   2.733  0.1248 -0.0369  0.3596
20346W        W40626  18.738   8.076  12.213 -0.1946  0.4140 -0.0085
20347W        W40627  12.386  17.860  12.223 -0.0460 -0.0749 -0.1934
20348W        W40628  10.273   0.680  12.908 -0.0117  0.2168  0.1154
20349W        W40629  13.899   6.747  13.540  0.2876 -0.2684  0.2913
20350W        W40630   6.008   1.529   2.668 -0.1507  0.0576 -0.0953
20351W        W40631  10.968  10.090   3.396  0.1112  0.2354 -0.1253
20352W        W40632   5.683  12.502  13.499 -0.4433  0.1133  0.3849
20353W        W40633   4.095   9.327   1.944 -0.1650 -0.2216 -0.1809
20354W        W40634  18.760  10.055   2.952 -0.4805  0.0938 -0.0849
20355W        W40635  18.302   0.724  13.578  0.0911 -0.1794  0.2435
20356W        W40636  13.549   8.450  12.423 -0.0223 -0.0224  0.1683
20357W        W40637  15.376   6.006   3.097 -0.0786 -0.1694 -0.0618
20358W        W40638  17.028  18.338  12.325  0.1580  0.2504  0.0803
20359W        W40639   9.638  17.067   3.481 -0.0365  0.0609  0.1271
20360W        W40640  12.133   0.119   0.582 -0.0352 -0.0967 -0.2253
20361W        W40641   5.926  10.888   1.281 -0.1264  0.2721 -0.1417
20362W        W40642  13.564  10.693  11.772 -0.1535 -0.0210 -0.1841
20363W        W40643   8.090  14.698   4.080  0.0247  0.0995 -0.1436
20364W        W40644   9.766   6.156  13.691 -0.0655 -0.4513 -0.3269
20365W        W40645  18.612  14.844  10.214 -0.0054 -0.0815  0.3917
20366W        W40646  10.086  11.139   3.169  0.1918 -0.2196 -0.3872
20367W        W40647  16.932  10.031   0.750 -0.0461 -0.0615 -0.0133
20368W        W40648  10.567   0.294  12.696  0.2405  0.0566  0.4375
20369W        W40649  12.074   4.943  10.249  0.0462  0.1887 -0.1075
20370W        W40650   6.853  13.792  10.914 -0.4175  0.0560 -0.1864
20371W        W40651   0.068  13.671  10.345 -0.0531  0.1214  0.0439
20372W        W40652   0.608  10.217  11.239 -0.0838  0.0708  0.2261
20373W        W40653   1.567   8.115   1.620  0.0814 -0.1948  0.3379
20374W        W40654   0.582  16.623   1.285 -0.1127 -0.2303 -0.2018
20375W        W40655  19.872  15.536  12.282  0.2225 -0.1539 -0.1352
20376W        W40656   0.968  15.276   1.696 -0.0172  0.0987  0.0593
20377W        W40657   2.028  18.322  11.646 -0.0903  0.1201  0.1636
20378W        W40658  10.450  11.491   2.924  0.0261  0.2048 -0.2517
20379W        W40659   1.655   8.096  12.423  0.1233 -0.0705 -0.1405
20380W        W40660   1.802   7.128  13.096 -0.1587  0.0419 -0.0502
20381W        W40661   8.388  14.779   2.317  0.2048  0.0006 -0.0760
20382W        W40662  15.379  19.828  10.692  0.0548 -0.1719  0.1051
20383W        W40663  18.414   1.873   1.055  0.0865 -0.2396 -0.4747
20384W        W40664  12.699   1.766   0.644 -0.1177  0.0924  0.1159
20385W        W40665  15.767  16.373   2.789  0.1808  0.6502  0.1082
20386W        W40666  13.830   6.481   1.589 -0.1713  0.2956  0.2361
20387W        W40667   8.138   0.170   3.019 -0.1819  0.0431  0.1388
20388W        W40668   4.260  10.047  12.261 -0.3282  0.0802  0.2524
20389W        W40669   8.876  13.952   3.407 -0.1249  0.0925 -0.0319
20390W        W40670   3.767  19.846  11.791 -0.3995 -0.0365 -0.0642
20391W        W40671   9.852  16.452   0.712  0.0094  0.2427 -0.1333
20392W        W40672  11.089   6.646  10.669  0.0907  0.3607  0.0621
20393W        W40673   4.608  12.924   0.841 -0.2511  0.1032 -0.1284
20394W        W40674  16.871  11.429  11.022  0.1738  0.1766 -0.2920
20395W        W40675  13.849   0.513   1.344 -0.1403 -0.1696  0.2182
20396W        W40676  11.216   8.935  10.468  0.4203 -0.0080  0.3176
20397W        W40677   0.412  18.593  11.693 -0.1162  0.0593 -0.0544
20398W        W40678   5.238  16.413  13.147 -0.0117  0.1264 -0.1393
20399W        W40679  13.600   4.477   3.964 -0.1712  0.1745 -0.3813
20400W        W40680   4.060   2.713   3.021 -0.0917  0.0005  0.1688
20401W        W40681   7.429  14.625   2.528 -0.0415 -0.3786 -0.1427
20402W        W40682   6.357   4.560   2.053 -0.1722  0.0020  0.0834
20403W        W40683   7.691   6.430  12.800 -0.0291  0.2793 -0.1229
20404W        W40684   7.352   2.960   0.042  0.0385 -0.2733  0.2511
20405W        W40685   3.331   1.279   1.889 -0.0795 -0.3487 -0.2565
20406W        W40686   0.695   9.559  13.724 -0.0810  0.3187  0.1772
20407W        W40687  18.842  13.324   0.961  0.1426  0.2251 -0.0641
20408W        W40688   0.956  19.073  11.640  0.0356  0.0396 -0.0797
20409W        W40689  11.378  19.039   0.358  0.2309  0.1247  0.0358
20410W        W40690  13.121   0.680  12.680  0.0278 -0.2436  0.3952
20411W        W40691  16.988  16.288  10.722 -0.1393  0.1417  0.3021
20412W        W40692   6.734   5.036  13.743 -0.1625 -0.0848  0.0859
20413W        W40693   6.491  15.427   0.345 -0.3000 -0.0998 -0.1034
20414W        W40694  14.481   8.098  12.907 -0.0108 -0.1797  0.2388
20415W        W40695  15.334  18.267  13.766 -0.3241  0.0618  0.2812
20416W        W40696   6.048  11.789  11.812  0.0797 -0.1028 -0.0325
20417W        W40697  13.436   0.065   0.189 -0.1429  0.1869  0.0698
20418W        W40698   2.284   7.163   3.515  0.0582 -0.1430 -0.1526
20419W        W40699   8.022   6.902   3.228 -0.1633  0.0111 -0.0650
20420W        W40700  10.604  11.211   1.591 -0.3538  0.1499  0.0676
20421W        W40701  15.248  16.437  11.869  0.1886 -0.2316 -0.0949
20422W        W40702  10.105  12.544  11.429 -0.1587 -0.1471  0.2133
20423W        W40703   9.934  15.574   0.597 -0.2866 -0.1325 -0.2456
20424W        W40704  15.775  18.638   1.169 -0.1313  0.0980 -0.0139
20425W        W40705   0.204  18.102   4.248 -0.2980  0.1328 -0.0453
20426W        W40706  13.691  13.500   2.922  0.1588 -0.0405  0.0534
20427W        W40707  15.272  19.911  12.974 -0.2887 -0.1501  0.1896
20428W        W40708   5.949   6.023   3.378 -0.1143 -0.2806 -0.1790
20429W        W40709  17.368  19.148  10.042 -0.3116 -0.1689  0.2229
20430W        W40710   0.069  17.195   2.367  0.1064 -0.0454  0.1558
20431W        W40711  17.863  11.085   8.923 -0.0635  0.0041  0.1146
20432W        W40712  12.182  19.802   1.110  0.2589  0.2200 -0.2048
20433W        W40713   6.134  13.605  12.866 -0.0907 -0.2571 -0.0218
20434W        W40714   8.266   6.460  11.387  0.0325  0.0171  0.0563
20435W        W40715  14.457  13.400   1.431 -0.2026 -0.0512  0.0982
20436W        W40716   2.409  16.334   1.026 -0.0701 -0.0245 -0.2593
20437W        W40717  14.409   7.330  12.732  0.0834 -0.2355 -0.1239
20438W        W40718   5.350   6.531  13.741 -0.0876 -0.2962  0.1098
20439W        W40719  14.650   8.830   9.938  0.1921  0.3401 -0.1167
20440W        W40720   8.833   8.355  11.949  0.2223  0.2155 -0.1011
20441W        W40721   3.493  16.883  13.849  0.0778 -0.3111  0.1046
20442W        W40722  17.698  11.487  12.195  0.2199 -0.4107 -0.1362
20443W        W40723   3.168  11.659  11.851 -0.0703 -0.2427 -0.3926
20444W        W40724  19.621  14.696   3.101 -0.1238  0.0438  0.2384
20445W        W40725   6.833  18.767  12.977  0.2150 -0.3734 -0.1953
20446W        W40726  14.871   6.398  10.412 -0.1392  0.2052  0.0043
20447W        W40727  17.516  10.377   2.578 -0.2547  0.0899  0.0931
20448W        W40728  13.022  17.507   0.102  0.1551 -0.1332  0.0461
20449W        W40729  10.947   0.691   2.833 -0.0269  0.0246  0.0964
20450W        W40730   6.729  14.990  12.465  0.2611  0.4206  0.1080
20451W        W40731   2.032  16.089   2.352  0.2358  0.2910 -0.0721
20452W        W40732   6.218   6.104   0.733 -0.0258  0.0174  0.0993
20453W        W40733  15.579  19.867   9.922  0.0559 -0.0493  0.0406
20454W        W40734  12.188   8.195   1.054 -0.3147  0.1625 -0.0027
20455W        W40735  18.710   9.639   1.345  0.2516  0.1278  0.1226
20456W        W40736   7.704  13.627   3.946 -0.1589 -0.2142  0.3719
20457W        W40737   6.024  11.530  12.237 -0.1350 -0.0550  0.0035
20458W        W40738  19.022  15.187  12.191  0.0479  0.0016 -0.1246
20459W        W40739   7.409  14.151   0.422 -0.0271 -0.1585  0.2138
20460W        W40740  13.637  13.959   3.205 -0.2707 -0.1566  0.1657
20461W        W40741  10.534   6.877  10.726  0.0837  0.2192  0.3751
20462W        W40742   5.647  10.996   4.134 -0.0860 -0.3681 -0.0320
20463W        W40743   8.041   9.978   3.926 -0.0717  0.1327 -0.3829
20464W        W40744   9.887   4.689   2.919  0.1184  0.3720 -0.0041
20465W        W40745  15.758   4.270   0.378 -0.1669 -0.1353  0.0577
20466W        W40746   9.866  18.069   1.520 -0.0285  0.1012  0.0486
20467W        W40747   1.769   8.200  10.486  0.3081  0.1780 -0.3566
20468W        W40748  14.470  16.794   2.847  0.1464 -0.2977  0.2551
20469W        W40749  12.650   9.253   1.777 -0.0308  0.2307 -0.0661
20470W        W40750   3.169   9.044   0.807 -0.2240  0.1101  0.1610
20471W        W40751   3.671   9.306  13.495  0.1033 -0.0857  0.2549
20472W        W40752   0.363   8.084  10.812  0.0950 -0.0038  0.1418
20473W        W40753   1.471  17.353   1.878 -0.0315  0.2708  0.3387
20474W        W40754   9.221  11.746   2.578  0.1616  0.4108 -0.3775
20475W        W40755   0.332   2.299   2.757 -0.0649  0.2348 -0.0850
20476W        W40756   8.256  18.230   3.463 -0.0103 -0.1471 -0.1058
20477W        W40757   8.542   8.609  10.328 -0.2529  0.0575 -0.2251
20478W        W40758   5.998   3.203   1.158 -0.1555 -0.0226 -0.2693
20479W        W40759  19.095  10.989   3.052 -0.1522  0.1523 -0.0464
20480W        W40760  16.980  10.968  13.007  0.3408  0.0835 -0.1624
20481W        W40761  19.703  16.622   1.244  0.1778 -0.0033 -0.1597
20482W        W40762   4.767   0.815   2.817 -0.1799  0.0965 -0.0280
20483W        W40763  17.281   7.480   0.144 -0.1224 -0.2378 -0.0428
20484W        W40764  12.610   8.120   9.791  0.2075  0.4145 -0.0195
20485W        W40765   8.522   0.551  10.174 -0.2177 -0.0983  0.0197
20486W        W40766   5.081   7.295   2.246 -0.0137  0.0056  0.0599
20487W        W40767  16.650  12.243   2.018 -0.1056  0.0067 -0.1436
20488W        W40768  18.697   1.433   1.171  0.0733 -0.1974 -0.0261
20489W        W40769   2.953  17.144   0.655 -0.0758  0.0821  0.2300
20490W        W40770   1.087  19.470  12.518  0.0395 -0.0982 -0.0159
20491W        W40771   9.703  10.216   1.056  0.4023 -0.1194  0.3615
20492W        W40772  14.660   9.870  11.277  0.0395  0.1204 -0.1416
20493W        W40773   0.329  16.891   3.499  0.0792  0.0002  0.1739
20494W        W40774  16.112   5.378  12.646  0.0535 -0.0173  0.1030
20495W        W40775   5.517  19.710  12.831  0.1348 -0.0074  0.1473
20496W        W40776  10.341   0.455   2.571 -0.0069 -0.0895 -0.2193
20497W        W40777   5.349  18.088   3.146 -0.0675 -0.3338  0.1342
20498W        W40778   1.868   5.926  12.775  0.1699  0.0915  0.0106
20499W        W40779  14.775   3.435   0.301 -0.0864  0.2306  0.1897
20500W        W40780  16.894   7.223   9.644  0.1071  0.1675  0.0865
20501W        W40781   1.959  15.781   3.254 -0.3392 -0.3048 -0.1808
20502W        W40782  11.691   6.951  11.196 -0.2112 -0.0932  0.1760
20503W        W40783  19.225  17.121  10.697 -0.2278 -0.3141  0.1851
20504W        W40784   6.955  18.996  12.034 -0.1308  0.0390 -0.0166
20505W        W40785   1.165  19.029  12.811 -0.1456 -0.1070  0.0072
20506W        W40786   4.870   9.317  12.991 -0.2684  0.1212  0.0301
20507W        W40787   0.977   3.773  12.404  0.4533  0.3278 -0.0610
20508W        W40788   3.668   8.174   2.006  0.3077  0.1907 -0.1467
20509W        W40789  12.447  10.375   0.589 -0.2766  0.1406  0.0300
20510W        W40790  19.697  18.854   2.620 -0.1215  0.1349 -0.1655
20511W        W40791   1.034  11.011   0.301  0.0018 -0.1595 -0.2586
20512W        W40792   4.155   8.533  10.813 -0.2107 -0.1686  0.2884
20513W        W40793  13.080   9.463   2.498  0.1588  0.1070  0.0620
20514W        W40794   7.820  13.680  11.197 -0.0250  0.2971  0.0618
20515W        W40795  19.608  13.445  11.366  0.1638 -0.2723  0.0945
20516W        W40796   9.584   7.869  10.189 -0.0198 -0.0173 -0.1379
20517W        W40797  10.156  18.664  13.660  0.0443 -0.2022  0.1153
20518W        W40798   5.119  16.268   4.100 -0.0714  0.0555 -0.0741
20519W        W40799  15.790  11.822   1.993 -0.3603 -0.1265 -0.1278
20520W        W40800   0.184  13.671   2.598  0.1572 -0.1917 -0.1019
20521W        W40801  17.804   9.773  11.626 -0.0445  0.0699  0.0142
20522W        W40802   6.147  18.774  10.900  0.1882  0.1919  0.1892
20523W        W40803  11.101  13.154   2.749 -0.1672 -0.2418 -0.2324
20524W        W40804   7.655  13.282  12.514 -0.2122 -0.0149 -0.1876
20525W        W40805  15.265  18.421  13.249 -0.0386 -0.2015  0.1299
20526W        W40806   2.537  17.014  13.275  0.0315  0.1017  0.1682
20527W        W40807  15.395  11.900   1.656  0.0504  0.0180 -0.1103
20528W        W40808   0.533   9.034   9.138  0.2139 -0.1706 -0.2155
20529W        W40809  12.254  11.904   1.138  0.1203  0.1358 -0.2144
20530W        W40810   1.309  10.176   3.230 -0.1545  0.1585 -0.0990
20531W        W40811   9.727  12.955   3.796 -0.2927 -0.1647 -0.0509
20532W        W40812  10.320   4.182  10.703 -0.0457 -0.1066 -0.0605
20533W        W40813  17.141  19.295  13.782 -0.0620  0.1927  0.0305
20534W        W40814   8.041   2.714   4.031  0.1517 -0.1911  0.0050
20535W        W40815   4.459  18.755   0.015 -0.0351  0.0444 -0.1514
20536W        W40816   2.870  10.871  10.595 -0.1677  0.2299 -0.3709
20537W        W40817  18.730  19.544  12.568 -0.0058  0.3229 -0.0510
20538W        W40818   1.218   5.604  10.508 -0.2466 -0.1106  0.1046
20539W        W40819   0.647  11.777   3.405  0.3146  0.1491  0.0909
20540W        W40820  10.011   7.629  10.617  0.1241 -0.5515 -0.3398
20541W        W40821   4.576  18.318   1.816  0.4068 -0.0012  0.1929
20542W        W40822  18.598  13.578  11.493  0.0809 -0.2554 -0.1619
20543W        W40823  11.387  15.798   2.547 -0.0885 -0.0886 -0.2873
20544W        W40824  19.912   5.952  12.016  0.0795 -0.0554  0.0057
20545W        W40825  14.763  15.733   0.133 -0.0682  0.2903 -0.0662
20546W        W40826   2.735  19.619  11.818 -0.0944  0.0448  0.4044
20547W        W40827  16.365  10.510  12.215 -0.2057 -0.0614 -0.1091
20548W        W40828   1.294   5.778  13.167 -0.0715  0.1493  0.0184
20549W        W40829  16.180   4.376  13.402  0.2851 -0.2000  0.0777
20550W        W40830   0.099  18.138   2.116 -0.4259  0.1329  0.1528
20551W        W40831  12.838  16.674   3.067 -0.3145 -0.0074 -0.0149
20552W        W40832  10.813   1.235  11.132  0.1636  0.1061 -0.2230
20553W        W40833   5.382   3.933   1.950  0.0350  0.0904 -0.1269
20554W        W40834  11.711   3.691  13.629 -0.1374  0.0452 -0.1000
20555W        W40835  18.322  18.322  11.128 -0.0214 -0.0442  0.0995
20556W        W40836   2.029  14.881   3.099 -0.0187 -0.3299 -0.0856
20557W        W40837   7.779  15.496   0.713 -0.2007  0.0056 -0.0810
20558W        W40838  16.055   7.362   0.676  0.0012  0.0996  0.1064
20559W        W40839   9.072  12.993  13.537  0.0382  0.2091  0.2214
20560W        W40840   3.341  19.597  12.710  0.1366  0.1792  0.0319
20561W        W40841   8.074  18.598   2.473  0.2226  0.0892  0.1425
20562W        W40842  12.645   9.788  13.262 -0.3297  0.2426 -0.0953
20563W        W40843  17.002   2.467   2.931  0.3191 -0.2000 -0.0902
20564W        W40844   0.965  13.101  10.857  0.0266  0.1518  0.1511
20565W        W40845  15.908  14.074   2.337 -0.1753 -0.3131 -0.2560
20566W        W40846   6.511   3.145   3.566 -0.1567  0.1410  0.2972
20567W        W40847   5.616  12.631   2.774  0.0407  0.0404 -0.0704
20568W        W40848   5.835   9.682  12.866 -0.2598 -0.0802 -0.2448
20569W        W40849  13.874   6.210   2.936  0.2225  0.2509 -0.1809
20570W        W40850  15.714   3.265  10.154 -0.3435  0.0091 -0.0447
20571W        W40851  10.945   5.639  12.727 -0.1568  0.0637 -0.0091
20572W        W40852  14.378   0.159  12.726 -0.0891  0.4025  0.1038
20573W        W40853   4.152   7.500   0.416 -0.1190 -0.1788  0.0180
20574W        W40854  13.591   4.551   9.870 -0.1265  0.1995  0.1957
20575W        W40855  18.318  18.325   4.885  0.2824 -0.0318 -0.1789
20576W        W40856  14.231   1.166   1.893  0.0840 -0.1648  0.3108
20577W        W40857   8.133  15.628   0.236  0.1016 -0.1228 -0.4680
20578W        W40858   6.274  19.802   2.922 -0.0339 -0.0166 -0.1786
20579W        W40859  13.758   9.635   1.457  0.1109 -0.0476 -0.0535
20580W        W40860   0.457   2.383  10.807  0.0509 -0.1959 -0.3206
20581W        W40861   6.750   0.533   0.904 -0.3460 -0.2580 -0.1600
20582W        W40862  19.845   3.810  10.477  0.0199  0.0123  0.1888
20583W        W40863  17.560  19.090  12.912 -0.1217  0.2246 -0.0070
20584W        W40864   2.988   5.124  13.667 -0.0242  0.0005  0.2207
20585W        W40865  17.479  16.900  11.753 -0.1447  0.3224  0.1030
20586W        W40866  14.972   9.614  10.856 -0.0928  0.4506 -0.0191
20587W        W40867   1.312   4.634  10.383  0.0008 -0.2581 -0.0952
20588W        W40868  11.891   7.909  11.429 -0.1450  0.0879  0.3101
20589W        W40869  10.344   9.840   3.701  0.2396 -0.2557 -0.0056
20590W        W40870   8.599  15.654   2.142  0.0565 -0.0048 -0.1913
20591W        W40871  13.435   5.801   2.212  0.0463  0.1520  0.0015
20592W        W40872  18.382   8.219   0.011 -0.2318 -0.1199  0.0342
20593W        W40873   1.508   6.673  11.274 -0.0348  0.0686 -0.3358
20594W        W40874  12.140   2.577   1.698 -0.0136 -0.3867  0.1282
20595W        W40875  17.369   1.769   3.142  0.0773  0.1495  0.1214
20596W        W40876  17.079   0.313   3.262 -0.0919  0.0190 -0.0292
20597W        W40877  17.459  16.060   1.650  0.1281  0.3299  0.1864
20598W        W40878   9.000  11.612   4.633  0.1145 -0.1822 -0.3675
20599W        W40879  19.061  17.376   3.154  0.0224 -0.0591 -0.2734
20600W        W40880   2.631  18.126   9.759 -0.0626 -0.1198  0.1920
20601W        W40881  19.115  18.393   2.657  0.1695  0.2624  0.0864
20602W        W40882  17.061   0.697  12.338  0.1636 -0.2214  0.0799
20603W        W40883  11.105   1.370   3.409 -0.0195 -0.0823  0.2464
20604W        W40884   4.559  15.415   0.308 -0.0927 -0.1016 -0.2236
20605W        W40885   2.951   4.813   3.233  0.0693  0.3176  0.2104
20606W        W40886  19.855   0.394   3.065  0.1790 -0.1669  0.1802
20607W        W40887   0.954   4.080  11.448  0.0838  0.0788  0.3930
20608W        W40888   3.442   2.607  12.811  0.1195  0.1211 -0.2764
20609W        W40889   3.941  16.911   2.710  0.1954 -0.0096 -0.2180
20610W        W40890  19.434   0.483  12.287  0.2355 -0.1399  0.5217
20611W        W40891   2.967   4.208   2.773 -0.1587  0.0513 -0.1480
20612W        W40892   5.286  19.551   9.878  0.1023  0.0240 -0.0407
20613W        W40893   4.718   9.794  12.195  0.2209  0.0203 -0.0937
20614W        W40894   2.025  16.194  11.981  0.0019  0.2867  0.1492
20615W        W40895   4.881  12.285   3.872 -0.3416 -0.3063  0.0084
20616W        W40896  15.945   2.376   0.792 -0.2405 -0.0776  0.2831
20617W        W40897  14.844  11.740   3.172  0.2367  0.0788 -0.1617
20618W        W40898   3.601   8.320  11.620  0.0202 -0.1965 -0.2194
20619W        W40899  19.718   3.230  13.016 -0.1444 -0.2720 -0.3296
20620W        W40900   1.191   6.771   0.294 -0.0283  0.3110 -0.0800
20621W        W40901   6.713  12.818  11.867  0.1634 -0.0662  0.0183
20622W        W40902   3.598  17.455   1.354  0.1409 -0.0297 -0.0961
20623W        W40903  10.805  16.503  13.035 -0.0316 -0.2386 -0.0778
20624W        W40904   4.424  11.386   9.885 -0.0034  0.0255 -0.0575
20625W        W40905  18.393   8.906   3.220 -0.1625  0.1496 -0.2093
20626W        W40906   5.651  12.022   3.903 -0.1884 -0.3633 -0.0542
20627W        W40907  10.884  15.816  10.415 -0.1030  0.1347  0.1367
20628W        W40908   7.944   4.934   3.387 -0.3597 -0.0916  0.1546
20629W        W40909   6.059  16.168   1.247  0.1290 -0.1466  0.2368
20630W        W40910  16.831  15.586  11.759 -0.0870  0.1143  0.1654
20631W        W40911  12.166   2.160   3.066  0.1485 -0.1228 -0.2757
20632W        W40912  13.103   9.163  11.653  0.1801  0.1023  0.0470
20633W        W40913  16.010  10.212   9.606  0.2299  0.1968  0.0305
20634W        W40914   2.888  13.459   0.489 -0.3456 -0.1036 -0.1373
20635W        W40915  12.604  10.186   2.904  0.1997 -0.0515 -0.0474
20636W        W40916   0.913   8.266   3.171  0.0888  0.0579  0.0159
20637W        W40917  17.776  16.476  13.784 -0.0457 -0.1190  0.1058
20638W        W40918   3.702  10.094  12.206 -0.2122 -0.1746 -0.0730
20639W        W40919   4.007  17.223  11.510 -0.0060  0.3203  0.0103
20640W        W40920   8.775  12.862   1.510 -0.1114  0.0020  0.0609
20641W        W40921   9.713   9.544   4.330 -0.0175  0.2877  0.1133
20642W        W40922   0.663  16.223   3.260 -0.0133 -0.1619  0.0422
20643W        W40923  13.734   6.965   1.258  0.0080  0.2074 -0.1272
20644W        W40924  10.944   6.151  13.662  0.0340  0.0660  0.1964
20645W        W40925   9.568  13.939  13.432 -0.0847 -0.0689  0.0380
20646W        W40926  13.858  19.059  13.257 -0.0622  0.1701  0.1969
20647W        W40927   4.995  18.938   2.352  0.0609  0.0237 -0.1934
20648W        W40928   8.003  17.846  10.592 -0.3585 -0.0266 -0.3012
20649W        W40929   5.929   0.015  10.840 -0.1847 -0.1212 -0.1268
20650W        W40930  11.428  16.000  12.734  0.2997 -0.1721 -0.1422
20651W        W40931   1.892   4.107  11.490  0.1623 -0.0621  0.3546
20652W        W40932   4.616  10.516   1.398 -0.1601  0.0960 -0.0432
20653W        W40933   3.518   4.824   9.463  0.0778 -0.1200 -0.0756
20654W        W40934  10.502   9.438  11.429 -0.0615  0.1086 -0.0064
20655W        W40935   5.092   3.971   0.014  0.0178 -0.1044  0.0536
20656W        W40936  12.667   3.082  13.842  0.0755  0.1770 -0.3522
20657W        W40937   6.173   0.154  13.047  0.1879  0.2627  0.1195
20658W        W40938  11.492   4.485  13.780 -0.0366  0.1726 -0.1182
20659W        W40939  14.640   9.919  12.349 -0.1554  0.1534  0.1809
20660W        W40940   8.408  14.207   2.474 -0.3259 -0.0385  0.2943
20661W        W40941  10.060  12.054   1.649 -0.2524  0.1474 -0.1050
20662W        W40942   5.083   1.442   2.745 -0.0765 -0.2324 -0.0137
20663W        W40943   4.176   2.989   1.269 -0.1060  0.2139  0.0654
20664W        W40944  14.344  11.054  11.917  0.1764  0.0521  0.3278
20665W        W40945   9.321   9.095   1.908  0.1562 -0.1551  0.1750
20666W        W40946   2.666  12.069   2.278  0.2508 -0.1960  0.2425
20667W        W40947   4.048  11.471   2.562  0.3007 -0.2881  0.2196
20668W        W40948   6.458   6.638   2.167 -0.2981 -0.1215  0.1875
20669W        W40949   6.017  15.989   4.210 -0.1750  0.1131 -0.0385
20670W        W40950   5.769  18.671  13.003 -0.0637 -0.3659  0.0975
20671W        W40951   7.752  15.093   4.133 -0.0700 -0.1388 -0.2282
20672W        W40952  17.438   2.400  11.388 -0.0304 -0.0275  0.2420
20673W        W40953   1.574   7.663  10.757  0.1830 -0.0875 -0.2998
20674W        W40954  12.052   4.340   1.262 -0.0064  0.0299  0.3481
20675W        W40955   4.450   2.487   1.294 -0.1563 -0.1077  0.0526
20676W        W40956   3.359   1.245   0.109 -0.0516  0.0093 -0.1060
20677W        W40957  10.118   9.402   0.733 -0.0219 -0.0509 -0.1602
20678W        W40958   3.176  17.564  12.990 -0.1702 -0.0483 -0.1884
20679W        W40959   0.769   2.158  10.438 -0.0044  0.1972  0.2112
20680W        W40960  13.303   5.473   3.333  0.0939  0.0501 -0.2229
20681W        W40961   9.063  18.202  13.132 -0.2583  0.0553 -0.0902
20682W        W40962   6.207   3.686   2.265 -0.0750  0.1369  0.0255
20683W        W40963  12.051   1.775  12.084  0.2724 -0.1123 -0.0478
20684W        W40964  18.689   1.343   2.636 -0.0276  0.0793  0.0520
20685W        W40965   5.070  11.415   0.358 -0.1017 -0.0889 -0.2014
20686W        W40966   5.345   6.080   2.740  0.3197 -0.0797 -0.1477
20687W        W40967   0.028  10.358  11.128  0.1698  0.0446 -0.4980
20688W        W40968   2.196  14.261  12.967 -0.0113  0.5205 -0.1008
20689W        W40969  14.018  17.400   3.577  0.0677 -0.0176  0.1500
20690W        W40970  14.373  18.721  13.750  0.2410 -0.0066  0.0043
20691W        W40971   5.930   2.603   1.949 -0.1973 -0.2095 -0.0710
20692W        W40972   2.580  12.948   3.424  0.4540  0.2441  0.0878
20693W        W40973   8.443  13.818   3.250  0.0729  0.2436  0.0534
20694W        W40974   4.702   8.861  12.004 -0.0823 -0.1252  0.1571
20695W        W40975   7.442  15.811   1.019 -0.3319 -0.0145  0.2511
20696W        W40976   6.488   2.139  10.939 -0.2743 -0.3445 -0.0199
20697W        W40977  18.049  16.270   3.402 -0.1747  0.1606  0.0720
20698W        W40978   3.653  12.739   2.880 -0.1221  0.1134  0.1061
20699W        W40979   8.728  17.576   4.238 -0.1192 -0.0366 -0.0552
20700W        W40980   2.497   1.990   3.849  0.2076  0.1668  0.1458
20701W        W40981  11.991  13.988   1.131 -0.0180  0.1178 -0.2496
20702W        W40982   3.984  17.679   3.030 -0.1193  0.1022 -0.0275
20703W        W40983  17.513   0.364  13.614  0.2171 -0.0582  0.1302
20704W        W40984  17.481   6.163   0.951  0.0125 -0.2681  0.1126
20705W        W40985  12.798  15.158   2.319  0.1251  0.0918  0.0529
20706W        W40986   6.494   7.028   4.148 -0.1401  0.0638 -0.0661
20707W        W40987  12.401   9.359   3.222  0.3151  0.1686  0.0442
20708W        W40988  19.650   3.954  11.037 -0.0053 -0.4083 -0.0404
20709W        W40989  11.258  18.382   3.754 -0.2739  0.0183  0.2965
20710W        W40990   7.449   4.750   0.541  0.1396 -0.0740 -0.2899
20711W        W40991  13.128   1.491  10.196  0.1264  0.1725  0.0045
20712W        W40992  11.685  14.350  13.106  0.1514 -0.1807  0.0291
20713W        W40993  12.407  19.946  12.466 -0.1721  0.2146 -0.0473
20714W        W40994  12.762  14.041  13.574 -0.0117 -0.0680 -0.1431
20715W        W40995   8.473   6.204   3.318 -0.0238 -0.4949 -0.1734
20716W        W40996  10.679   6.081  12.641  0.6166  0.3135  0.0948
20717W        W40997   2.100   5.588   1.220  0.0197  0.2077  0.2690
20718W        W40998  18.047   0.769   3.365 -0.0032 -0.0172  0.0892
20719W        W40999   3.636   7.053   2.368 -0.1174 -0.0732  0.1309
20720W        W41000   8.357  16.917   0.201 -0.3842 -0.0359  0.1962
20721W        W41001  10.931   9.579  12.791 -0.2114 -0.0263 -0.1151
20722W        W41002   2.905   4.831   1.231 -0.0695  0.0082  0.0849
20723W        W41003  16.647   4.563   2.900  0.1343  0.1000 -0.0099
20724W        W41004   3.762  12.275  12.462 -0.1522  0.0852 -0.0502
20725W        W41005  10.420  18.398  11.590 -0.1154  0.1019 -0.0428
20726W        W41006  19.796   8.561   8.744 -0.0909 -0.1256 -0.2777
20727W        W41007   6.735   9.577  13.188  0.3390  0.1546  0.2776
20728W        W41008  16.551   0.515  10.381 -0.1380  0.3184 -0.0558
20729W        W41009   1.232   8.827   3.856 -0.3645 -0.2119  0.0514
20730W        W41010   4.378  13.002   2.304  0.3513  0.2169  0.0747
20731W        W41011   6.949  11.835   2.451 -0.2502 -0.1129 -0.0111
20732W        W41012   3.274   2.897   1.586 -0.0723  0.0322  0.1727
20733W        W41013  15.199  19.075   0.985 -0.1475 -0.0763 -0.0281
20734W        W41014   7.433  13.199   2.085  0.1667 -0.1030 -0.0411
20735W        W41015  16.518   1.322  11.823 -0.1044  0.1825  0.0222
20736W        W41016  14.402  19.874  11.348  0.2024 -0.3372  0.4304
20737W        W41017  19.908   5.704   1.516 -0.0308 -0.2650 -0.1882
20738W        W41018  17.796   8.837   0.235 -0.6835  0.0186 -0.0943
20739W        W41019   5.833  10.865  10.947 -0.0291  0.2497  0.4078
20740W        W41020   5.371  12.277  12.130  0.1616  0.2276 -0.2386
20741W        W41021   1.092   2.429  12.896  0.0344  0.2353 -0.2555
20742W        W41022  14.330   9.024   0.668  0.0309  0.1712 -0.0401
20743W        W41023  17.117  17.122   1.829  0.0670 -0.0090  0.1296
20744W        W41024  18.189   8.933   0.689 -0.0980 -0.2131  0.0134
20745W        W41025   3.235  15.568  11.639 -0.0690  0.0154  0.0015
20746W        W41026   4.789   6.901   2.505  0.4591 -0.2772  0.4574
20747W        W41027   1.185   6.992   3.267 -0.2148 -0.2378  0.1162
20748W        W41028  18.823  13.989  12.672  0.3732 -0.1104  0.0852
20749W        W41029   7.495  18.753  10.436  0.0361  0.0449  0.3731
20750W        W41030   3.818  19.041  11.293  0.2637  0.0342 -0.0111
20751W        W41031  13.862  18.035  12.975  0.0737  0.1207  0.1552
20752W        W41032   8.171   8.876   3.219 -0.1078  0.0850 -0.0272
20753W        W41033   2.200  11.135   1.439  0.1150 -0.0821  0.2416
20754W        W41034  14.938   3.639   2.404 -0.2213 -0.1129 -0.0553
20755W        W41035  12.851   5.170   0.072 -0.0438 -0.0485  0.2586
20756W        W41036   0.366   2.958   1.927 -0.1065  0.2660 -0.1792
20757W        W41037   4.331  19.014   0.487 -0.1103  0.2533  0.2557
20758W        W41038  17.310   0.200   2.821 -0.0033 -0.1867  0.0888
20759W        W41039   8.009  19.309   1.910  0.3017 -0.1738  0.1732
20760W        W41040  17.756  10.365  12.135 -0.0635 -0.3728 -0.1461
20761W        W41041   0.868  12.746  11.734  0.1176  0.0841  0.0182
20762W        W41042  17.430  19.309   2.749  0.1210  0.2829 -0.1152
20763W        W41043  16.413  11.525   0.725 -0.1262 -0.1570  0.1521
20764W        W41044   8.114   7.337   2.549  0.0436  0.0116  0.1288
20765W        W41045  19.354   2.645   1.177  0.2933  0.0392  0.1622
20766W        W41046  14.607  13.869  12.568  0.1384  0.0099 -0.0453
20767W        W41047   5.425  10.098   0.276 -0.1014  0.0278 -0.0886
20768W        W41048   4.788   2.704  13.351 -0.0931  0.0674 -0.0985
20769W        W41049  16.706   6.692  10.519 -0.2129 -0.3346  0.2602
20770W        W41050  14.962   5.074  13.274  0.0946  0.0951  0.0724
20771W        W41051   5.608   9.460  10.520  0.1239 -0.0607 -0.2583
20772W        W41052  18.157   6.062   3.634 -0.0436  0.3355  0.1805
20773W        W41053  16.441   5.252   1.112 -0.3660  0.0769 -0.2688
20774W        W41054   0.811  15.085  13.542  0.1533 -0.1460  0.1100
20775W        W41055   3.743   0.390   4.061 -0.0509 -0.0397 -0.1481
20776W        W41056   5.931  13.974  12.523 -0.0060 -0.0835  0.0144
20777W        W41057  14.950  19.571   2.544 -0.1541 -0.0941  0.1056
20778W        W41058   0.796   9.041  12.596  0.2683 -0.1288  0.0521
20779W        W41059   8.221  19.731   0.145 -0.2529 -0.3376  0.1991
20780W        W41060   3.440   6.555  13.266  0.1355  0.1697 -0.1735
20781W        W41061   7.482   7.879  10.213  0.0621 -0.1797  0.1250
20782W        W41062  13.490   9.348  10.083  0.0711  0.3085  0.0204
20783W        W41063   4.084  19.748   2.447  0.1771 -0.1749 -0.2338
20784W        W41064  14.516   9.460   3.387  0.0757  0.0041  0.0956
20785W        W41065   3.538   6.510  11.845 -0.2278  0.3006 -0.1105
20786W        W41066   4.140  10.562  13.466  0.0496 -0.1770  0.0298
20787W        W41067  14.894   1.914  12.641 -0.1861  0.3070  0.2195
20788W        W41068  13.511   1.325   1.089 -0.3550  0.1151  0.0979
20789W        W41069   1.716   9.368  12.655 -0.1487  0.1283 -0.1673
20790W        W41070   1.846  15.145   0.240  0.1268  0.1798  0.1046
20791W        W41071  19.188  15.866   2.457  0.2981 -0.0709 -0.2314
20792W        W41072   0.484   0.322   1.933 -0.1429 -0.0331  0.0615
20793W        W41073   4.872  12.142  12.367 -0.1870  0.2970  0.2238
20794W        W41074  12.602  14.694  13.651  0.0216  0.1633 -0.1994
20795W        W41075  18.061  15.383  10.948 -0.1597  0.0327  0.0496
20796W        W41076   7.211  12.734   3.784 -0.1380 -0.2556  0.1184
20797W        W41077   2.687  15.832   1.102 -0.0498 -0.0110  0.0933
20798W        W41078  11.760  19.016   0.956 -0.1650  0.1070  0.0582
20799W        W41079   2.538   1.722   1.165 -0.0047  0.1605 -0.2246
20800W        W41080   2.538   0.675  11.087  0.0486  0.4480 -0.2125
20801W        W41081   2.284   3.638   2.667 -0.0817 -0.3372  0.0303
20802W        W41082   2.826  14.937   0.998 -0.1899 -0.0475  0.1114
20803W        W41083  19.943   7.941  12.039 -0.2237  0.0445  0.1670
20804W        W41084  15.778   0.184   2.676  0.1643  0.0731  0.0234
20805W        W41085   3.072  14.827   2.919 -0.0891  0.2153  0.2488
20806W        W41086   0.022   4.379  12.519 -0.1884  0.0378 -0.0090
20807W        W41087  15.174   9.449   1.399  0.1529  0.0923  0.1901
20808W        W41088   4.296  15.058   3.568 -0.2942 -0.1035  0.0044
20809W        W41089   0.646   1.995   1.175 -0.0159  0.0371  0.2244
20810W        W41090  14.194   5.821  10.804  0.2155  0.2043 -0.0109
20811W        W41091   0.195  16.353   4.421  0.0328 -0.0562 -0.1509
20812W        W41092   9.249   6.986   9.470 -0.1106  0.0797 -0.0302
20813W        W41093   9.678  17.479  12.603 -0.2809 -0.0691  0.0997
20814W        W41094  12.317  15.962   1.175  0.1957 -0.0763  0.3707
20815W        W41095   2.163   4.121   0.268 -0.1793  0.1827  0.3997
20816W        W41096   5.094   9.068   0.139 -0.1074  0.1088  0.0805
20817W        W41097   2.108  12.930   3.838 -0.2909  0.3637  0.0284
20818W        W41098   4.009  18.342   3.529  0.1794  0.3100 -0.4398
20819W        W41099  16.907   5.408  12.216 -0.2634  0.2030 -0.0216
20820W        W41100   5.690  14.123   0.777  0.3317 -0.1141  0.1472
20821W        W41101   1.168   9.610   1.403 -0.0267 -0.1025  0.1855
20822W        W41102   9.358  13.316  10.794  0.0865 -0.0125 -0.2305
20823W        W41103   0.396  11.042   0.953 -0.1617 -0.1818  0.0205
20824W        W41104   0.797   8.561   2.532 -0.0828  0.0592  0.0675
20825W        W41105  12.841   8.966   0.849 -0.0264  0.2159 -0.2315
20826W        W41106   0.715  10.698   9.952  0.3637 -0.1509 -0.1102
20827W        W41107  13.697   5.377   2.615  0.1091  0.0716 -0.0734
20828W        W41108   1.955  11.814   0.459  0.3509  0.1567 -0.1154
20829W        W41109  18.597  15.176  13.396  0.3913  0.1248 -0.0423
20830W        W41110  13.449   9.277   3.163 -0.1750 -0.2288 -0.0304
20831W        W41111  18.902   4.570   0.147  0.2595  0.0635 -0.5118
20832W        W41112  19.103  18.880   2.820 -0.1626 -0.1166 -0.3148
20833W        W41113  19.532   7.519  13.225 -0.3934  0.2833 -0.0767
20834W        W41114  16.732   5.390  11.324 -0.0897  0.0235 -0.1897
20835W        W41115  12.374   5.497  12.760  0.0656  0.4819  0.1170
20836W        W41116   0.049   2.886   9.908 -0.2854 -0.0892  0.3476
20837W        W41117  14.836   2.674   0.337  0.0784 -0.0481 -0.0163
20838W        W41118  14.559   8.487   8.931  0.0141  0.0041 -0.0780
20839W        W41119   7.929  14.508  11.454  0.3564 -0.1010 -0.0202
20840W        W41120  17.113  14.570   1.354 -0.0304 -0.0706  0.0259
20841W        W41121   2.539  11.988  13.208 -0.3688  0.1510  0.0722
20842W        W41122  17.816   0.389  10.407 -0.3646  0.1296 -0.1766
20843W        W41123   8.385  14.092  11.012  0.0064  0.1392  0.0245
20844W        W41124   8.525   3.740   2.999  0.0085 -0.1191 -0.2301
20845W        W41125  14.697  14.017   9.341  0.0697  0.0819  0.0796
20846W        W41126  16.147   4.433  12.032  0.1947  0.0369 -0.1052
20847W        W41127   7.608  17.129   1.049  0.0311 -0.0560  0.0741
20848W        W41128  10.950  16.691  13.466 -0.0538  0.1914  0.2466
20849W        W41129  10.622   0.608   2.139 -0.3176 -0.2635  0.2992
20850W        W41130  11.785  19.257   2.362 -0.1575 -0.0878  0.1441
20851W        W41131   3.632   8.124   0.480 -0.0040  0.0979 -0.1009
20852W        W41132   7.442   1.798   0.068  0.1397 -0.2657 -0.2138
20853W        W41133  18.718   1.078   0.194 -0.1666  0.0243 -0.3297
20854W        W41134  18.295  15.319   2.826  0.0341 -0.2180 -0.1010
20855W        W41135  10.991  15.349  10.379 -0.0743  0.3889  0.4051
20856W        W41136  12.884   3.209   3.002 -0.0202 -0.2655  0.4296
20857W        W41137   1.143  16.718   1.283 -0.2524  0.3273 -0.1257
20858W        W41138   9.979  19.181   0.671  0.0969 -0.1852  0.0026
20859W        W41139   1.444  13.985   1.458 -0.2457  0.0746 -0.2088
20860W        W41140  10.141  12.713   3.554  0.0951  0.1214  0.0529
20861W        W41141  14.008   4.509   3.447  0.1547  0.1869 -0.1521
20862W        W41142  19.756   2.637   2.974 -0.0580 -0.1992 -0.0567
20863W        W41143  16.324  10.366   1.219 -0.2532 -0.0865 -0.1356
20864W        W41144  11.000   9.146  12.322  0.3417  0.0317  0.0116
20865W        W41145   9.299   2.614   0.056 -0.1226  0.0350  0.1449
20866W        W41146  16.586  11.212  11.425  0.1659 -0.0917  0.2088
20867W        W41147  11.647   6.549   1.104  0.0174  0.0677 -0.0084
20868W        W41148   5.127  14.916  11.369  0.0778 -0.0954  0.2905
20869W        W41149   7.123   9.574   1.961  0.0413  0.0456  0.1864
20870W        W41150  14.374   2.014  11.065  0.1223  0.4755 -0.0243
20871W        W41151  15.861   6.003  12.194 -0.4473  0.3539  0.2645
20872W        W41152  10.976  19.538  12.966  0.2968  0.3051  0.0274
20873W        W41153  16.063   8.854  12.298  0.0193 -0.0981  0.2684
20874W        W41154  11.980   8.334  10.485 -0.1622  0.0104  0.1967
20875W        W41155   8.106  10.712  13.258  0.1302 -0.2743 -0.0855
20876W        W41156   1.988   2.477   3.354 -0.0263 -0.2519 -0.1170
20877W        W41157   5.992   8.790   0.285  0.0683  0.1888 -0.0005
20878W        W41158  18.498   8.544   0.428 -0.1402 -0.0373  0.2591
20879W        W41159  14.317   6.703  10.528 -0.1922  0.1639  0.0931
20880W        W41160   0.255   9.202   2.387 -0.1327  0.0248 -0.3863
20881W        W41161   1.136  13.506  13.626  0.5965 -0.1241 -0.0308
20882W        W41162   2.353   1.060   3.970 -0.1279 -0.0522 -0.1177
20883W        W41163   9.375  16.591  11.973 -0.0002  0.0566  0.3342
20884W        W41164  16.106   1.958  11.350  0.0904 -0.1311  0.0442
20885W        W41165  16.306   5.740   0.438 -0.4466  0.0126 -0.5531
20886W        W41166  17.940   3.417  12.311 -0.1578 -0.1549 -0.1682
20887W        W41167  11.460  12.423  12.621 -0.1365  0.3842  0.1495
20888W        W41168   4.203  14.498   0.703 -0.0591 -0.0197  0.0590
20889W        W41169   3.543  11.262  10.946  0.4663 -0.1218 -0.3265
20890W        W41170   0.963  12.623  13.289 -0.1526 -0.1927  0.3583
20891W        W41171  12.042   0.357   1.261 -0.0416 -0.1603 -0.3808
20892W        W41172   7.693   1.624  11.361 -0.2116 -0.0391 -0.1422
20893W        W41173   7.536  16.879   0.529 -0.0523  0.1429 -0.1101
20894W        W41174   0.126  17.280   2.975 -0.3565 -0.0529 -0.0824
20895W        W41175  17.068   0.080   8.804 -0.1148 -0.2136 -0.4189
20896W        W41176  18.106  18.842   0.381 -0.0160 -0.0870  0.1443
20897W        W41177  14.320  12.954  12.712 -0.5068  0.0379  0.1915
20898W        W41178  16.501   3.136  10.533 -0.0731  0.0113  0.1710
20899W        W41179   6.148   8.383   2.832 -0.4187  0.2155  0.3290
20900W        W41180  17.814   8.154  10.715  0.1006 -0.1116  0.0228
20901W        W41181  12.079   7.850   0.676  0.0819 -0.0167  0.2745
20902W        W41182   7.628   8.666   0.901 -0.1595  0.1568  0.2907
20903W        W41183  16.051  17.585   1.050 -0.0583  0.0954 -0.1884
20904W        W41184   6.325   2.345   0.853 -0.2178 -0.2179  0.0451
20905W        W41185  18.515  13.668   0.508 -0.3959 -0.1434  0.0254
20906W        W41186  11.530   1.528   2.608 -0.0861  0.2361  0.0652
20907W        W41187  12.913   2.295   0.222  0.0829 -0.0389  0.2966
20908W        W41188  11.067  14.569   2.899  0.0116 -0.0593 -0.1596
20909W        W41189  16.450  15.155  13.776 -0.2062  0.0336 -0.0207
20910W        W41190   6.402  18.150  12.632  0.2708 -0.5006  0.3274
20911W        W41191  18.025   0.629   1.882 -0.1420  0.1884  0.1463
20912W        W41192   7.069   8.568   2.256 -0.0782 -0.4105  0.0593
20913W        W41193  13.158  12.086  10.526 -0.2186 -0.1778  0.0862
20914W        W41194   5.019  15.623  12.702  0.1580  0.0095 -0.1073
20915W        W41195  15.728   8.311   1.909  0.1133 -0.0999 -0.1648
20916W        W41196  18.072   5.771   2.561  0.0011 -0.1068  0.0152
20917W        W41197  18.225   7.635  11.536  0.1792 -0.1821 -0.0278
20918W        W41198  11.235   1.346  10.348 -0.3621 -0.1353 -0.0488
20919W        W41199   7.965   9.470   0.136 -0.1092 -0.2520 -0.1366
20920W        W41200  15.194   6.387   2.444  0.0186  0.2816  0.1459
20921W        W41201  15.579  11.648  12.784  0.2529 -0.1705 -0.0088
20922W        W41202   7.491  14.088   2.630  0.0956 -0.2468  0.1500
20923W        W41203  18.910  11.872  12.293 -0.3175  0.0689 -0.1754
20924W        W41204  12.771  18.921   8.780 -0.3666  0.0243 -0.2370
20925W        W41205   1.300   4.012  12.676 -0.1563 -0.0078 -0.0932
20926W        W41206  11.360   7.347  11.023  0.0227 -0.0440 -0.2019
20927W        W41207   7.318   7.982  13.597  0.1513 -0.0218 -0.3083
20928W        W41208  18.188  11.753   9.635 -0.2230 -0.1523 -0.2002
20929W        W41209   7.944  19.952   2.544 -0.0783  0.2325  0.0546
20930W        W41210   7.284  19.118  12.923  0.2103  0.1736  0.0840
20931W        W41211   5.119   8.867  13.443  0.1813 -0.0148  0.2639
20932W        W41212   0.838  11.831   0.893 -0.5427  0.2724  0.1602
20933W        W41213  11.339   1.188   0.363 -0.0811  0.1400 -0.0716
20934W        W41214   6.693   1.037   1.836  0.0460 -0.1269  0.3636
20935W        W41215  10.271  17.486  13.388  0.4034  0.0306  0.0090
20936W        W41216   7.485  11.665  12.110 -0.2137  0.0630 -0.1691
20937W        W41217   1.334   8.006   3.309  0.0670 -0.2415  0.1743
20938W        W41218  11.014   4.672   2.135 -0.3131  0.0237  0.1582
20939W        W41219   4.440   7.501  13.713 -0.0963  0.0571 -0.0525
20940W        W41220  14.922  10.365  12.419  0.0832  0.2192  0.1674
20941W        W41221  13.167  17.534  13.422 -0.3331 -0.1235 -0.0183
20942W        W41222  18.126   4.128  13.365 -0.3622 -0.3324  0.1333
20943W        W41223   3.147  17.571   2.685 -0.0828  0.1562  0.3002
20944W        W41224  16.625   0.897  13.635  0.1733  0.1978 -0.3599
20945W        W41225   4.992  16.134  13.570 -0.2935 -0.3433  0.0982
20946W        W41226  19.724  19.442   2.198  0.1253 -0.0170 -0.0655
20947W        W41227  18.714  19.132   3.616 -0.0977  0.2953 -0.0047
20948W        W41228  16.362  13.084   2.733 -0.1416  0.4983  0.0128
20949W        W41229   0.973  11.514  11.317 -0.2767  0.0419  0.0886
20950W        W41230  14.309   5.621  10.295 -0.0312  0.3103 -0.1372
20951W        W41231  17.128  15.176  12.719  0.2158 -0.1620  0.3662
20952W        W41232  14.350   4.680  11.695  0.1588 -0.0267 -0.1203
20953W        W41233   7.234  17.185  13.038 -0.1383 -0.0308 -0.0316
20954W        W41234   6.999  15.761  11.681  0.1499  0.1723 -0.0448
20955W        W41235   1.187   6.340   0.551 -0.0912  0.1100 -0.1239
20956W        W41236  15.219  18.475  10.312  0.0735  0.0653 -0.0402
20957W        W41237   7.519   0.584  10.638  0.1443  0.5587  0.1826
20958W        W41238   6.442   4.201  11.439 -0.0656 -0.1924 -0.2601
20959W        W41239   3.656  13.703   0.209  0.1508  0.2374 -0.0171
20960W        W41240   6.362   0.326   0.071 -0.0781  0.3521  0.2243
20961W        W41241  18.831  18.443  11.312 -0.1656  0.0790 -0.0956
20962W        W41242  19.347  15.972   9.110 -0.0113 -0.2302  0.0840
20963W        W41243  13.121  10.826  11.918 -0.1836  0.1958 -0.0251
20964W        W41244  19.577   5.673   3.564 -0.1352 -0.0096 -0.0265
20965W        W41245   4.687   2.403   2.248 -0.1755 -0.1619 -0.0798
20966W        W41246   3.512   9.954  10.575  0.1970 -0.4295 -0.1731
20967W        W41247  14.107   6.647  10.058  0.0880 -0.0380 -0.1892
20968W        W41248   2.343  12.555   3.005  0.2262  0.1821 -0.0467
20969W        W41249  15.363   6.678   0.540  0.1157  0.0773  0.1190
20970W        W41250  18.773   4.927   1.397  0.0940  0.1216 -0.1047
20971W        W41251   0.410   5.205  10.405  0.0091 -0.0047 -0.3066
20972W        W41252  16.098  17.363  13.184 -0.1953  0.1282 -0.0347
20973W        W41253  15.978  13.687  13.366 -0.0514  0.1141  0.1929
20974W        W41254   3.365  11.077  11.828 -0.2450  0.1393 -0.0503
20975W        W41255  13.058  12.752  11.089  0.1107 -0.0463 -0.1757
20976W        W41256  17.971  17.303   4.091 -0.2004  0.0083 -0.1066
20977W        W41257   0.804   8.876   1.615 -0.0568 -0.4177 -0.1382
20978W        W41258  16.500  18.812  10.724 -0.1769 -0.3922  0.2039
20979W        W41259   0.879   7.077   2.055 -0.1239  0.0186  0.1197
20980W        W41260  14.757   1.702  11.051 -0.2428 -0.1383 -0.1105
20981W        W41261  11.145  16.476  10.960 -0.2717 -0.3423  0.1112
20982W        W41262  13.820   1.921   2.898 -0.0249  0.0894 -0.0653
20983W        W41263  16.620   1.565  10.500 -0.3314 -0.0258 -0.2095
20984W        W41264  13.601  15.901   9.800 -0.1528 -0.0058 -0.0664
20985W        W41265   6.494  12.312   0.159 -0.1524 -0.2132  0.2143
20986W        W41266   4.739  18.841  12.200 -0.1084  0.0718 -0.4411
20987W        W41267   3.824  19.024   0.568  0.0479  0.1982 -0.0878
20988W        W41268   1.692  10.220  13.334 -0.0875 -0.0156  0.0290
20989W        W41269  10.109  10.246  13.459  0.1506 -0.0690 -0.0551
20990W        W41270   2.316  18.290   0.310  0.0440  0.3889  0.2840
20991W        W41271  13.367  15.106   3.805 -0.0061  0.2044 -0.0831
20992W        W41272   6.313  13.213   2.452 -0.1301 -0.0238  0.1568
20993W        W41273   2.120   5.128   0.672 -0.3951  0.0015 -0.0736
20994W        W41274  10.646  15.834  13.173 -0.4353 -0.0046 -0.2458
20995W        W41275  11.358   7.158  13.328  0.3158 -0.2130 -0.0985
20996W        W41276  11.286   9.315   1.150  0.4487 -0.2098 -0.0952
20997W        W41277   2.464  19.857  10.806  0.0008  0.0168  0.0545
20998W        W41278   1.588  15.385   3.864 -0.2029 -0.2684 -0.1679
20999W        W41279  19.034  13.030   0.531 -0.0044  0.2970 -0.3560
21000W        W41280   1.451  14.439   1.682  0.2062  0.0664  0.1545
21001W        W41281   8.260   3.782  11.884 -0.0622  0.1765  0.0611
21002W        W41282  10.657   7.168  11.913 -0.1616  0.1183  0.5060
21003W        W41283  19.887   7.627  12.597  0.1216 -0.0407  0.0105
21004W        W41284   4.527   3.557  13.194 -0.0102 -0.0932  0.0966
21005W        W41285  10.222   1.698   3.000 -0.0967 -0.5491 -0.1255
21006W        W41286   3.474   1.245   3.686  0.2831  0.1311  0.3519
21007W        W41287   5.130  17.117   3.484  0.0499 -0.1516 -0.0618
21008W        W41288  18.698   9.801  10.513  0.3876 -0.1940 -0.0016
21009W        W41289  10.963   7.131  10.553 -0.0072  0.2194  0.0747
21010W        W41290   2.012   2.644   0.629 -0.0924  0.2014 -0.1972
21011W        W41291   3.917  13.204   0.310  0.1929 -0.2750  0.2148
21012W        W41292  17.126   9.642   9.959  0.0609 -0.3215 -0.4265
21013W        W41293  15.018   2.009   9.058  0.1878 -0.3165  0.0580
21014W        W41294   4.765   7.040  10.528  0.0337  0.0496 -0.3173
21015W        W41295   7.238   7.247  12.430 -0.0643  0.0606 -0.3175
21016W        W41296  12.483  11.551  13.269 -0.0633 -0.1095  0.0489
21017W        W41297  19.284   3.605  12.025 -0.0118  0.0647  0.1478
21018W        W41298   8.036  18.047   0.930  0.2591 -0.0996 -0.0091
21019W        W41299   0.356   4.860   1.792  0.2617  0.1502  0.0436
21020W        W41300   4.273  16.267  11.568 -0.1816  0.2006 -0.2221
21021W        W41301  10.145  17.995  11.743  0.0456 -0.4533  0.1247
21022W        W41302   2.775  14.871   2.548  0.0676  0.0954 -0.2626
21023W        W41303   4.038   0.872  12.501 -0.1252 -0.2320  0.0322
21024W        W41304   6.964  13.488   1.614 -0.0534  0.0722 -0.3885
21025W        W41305  18.998  10.246   3.418  0.2231 -0.2482  0.0067
21026W        W41306  13.261   0.796   4.468 -0.4604 -0.2146 -0.0469
21027W        W41307  14.078   8.915   1.574 -0.2533  0.1062 -0.1093
21028W        W41308  17.368  12.984   3.588 -0.1329 -0.0158  0.2500
21029W        W41309  11.189   1.128   2.770  0.1675 -0.0687 -0.1875
21030W        W41310  11.791  16.034   2.953 -0.2016 -0.0462 -0.0267
21031W        W41311  12.856  16.272   4.850  0.3487 -0.2783 -0.4545
21032W        W41312   6.812   7.031   2.204  0.2078 -0.2408  0.0281
21033W        W41313   3.789   7.611  11.136 -0.2533  0.2484  0.0679
21034W        W41314  12.474   0.603   9.919 -0.2019  0.3122 -0.0681
21035W        W41315  10.472   2.714  13.014  0.2286  0.0694 -0.1881
21036W        W41316   8.307  19.622   1.578 -0.1218  0.0889  0.1581
21037W        W41317  18.711  17.904   3.956 -0.1676 -0.1652 -0.1316
21038W        W41318   7.408   0.762  11.115  0.4124  0.2023  0.2789
21039W        W41319  15.717  12.852  11.328 -0.0375 -0.0690 -0.0547
21040W        W41320  16.593  14.349  11.783  0.0248 -0.0582 -0.0629
21041W        W41321  19.563  14.595   1.786  0.1270 -0.4117 -0.0031
21042W        W41322   2.705   9.341   0.648 -0.1176 -0.1187 -0.0191
21043W        W41323   4.307   9.853   0.671 -0.1780  0.1854 -0.1385
21044W        W41324  11.336   2.636   3.976  0.0909  0.0293 -0.0952
21045W        W41325   5.967   4.997  12.792 -0.2653  0.0369 -0.0800
21046W        W41326  19.716  12.037  12.289  0.0277  0.2027  0.0366
21047W        W41327  19.841  11.632   9.572 -0.5322  0.1413  0.0401
21048W        W41328  19.144   1.090   9.601 -0.1119 -0.1912  0.2036
21049W        W41329   7.108   6.806   1.843  0.0526  0.0909  0.1735
21050W        W41330  16.796  18.650  11.099 -0.1768  0.1346  0.0891
21051W        W41331  18.611   9.242  10.631  0.1595  0.0135 -0.3268
21052W        W41332  10.159   5.933  10.013  0.2029  0.2882  0.1668
21053W        W41333  13.847  15.548  11.354 -0.2495  0.2433  0.0586
21054W        W41334   8.311   1.519   4.021 -0.0775 -0.3127  0.0210
21055W        W41335   1.230  14.691   2.682 -0.2608  0.1765 -0.2372
21056W        W41336   9.664   6.037   0.396 -0.1257 -0.1501  0.1918
21057W        W41337  13.631  12.241   2.994 -0.0405 -0.0185  0.1646
21058W        W41338  11.746   9.689  12.280 -0.1552  0.3660 -0.3043
21059W        W41339   0.843   0.109   3.071  0.3678 -0.0088 -0.1443
21060W        W41340  19.769   2.394  10.270 -0.1615  0.1699  0.1387
21061W        W41341  14.971  18.081  10.049 -0.1335 -0.1540 -0.3253
21062W        W41342  12.407   6.294   2.692  0.1698  0.1472  0.1897
21063W        W41343  10.222   6.361  12.343  0.1897  0.0892 -0.1086
21064W        W41344  13.563   6.264  10.401 -0.1612  0.1280 -0.2210
21065W        W41345   6.793   5.243  10.567 -0.1640  0.2026  0.0117
21066W        W41346   8.652  19.460   1.264 -0.0830  0.2124  0.0580
21067W        W41347  14.521  18.744   2.849  0.2330  0.0057 -0.0317
21068W        W41348  14.498  12.907   1.401 -0.0767 -0.0410  0.2201
21069W        W41349   6.837  18.970  11.549  0.0417  0.0140  0.0739
21070W        W41350  14.838  16.283   2.453 -0.1210 -0.1828 -0.0452
21071W        W41351   2.516   2.018  11.561  0.1212 -0.1972  0.0287
21072W        W41352  12.982  11.144   0.929 -0.1324  0.1801  0.2042
21073W        W41353   7.760  10.814  10.086 -0.2508 -0.0788  0.2165
21074W        W41354   9.997   2.859   1.448  0.0117 -0.2699 -0.3824
21075W        W41355   6.531  15.396  13.373  0.4160 -0.1833  0.0543
21076W        W41356  11.962  14.268   0.209 -0.4647  0.1446 -0.0456
21077W        W41357  18.174  14.167  11.735  0.1002 -0.3288 -0.3597
21078W        W41358  12.475  12.356   0.544 -0.0209 -0.1083 -0.0563
21079W        W41359   0.437  15.836  13.418 -0.0109 -0.1415 -0.0823
21080W        W41360   0.810  12.750   3.068  0.0106  0.1328  0.2202
21081W        W41361   0.767   3.868   1.937  0.1838 -0.1037  0.0389
21082W        W41362   0.009  19.350   0.655 -0.0302 -0.2811  0.0262
21083W        W41363  12.506  15.594  10.767 -0.1812 -0.0213  0.2449
21084W        W41364   3.429  14.324  10.257 -0.3563  0.2792 -0.0819
21085W        W41365  18.445  11.271  11.191 -0.0841  0.4717  0.0650
21086W        W41366  18.473   7.502   2.454  0.0628 -0.1973 -0.0956
21087W        W41367   0.062   3.594   1.298  0.1863 -0.1871 -0.0198
21088W        W41368  14.486   6.466   0.619 -0.1272  0.0821  0.1022
21089W        W41369  12.720  11.045   3.471 -0.0545  0.1710 -0.3340
21090W        W41370   7.644  17.833   2.704  0.0517 -0.1383 -0.2250
21091W        W41371  12.991  15.484   2.881  0.2302  0.1703 -0.1884
21092W        W41372  12.947   8.342  13.752 -0.1476 -0.0573 -0.3689
21093W        W41373  13.011  18.251   4.001 -0.2652 -0.0037 -0.0230
21094W        W41374  12.171   1.628   3.171  0.4001  0.2172  0.1597
21095W        W41375   6.299   3.085  11.797  0.2341  0.4064 -0.2320
21096W        W41376  19.141   2.104   9.463  0.1356 -0.3185 -0.0568
21097W        W41377  11.690   5.243  12.199  0.0246 -0.0418  0.2221
21098W        W41378   6.509  10.283   1.760 -0.1765  0.1252  0.1135
21099W        W41379   2.896   0.298  13.253 -0.2678 -0.3582  0.0356
21100W        W41380   6.622  16.549  11.957  0.1538 -0.1306  0.0117
21101W        W41381  19.608   4.345  12.184 -0.0996 -0.0797  0.0079
21102W        W41382   0.046   9.130  12.268  0.2657 -0.1618 -0.0476
21103W        W41383   4.689   1.916   2.540  0.0708  0.1871 -0.0088
21104W        W41384  17.960   5.173   0.264 -0.1020  0.3033 -0.1190
21105W        W41385   0.742  10.820  13.608  0.1007 -0.0197 -0.3785
21106W        W41386  10.295   0.263  13.180 -0.1918 -0.1078  0.2101
21107W        W41387   8.769   8.940  10.649 -0.2085 -0.0830  0.1422
21108W        W41388   4.911   1.119  13.338 -0.2266  0.2787 -0.1394
21109W        W41389   2.791   1.315  11.276 -0.0161  0.1275  0.0783
21110W        W41390  11.391   0.697  10.590 -0.0082 -0.0257 -0.3171
21111W        W41391  13.003   2.864   2.320 -0.3038  0.1392  0.0019
21112W        W41392   1.147   3.194   2.475 -0.0558  0.0583  0.1219
21113W        W41393   0.961   0.073  10.584  0.3604 -0.0079 -0.0929
21114W        W41394   9.494  17.450   2.641  0.1723  0.0429  0.0090
21115W        W41395  10.403   7.631  10.277 -0.3811  0.1537 -0.1999
21116W        W41396   9.384  16.594   2.793  0.1225 -0.2998  0.0356
21117W        W41397  18.869  13.376  11.913  0.0933 -0.0135 -0.0648
21118W        W41398   5.753  11.005   2.244  0.1452 -0.1740 -0.1064
21119W        W41399  15.741   2.680   0.456 -0.1319  0.1274 -0.0972
21120W        W41400   4.970  18.833  13.714 -0.0874  0.0857 -0.3602
21121W        W41401  11.267   6.421  12.077 -0.1391  0.2230  0.2061
21122W        W41402  12.150  13.075   3.478 -0.0951  0.0694  0.1444
21123W        W41403  16.013  12.142  10.535 -0.0320  0.1828 -0.0512
21124W        W41404   5.423  15.567   2.841  0.1510  0.1728 -0.0033
21125W        W41405  16.642  19.619  11.532  0.0316 -0.3386  0.0022
21126W        W41406   1.032   2.861  13.270  0.0425 -0.1817  0.1872
21127W        W41407  15.314  19.262  13.526 -0.3537  0.0068  0.1513
21128W        W41408   7.353   8.189   2.387 -0.0319  0.2901 -0.1180
21129W        W41409  19.562   0.967  12.230 -0.1211 -0.1140  0.2760
21130W        W41410  12.577  19.622  12.857  0.3987 -0.0414 -0.1192
21131W        W41411   1.673   7.569   1.492 -0.0773  0.1371 -0.1384
21132W        W41412  12.083  18.180  11.945  0.3027 -0.0287  0.4563
21133W        W41413   9.896  13.235  10.842 -0.0552 -0.1591 -0.1981
21134W        W41414   4.310  19.444   2.007 -0.0496 -0.0538 -0.1857
21135W        W41415   1.522   2.742  12.762 -0.0859 -0.1380  0.0704
21136W        W41416   9.040  19.454   0.924 -0.1684 -0.0175 -0.1985
21137W        W41417  19.665   7.924   2.607  0.1299 -0.2077  0.0199
21138W        W41418  17.594   1.550  11.398 -0.3303  0.0500 -0.2028
21139W        W41419   9.461  11.878  11.218  0.0227 -0.2150  0.1835
21140W        W41420  12.138   0.131  10.630  0.1528 -0.1747 -0.0097
21141W        W41421  15.692   7.963  13.391 -0.2075 -0.2497  0.1538
21142W        W41422  11.952   4.011   1.820 -0.1996  0.0154  0.0492
21143W        W41423  15.083  18.250  11.263  0.3144 -0.0883  0.0278
21144W        W41424   3.923   2.664  12.791  0.0664  0.1134 -0.3015
21145W        W41425  18.361   8.487  12.326  0.3387  0.0003  0.0415
21146W        W41426   6.448  17.215   3.408  0.1292  0.0126  0.1852
21147W        W41427   5.833   4.256  12.464  0.1480 -0.3174 -0.2600
21148W        W41428   1.300  11.869   1.042  0.0865 -0.0665  0.3400
21149W        W41429   1.602  10.156   2.212  0.1356 -0.1897 -0.0312
21150W        W41430  13.872  17.090  13.328 -0.0633  0.0530 -0.0190
21151W        W41431  14.940   3.103   0.646  0.1384 -0.1680 -0.0104
21152W        W41432  12.033  13.633  12.006 -0.1382  0.0612  0.3162
21153W        W41433   7.419  15.331  12.523 -0.2005  0.0394  0.0324
21154W        W41434   3.202   6.104   1.483 -0.0467 -0.3685 -0.0110
21155W        W41435   6.436  12.050  13.031  0.0827 -0.0684 -0.0251
21156W        W41436   4.286   0.524  12.729 -0.0432  0.0696  0.4318
21157W        W41437  10.644  18.461  10.667  0.1322  0.0943 -0.1236
21158W        W41438  18.987  12.009   0.769  0.0830  0.0659 -0.0595
21159W        W41439   6.033   9.452   0.951  0.0567 -0.0321  0.1081
21160W        W41440  19.516  19.530  10.792  0.0171  0.2391 -0.1780
21161W        W41441  17.182   3.740   2.989 -0.1824  0.1577  0.0142
21162W        W41442  17.564  11.985  12.205 -0.1759  0.0101  0.0701
21163W        W41443  15.398  15.571   3.635 -0.0986 -0.0736  0.2999
21164W        W41444   8.728   4.547  13.343 -0.2127 -0.2035 -0.0037
21165W        W41445  12.195  10.514  10.646 -0.0168  0.1126 -0.0551
21166W        W41446   8.761  18.053   3.440  0.0439 -0.0686 -0.0168
21167W        W41447  15.805   8.788   3.407  0.1728  0.0068  0.0429
21168W        W41448  15.914  10.739   1.152  0.4202 -0.1018 -0.0071
21169W        W41449  18.820   0.388   1.358 -0.0761 -0.3329  0.1772
21170W        W41450  12.468  15.963   3.431  0.0418  0.2170  0.1704
21171W        W41451   2.974  11.182   1.135 -0.2706  0.0316  0.3532
21172W        W41452   4.225   2.455   0.783  0.3673  0.1562 -0.0930
21173W        W41453  13.275  18.290   3.570  0.2935  0.0394 -0.0817
21174W        W41454  14.414  15.940   3.525  0.0777  0.0252 -0.0327
21175W        W41455   8.919   1.602   2.553  0.1203 -0.1485  0.1781
21176W        W41456  15.113   2.676   0.945  0.1181 -0.1210 -0.2191
21177W        W41457  16.158   5.634   0.979 -0.1148 -0.1180  0.0333
21178W        W41458  10.732   6.873  13.577  0.1397 -0.0886 -0.0166
21179W        W41459  16.862   0.181   2.584 -0.0782  0.0594 -0.0222
21180W        W41460   0.835  16.018   2.475  0.2382 -0.1217 -0.4316
21181W        W41461  12.423   3.483  12.299 -0.1209  0.3359 -0.0882
21182W        W41462   1.024   6.043   9.007  0.0508 -0.2980 -0.2302
21183W        W41463   5.891   3.525  12.907  0.1568  0.2342  0.0323
21184W        W41464  12.985  13.137  11.495 -0.0017  0.1294 -0.0397
21185W        W41465   5.365  17.358   1.214 -0.0554 -0.1394 -0.0837
21186W        W41466  13.401  11.330  12.262  0.1942 -0.3181 -0.0531
21187W        W41467  14.403  13.509  13.175  0.2863 -0.2184  0.1674
21188W        W41468  11.698  16.815   0.620  0.2329 -0.0465  0.0830
21189W        W41469   4.150   9.919   2.817 -0.5297 -0.0743  0.1240
21190W        W41470  19.702  10.974  10.852 -0.1342 -0.0649 -0.1051
21191W        W41471   7.937   8.894   1.392  0.2386 -0.2023  0.2307
21192W        W41472  16.028  17.061  12.386  0.0134  0.3636  0.2453
21193W        W41473   4.232  15.317  13.194 -0.1159  0.0203 -0.1067
21194W        W41474  11.146  19.644  11.997  0.0365  0.0731 -0.2899
21195W        W41475   5.918  18.192   2.999  0.2526  0.0919  0.1186
21196W        W41476  16.128  18.491  10.331  0.0961 -0.2692 -0.3486
21197W        W41477  11.516  16.426  11.340 -0.0330  0.1489  0.0806
21198W        W41478   7.977  17.700   2.287  0.0125 -0.2113  0.3252
21199W        W41479  16.888  13.257   1.880 -0.1733  0.0918  0.3637
21200W        W41480  19.765   8.696  11.483 -0.1299  0.2154 -0.3441
21201W        W41481  15.160   3.151   2.168 -0.0023 -0.0278 -0.1705
21202W        W41482  17.422   3.596  12.094  0.1288 -0.2469  0.1726
21203W        W41483   5.704   4.799  11.693  0.3072  0.0543  0.0695
21204W        W41484  16.532   3.657   4.622  0.0637 -0.0648  0.3916
21205W        W41485   2.542  18.280  11.769 -0.1488 -0.2661 -0.4054
21206W        W41486   8.155  11.021   2.140 -0.2283 -0.2735 -0.1042
21207W        W41487  17.824  16.057   3.008  0.2025 -0.1109  0.2149
21208W        W41488  11.568   3.670   3.154 -0.2581 -0.0334 -0.1654
21209W        W41489  14.587   2.284   2.506  0.3176 -0.2794  0.1182
21210W        W41490   9.852   1.863  11.550  0.0594  0.1167  0.2584
21211W        W41491  13.143  19.137   3.483  0.0750 -0.0254  0.1887
21212W        W41492  11.866   4.611   0.926 -0.0268  0.0958  0.0755
21213W        W41493  19.531   7.628  12.274 -0.0072 -0.0459  0.0534
21214W        W41494  16.132   7.076  11.881 -0.1786  0.4557  0.0406
21215W        W41495  13.831  17.316   0.714 -0.2358 -0.0707 -0.1916
21216W        W41496  13.681  13.682  10.170  0.0175 -0.1824 -0.0270
21217W        W41497  13.759   5.518   3.118 -0.2800 -0.1972 -0.2019
21218W        W41498   9.358   0.903   4.051  0.0117  0.0626  0.1226
21219W        W41499  12.912   6.784   0.973 -0.0959  0.3846  0.1125
21220W        W41500  12.236  12.419   1.314 -0.0888  0.1527 -0.1628
21221W        W41501   8.870   8.630  12.726 -0.1730 -0.3282 -0.0331
21222W        W41502   6.728  12.960   2.364 -0.1546  0.0330  0.6051
21223W        W41503  11.783  19.764   0.743  0.0355  0.1757 -0.0598
21224W        W41504   5.594  18.856   2.192  0.0593 -0.3163 -0.0878
21225W        W41505  17.431   5.588  12.404  0.0188 -0.1024  0.2598
21226W        W41506  15.139   2.626  13.033  0.2556 -0.2591 -0.0429
21227W        W41507  16.566   0.817  11.648 -0.1247  0.2284  0.3466
21228W        W41508   2.254   7.385   0.323 -0.2238 -0.1383  0.0798
21229W        W41509  17.924   9.683   9.847  0.2294  0.1272 -0.2418
21230W        W41510   1.421  16.514  13.857 -0.0550 -0.0762  0.1864
21231W        W41511   0.802  18.490  13.404  0.0883 -0.2589 -0.4122
21232W        W41512   9.800  14.982   2.394 -0.3157  0.2839 -0.3059
21233W        W41513   1.664   3.465   1.076 -0.1379 -0.0634 -0.0698
21234W        W41514  18.231  11.920  11.536  0.0339 -0.0151  0.0838
21235W        W41515   5.991   4.238   3.754 -0.1589 -0.1143 -0.0603
21236W        W41516  14.936   2.842   2.908 -0.2163 -0.1510  0.0468
21237W        W41517   8.208  15.488  10.890 -0.1208  0.2851 -0.1467
21238W        W41518  17.194   0.565  11.900  0.2913 -0.0729  0.4322
21239W        W41519   8.490  16.584   3.021 -0.1445  0.0616 -0.1428
21240W        W41520   8.719   7.160   1.235 -0.1004 -0.1502 -0.4976
21241W        W41521   8.428  16.177  11.668 -0.0688 -0.2008  0.2445
21242W        W41522   6.806   1.800   3.582  0.2499 -0.0508  0.0565
21243W        W41523  18.832  11.878  10.360 -0.1084  0.2942  0.1440
21244W        W41524  12.148  17.364  11.721 -0.1260 -0.2419  0.0450
21245W        W41525   9.268  10.259  13.041 -0.0557  0.2682 -0.1583
21246W        W41526   8.443  18.092  11.350  0.3660 -0.0674 -0.2330
21247W        W41527  12.162   8.790   0.243 -0.3599 -0.1617  0.5830
21248W        W41528  13.839   2.103  12.987  0.1247  0.0792  0.2063
21249W        W41529   4.878  10.467  10.281  0.0719 -0.1535 -0.3183
21250W        W41530   1.370  19.373   3.876  0.0234  0.0054 -0.0346
21251W        W41531   7.031   3.085   0.474 -0.1633 -0.1205 -0.1687
21252W        W41532  17.407   4.824   2.458  0.1786 -0.1430  0.0558
21253W        W41533   1.280  10.190  10.906  0.0963  0.1021  0.3195
21254W        W41534  11.483  10.020   4.016 -0.3464  0.0736 -0.3595
21255W        W41535   7.383   9.642  11.986 -0.0098 -0.1187 -0.0730
21256W        W41536   1.410  13.864  11.239  0.0234  0.5842  0.0027
21257W        W41537   0.937   6.236   1.000  0.3862  0.0932 -0.2285
21258W        W41538   6.789  14.864  10.445 -0.0957  0.4145 -0.0868
21259W        W41539  10.841  13.072   3.282 -0.1764 -0.0273 -0.3118
21260W        W41540  15.581  12.884   0.719 -0.0291  0.1044 -0.5476
21261W        W41541   6.265  11.255  10.692  0.0650 -0.0211  0.0219
21262W        W41542   0.194  14.747   0.109  0.1317  0.0206  0.0577
21263W        W41543  10.238  14.014  12.715 -0.2302 -0.0739  0.1921
21264W        W41544   5.333   0.923  10.020 -0.0302  0.2268  0.1544
21265W        W41545  13.083   7.239   2.634 -0.0452  0.0617  0.1992
21266W        W41546   3.824   1.094   2.855 -0.0848 -0.2296  0.0665
21267W        W41547  16.687   2.280   1.494  0.2262 -0.0686  0.1234
21268W        W41548  16.572  17.808   1.721 -0.1427  0.4133 -0.1518
21269W        W41549   9.510  13.156   0.357 -0.0522 -0.3161  0.2152
21270W        W41550  15.597  19.855   1.471  0.0401  0.0288 -0.1869
21271W        W41551   6.932  13.933   1.338 -0.1277  0.0522 -0.3774
21272W        W41552  19.299   5.212  11.658  0.2507  0.1001  0.1551
21273W        W41553  12.876   9.066  10.610  0.2756  0.2285  0.1183
21274W        W41554   0.993   7.287  13.285 -0.1423 -0.0502 -0.0056
21275W        W41555   2.447   8.645  10.540 -0.2355  0.1930 -0.4585
21276W        W41556  16.376  11.171  11.966  0.3091  0.0765 -0.0268
21277W        W41557   3.906   9.575  10.801 -0.0940  0.0924  0.0972
21278W        W41558  10.372  11.287   2.145  0.0335 -0.2315 -0.1162
21279W        W41559   2.652   3.317   2.534  0.1547  0.0853 -0.0403
21280W        W41560  10.613   9.964   2.321  0.0743 -0.0041 -0.2809
21281W        W41561   9.738  16.308  12.132  0.0400  0.1120  0.0412
21282W        W41562   9.642   5.589  12.892  0.1112  0.1006  0.1253
21283W        W41563   0.599  12.915  13.185  0.1621  0.1667  0.1640
21284W        W41564   3.832   3.673   4.120  0.0400 -0.1135 -0.1141
21285W        W41565  16.092  18.670   1.992  0.0870  0.0869  0.0141
21286W        W41566  18.649  12.013   1.989  0.0722  0.2653  0.2374
21287W        W41567  12.368   4.214   3.598  0.0585 -0.2343 -0.0229
21288W        W41568  17.817  12.780   1.441  0.0405  0.0494  0.1618
21289W        W41569   5.093  19.024  12.591 -0.0389  0.2243  0.0788
21290W        W41570   0.527   2.382   1.922  0.0686 -0.0333 -0.1990
21291W        W41571   7.028   1.671   2.866  0.2190  0.4918 -0.0543
21292W        W41572  16.862   4.076   1.251  0.2149  0.2201  0.3189
21293W        W41573   3.679   6.054   3.406 -0.2621  0.1485 -0.3283
21294W        W41574   4.740  16.922  11.018  0.1354 -0.1399 -0.0866
21295W        W41575  13.027  11.131   0.438 -0.0338 -0.0287  0.1986
21296W        W41576   6.939   4.064  11.506  0.2938  0.0173  0.4687
21297W        W41577   9.871   3.572   2.862 -0.0048  0.0897  0.1448
21298W        W41578   0.881  11.409   2.915 -0.1502  0.1905  0.0353
21299W        W41579   4.161  12.133  11.229 -0.0147  0.2074 -0.0953
21300W        W41580   7.398   7.539   1.861 -0.1374 -0.3509 -0.3285
21301W        W41581   2.586   6.185   0.837 -0.2212  0.0230 -0.0919
21302W        W41582   4.752  12.276  12.807  0.1735  0.2412  0.0233
21303W        W41583   5.667   6.735  10.107  0.0698 -0.2710  0.1033
21304W        W41584   8.243   9.140   1.744  0.0780 -0.2110 -0.1950
21305W        W41585  19.254   3.682   1.978  0.3764 -0.1985 -0.0015
21306W        W41586  12.824  16.068  10.160 -0.0608  0.0157 -0.2667
21307W        W41587  10.556  17.808  10.980  0.1919  0.0834 -0.0732
21308W        W41588  18.198  15.546  10.459 -0.0467 -0.1298 -0.0065
21309W        W41589  19.151   4.469  12.567  0.0686 -0.0542 -0.4972
21310W        W41590   5.136   3.090   2.822  0.0914  0.0123 -0.3156
21311W        W41591   9.747   8.712  12.399  0.1556  0.0582 -0.0599
21312W        W41592   8.746   1.992   2.099 -0.0303 -0.0201  0.1824
21313W        W41593   6.538   6.131   3.932  0.1054  0.2496 -0.1294
21314W        W41594   3.205  16.586   0.548  0.0899 -0.2669 -0.0158
21315W        W41595   3.777  13.925  12.331 -0.3682 -0.2740 -0.0036
21316W        W41596  14.709   0.008  10.427 -0.0358  0.0288  0.1782
21317W        W41597   0.246  14.438  11.944  0.1305  0.1610 -0.0849
21318W        W41598  13.471   6.826   1.741 -0.0718 -0.0771  0.4333
21319W        W41599  17.987  11.042  13.848 -0.1155  0.0723 -0.3084
21320W        W41600   9.829  17.383   2.317 -0.1545 -0.2036  0.1073
21321W        W41601   2.115   8.525   0.837 -0.0657  0.1271  0.2602
21322W        W41602  13.241  17.811   3.457  0.0560  0.1710 -0.0232
21323W        W41603   0.183  15.152  11.358  0.2353 -0.1344  0.3020
21324W        W41604   8.482  18.438   2.756  0.0751  0.2141 -0.0267
21325W        W41605  19.164  19.458   1.040 -0.0460 -0.0008  0.0085
21326W        W41606   3.099  16.214   2.483  0.2565  0.0405  0.0488
21327W        W41607  12.460  12.246   4.871  0.4250  0.0536 -0.0604
21328W        W41608  15.823   9.820   3.182 -0.2764  0.0910 -0.0928
21329W        W41609  15.957   9.952  13.563 -0.0193  0.0039  0.0984
21330W        W41610   7.844   9.982   0.644  0.2706  0.0852 -0.1210
21331W        W41611   9.552   4.052  13.525 -0.1842 -0.0005 -0.1492
21332W        W41612   2.117   9.569   1.698  0.0080 -0.0079  0.0394
21333W        W41613   6.681   8.405  11.157 -0.1591 -0.0906  0.2193
21334W        W41614  16.697   8.087   3.858  0.1601 -0.1416  0.0427
21335W        W41615  13.971  11.900  11.509 -0.2793  0.3474 -0.0492
21336W        W41616  13.632   2.459  13.346 -0.0969 -0.2943  0.2991
21337W        W41617  10.167  17.602  11.412 -0.0608  0.2560  0.1952
21338W        W41618  14.517  16.967  11.407 -0.0184 -0.2417 -0.2213
21339W        W41619   0.358   4.882   3.433  0.2506 -0.1811 -0.0640
21340W        W41620  18.251  13.865   0.057 -0.1298 -0.0409 -0.0728
21341W        W41621  14.774   1.046   3.105 -0.3143 -0.1572 -0.0551
21342W        W41622  10.003   7.457   4.000  0.1338 -0.3965  0.0349
21343W        W41623   2.421  18.582  13.486  0.2913  0.2592  0.1470
21344W        W41624  13.338  10.419  13.010 -0.1394 -0.0707 -0.0247
21345W        W41625  14.309  17.895   1.903 -0.0659 -0.0789 -0.0565
21346W        W41626  12.250  11.284  13.676 -0.1216  0.1558  0.1060
21347W        W41627  10.170   6.458   2.022 -0.0654  0.0898 -0.0222
21348W        W41628  14.848   7.876  10.299 -0.4924  0.1244  0.2230
21349W        W41629  10.984  11.749   1.528 -0.0999  0.0431 -0.1530
21350W        W41630   8.384   9.235   2.680 -0.0230 -0.2102  0.0486
21351W        W41631  10.394   8.221   3.396 -0.0492 -0.1091  0.1159
21352W        W41632   8.922   2.421  10.407  0.2834  0.1631  0.0158
21353W        W41633   5.311  16.620   2.749  0.0750 -0.3287 -0.0389
21354W        W41634   6.840  12.943   3.475  0.1519 -0.0769  0.1177
21355W        W41635   5.583  11.539  13.412  0.0369  0.0546  0.1296
21356W        W41636   1.843   2.540   1.832 -0.0920 -0.0791 -0.0406
21357W        W41637   9.676   5.750  11.078 -0.0270 -0.3788  0.0749
21358W        W41638   8.467   7.261   3.513  0.1638 -0.1792  0.3674
21359W        W41639  13.956   8.760  10.136  0.4557  0.0433 -0.2856
21360W        W41640   1.211   1.449  13.861 -0.0394 -0.0743 -0.0742
21361W        W41641   5.740   8.693   2.778 -0.3915 -0.1780  0.0201
21362W        W41642   2.704  16.735  13.668 -0.0735  0.1354  0.1303
21363W        W41643  13.202  13.754  13.801  0.1491  0.2220 -0.0843
21364W        W41644  13.410   4.561  13.578  0.0638 -0.2733 -0.0916
21365W        W41645   3.413   2.750   2.106  0.2911  0.2460 -0.2600
21366W        W41646  11.422   8.435   0.740  0.0757 -0.0956 -0.2077
21367W        W41647   1.938  13.390   3.000 -0.2169 -0.1270 -0.0161
21368W        W41648   7.275   8.856   4.950 -0.3818  0.4547 -0.0370
21369W        W41649   5.328   5.181  10.594  0.0327  0.0231  0.0877
21370W        W41650   8.073  18.601  13.787 -0.0902  0.1557  0.2202
21371W        W41651   8.496  10.561  12.826  0.2552 -0.0316 -0.5152
21372W        W41652   5.133  19.035  11.046  0.0331  0.2337 -0.0670
21373W        W41653  16.642   6.106  12.847  0.1599 -0.0339  0.0765
21374W        W41654   9.089  18.938  10.570  0.2210  0.0135  0.0058
21375W        W41655  16.232   8.682   9.964  0.0001 -0.0084  0.1848
21376W        W41656  10.434   9.753   0.580  0.1434 -0.0529 -0.0959
21377W        W41657  14.352  14.253  10.630 -0.0130  0.2553 -0.1163
21378W        W41658  19.796   5.558  10.155  0.0010 -0.0621 -0.1629
21379W        W41659  11.091   4.338  11.821  0.2589  0.1064  0.0325
21380W        W41660   7.319  12.716   3.284 -0.1035 -0.0326  0.0200
21381W        W41661   9.417  10.465  11.135 -0.2188  0.2509  0.2949
21382W        W41662   3.899   4.282   2.747  0.0858  0.0238  0.2691
21383W        W41663  13.921   4.300  12.304  0.1427  0.0583 -0.0564
21384W        W41664   2.202  17.741  12.941 -0.5079 -0.3969  0.0940
21385W        W41665  12.507   8.061  10.785  0.0032  0.1865  0.0805
21386W        W41666  13.043  12.720   3.741  0.0097  0.0668 -0.1886
21387W        W41667  12.263  10.922   3.276  0.0387  0.0459 -0.2639
21388W        W41668  12.165  13.458  13.617 -0.0081  0.1194  0.0330
21389W        W41669  19.685  13.474  11.844  0.0421  0.1747 -0.0568
21390W        W41670   0.412   7.884  11.741 -0.2180 -0.4112  0.0974
21391W        W41671  18.774   7.039   2.395  0.1039 -0.1356  0.0928
21392W        W41672   2.725  13.613  12.813  0.2745 -0.1533  0.2318
21393W        W41673  19.217  19.192   0.154 -0.0181  0.0200 -0.1325
21394W        W41674  17.516  18.574  10.036 -0.1677 -0.0626  0.0927
21395W        W41675  17.515  15.770  11.166 -0.2102 -0.2237  0.1554
21396W        W41676   4.613  11.688   1.645 -0.1791 -0.0810  0.0213
21397W        W41677   5.176   8.288  13.031  0.0724  0.2116 -0.2177
21398W        W41678  12.710   4.176   0.579  0.2417 -0.2187 -0.3319
21399W        W41679  15.130   0.274   0.779  0.1811  0.2227  0.0993
21400W        W41680  12.922  16.008   3.866  0.1799 -0.2660  0.1326
21401W        W41681  12.554  15.472   4.141 -0.0435  0.1763  0.1185
21402W        W41682   5.974  10.578  11.919 -0.0789 -0.1124 -0.0313
21403W        W41683   6.643  12.011   9.409 -0.2713  0.0420 -0.1125
21404W        W41684  12.748   6.433  13.160 -0.1008 -0.1862  0.1008
21405W        W41685  16.793  13.762   3.616 -0.3794  0.4422  0.1629
21406W        W41686  15.440   1.835  11.657 -0.1996 -0.2828  0.1548
21407W        W41687  17.193  19.692  11.655 -0.0613 -0.1784  0.0188
21408W        W41688  11.148  18.797   0.742  0.0548 -0.2983 -0.0250
21409W        W41689   6.407   5.501   1.445  0.0414 -0.0155  0.1715
21410W        W41690  13.478  11.730  11.353 -0.1739 -0.0388 -0.0695
21411W        W41691   6.278   2.324   9.301 -0.0019  0.0539  0.0909
21412W        W41692  19.727  11.917   1.073  0.0904  0.4075  0.1654
21413W        W41693   4.162  11.776   1.341  0.1519  0.2152 -0.1026
21414W        W41694   5.159  15.662   1.939  0.2403 -0.2370 -0.0625
21415W        W41695   2.644   9.286  12.134 -0.0157 -0.2113  0.1973
21416W        W41696  16.550   3.293  13.760  0.0398  0.3083  0.3450
21417W        W41697   5.849  10.751  13.358 -0.0949  0.1358  0.0920
21418W        W41698   1.963  19.171  11.744  0.0205  0.2886  0.2631
21419W        W41699   8.620  16.179  13.419 -0.0085  0.1016  0.0984
21420W        W41700  13.810  12.748   0.996  0.1532 -0.0426  0.0451
21421W        W41701  19.398   9.057   1.886 -0.0649 -0.4303 -0.2349
21422W        W41702  16.840   5.540   1.542 -0.0059  0.3776 -0.0723
21423W        W41703  14.808  17.121   1.398  0.2609 -0.1728 -0.2090
21424W        W41704  18.334  19.152  12.443  0.1836 -0.1445  0.1967
21425W        W41705   5.640  16.228  11.782 -0.1738 -0.1016  0.3235
21426W        W41706  18.981  18.286  12.702  0.0303 -0.1215 -0.0816
21427W        W41707  14.181   0.820  10.095  0.0125  0.2289  0.0906
21428W        W41708   1.343  13.901  13.448 -0.0137 -0.3299  0.2842
21429W        W41709   8.637   9.727   3.334  0.1668  0.1570 -0.0493
21430W        W41710  18.222   7.394  12.592 -0.1007  0.0393 -0.1230
21431W        W41711   3.908   9.697  11.446  0.3028 -0.1982 -0.0803
21432W        W41712   2.557  12.996   2.473  0.1130 -0.0779  0.2567
21433W        W41713  14.178   9.715  12.335 -0.1365  0.1241 -0.0806
21434W        W41714  12.237   5.405   0.812 -0.0508  0.1939  0.3797
21435W        W41715  16.691  14.793  13.584 -0.2674  0.1021 -0.0509
21436W        W41716  12.048   7.336  10.073  0.1677  0.0047  0.2423
21437W        W41717   3.740   6.674   0.297 -0.2728 -0.1161 -0.1746
21438W        W41718   3.508   9.697   9.652  0.1481  0.0014  0.0812
21439W        W41719   4.929  11.995  10.526 -0.0485  0.0216  0.2386
21440W        W41720  15.300   1.734  12.340 -0.0416 -0.2026  0.0568
21441W        W41721  13.529   5.636  13.624  0.0395  0.0049  0.2171
21442W        W41722  11.159  14.679   9.691  0.1073  0.0768  0.3268
21443W        W41723  16.810  11.368   2.665  0.0954 -0.0539 -0.0401
21444W        W41724   5.214   6.359   3.695 -0.0218 -0.0448  0.1541
21445W        W41725  19.710   4.702   1.838  0.2047 -0.0892 -0.0175
21446W        W41726  10.913  11.394   0.599 -0.0544 -0.4468  0.1999
21447W        W41727  13.850  19.713  11.773  0.0599 -0.2898  0.0758
21448W        W41728   7.097   0.551  11.796  0.0341 -0.2568  0.0593
21449W        W41729   0.520   7.798   0.862 -0.0911  0.4809 -0.1050
21450W        W41730   8.159   1.083  13.070  0.3081 -0.1494  0.0854
21451W        W41731  16.966  18.664  10.485 -0.0253  0.3025  0.1809
21452W        W41732  13.333  19.549  12.749  0.1470 -0.2008  0.1437
21453W        W41733  17.511  11.331  11.668 -0.3961  0.2277 -0.4186
21454W        W41734  19.574  15.589   2.704 -0.1819 -0.1579 -0.0514
21455W        W41735  18.406   0.323   0.993  0.1357 -0.1324  0.0072
21456W        W41736   5.553   5.313  11.470  0.1936  0.0486  0.0590
21457W        W41737   2.197   2.525   0.194  0.1175 -0.0770  0.1416
21458W        W41738   9.072   5.353  12.052  0.4887  0.2801  0.0961
21459W        W41739   6.681   7.369  13.706  0.1869 -0.0035 -0.0470
21460W        W41740   3.230  19.233   2.584 -0.1536 -0.0149 -0.0640
21461W        W41741  17.731   1.244  13.141  0.0805 -0.4190  0.2145
21462W        W41742   5.979  14.812   1.457  0.1044  0.0210  0.1728
21463W        W41743   0.010  18.123   0.027 -0.1357  0.1021 -0.2179
21464W        W41744  19.044   6.606   0.605 -0.1988  0.0150  0.0649
21465W        W41745  10.662  12.821  12.759  0.2672 -0.2250 -0.1980
21466W        W41746  19.605  19.221  11.436 -0.2068  0.0726  0.0763
21467W        W41747  12.019   1.816   1.196  0.0195 -0.0611  0.0468
21468W        W41748   0.142  18.257   2.749 -0.1431 -0.1672  0.1332
21469W        W41749  14.142   8.893   0.180  0.2417  0.1395  0.0685
21470W        W41750  12.935  12.144  11.764 -0.0196  0.0120  0.1069
21471W        W41751  11.282  11.657  11.633  0.0046  0.0539  0.0841
21472W        W41752  12.313   9.789   9.775 -0.1872  0.3498  0.1721
21473W        W41753  11.871  17.571   2.828  0.2696  0.2303 -0.0056
21474W        W41754   4.122  19.510  12.357  0.2229 -0.3207 -0.0537
21475W        W41755   8.196  15.227   2.878  0.0572  0.3476 -0.0902
21476W        W41756  12.353  19.340   1.364  0.1466 -0.0874 -0.0442
21477W        W41757   4.281  19.876   0.322  0.0448  0.1320  0.3056
21478W        W41758   7.824   1.440   1.298  0.2138 -0.2686  0.0646
21479W        W41759   5.019  12.770   0.475 -0.0520 -0.2818 -0.1149
21480W        W41760   6.939  15.976  11.145 -0.0657  0.0366 -0.4118
21481W        W41761  19.229  15.900  12.614 -0.3794  0.1913  0.2283
21482W        W41762   0.615  16.945   3.045  0.0917  0.4057  0.0357
21483W        W41763   0.822   7.171  12.779 -0.0000  0.0602 -0.1039
21484W        W41764   5.083   8.447   0.230 -0.0691 -0.2613  0.0669
21485W        W41765  15.914   1.687  11.702  0.0865 -0.0051  0.0718
21486W        W41766   6.505  11.004   3.177 -0.3054 -0.1077  0.3631
21487W        W41767   6.354   9.684   0.633 -0.2314 -0.3533  0.1939
21488W        W41768   7.936  15.527  11.762 -0.1561  0.1637 -0.1134
21489W        W41769   5.384   8.492  12.496  0.1918 -0.1994 -0.5072
21490W        W41770   6.251   4.541   1.391 -0.2101  0.1609 -0.0185
21491W        W41771  17.343   4.363  10.324  0.1497 -0.3366  0.0290
21492W        W41772   6.153  14.318  11.434 -0.1686  0.0751  0.2549
21493W        W41773  12.834  13.320   0.269  0.0795 -0.1794  0.0442
21494W        W41774  14.620   0.574   9.690 -0.1913  0.0264 -0.2955
21495W        W41775   6.195  13.985  10.714  0.3342  0.3792 -0.2377
21496W        W41776   6.857  11.886   3.206  0.0663  0.1826 -0.0093
21497W        W41777   4.716   0.589  10.896 -0.1153 -0.0926 -0.0971
21498W        W41778  15.811   5.574  13.066  0.1094  0.2699 -0.1741
21499W        W41779  13.378   8.216  12.810 -0.1668 -0.1501  0.0151
21500W        W41780   7.332  13.858  10.611  0.1342  0.0263  0.1611
21501W        W41781   9.364   6.947   3.005 -0.0185 -0.2794  0.3644
21502W        W41782   4.889  15.621   2.807  0.2159  0.0308  0.0643
21503W        W41783  13.108   6.702  12.971 -0.1490 -0.1566 -0.0587
21504W        W41784   4.630  17.261   3.492  0.0596 -0.2705  0.0914
21505W        W41785   5.541   7.552  11.801  0.2347  0.1034 -0.2125
21506W        W41786   6.234   9.637   3.880  0.1160 -0.0459 -0.0690
21507W        W41787   5.358  14.651  10.975 -0.0262  0.1917 -0.2180
21508W        W41788  14.254   7.273   3.720 -0.2572 -0.0053  0.2963
21509W        W41789   5.067   2.279  11.919 -0.2772 -0.1657  0.0838
21510W        W41790   1.104   6.142  10.386 -0.1885  0.0997  0.2147
21511W        W41791   6.081   5.352  13.150 -0.1398 -0.0547 -0.3824
21512W        W41792   6.679   9.557   3.528 -0.0138 -0.2905  0.1055
21513W        W41793   3.113   4.986  12.373 -0.2067 -0.2270  0.0083
21514W        W41794  17.038   3.096   1.411 -0.0025  0.0785  0.0598
21515W        W41795   4.860   4.838  11.563  0.3077  0.3150  0.2461
21516W        W41796  13.973   9.253   3.195 -0.2159 -0.2056 -0.0787
21517W        W41797   7.245  18.533   1.284  0.0907 -0.3131 -0.1782
21518W        W41798  17.845   1.620  10.926  0.0525  0.0554  0.1475
21519W        W41799  13.327   2.002  12.144  0.3126 -0.2199  0.1207
21520W        W41800   9.312  15.315  12.800 -0.1245 -0.0612  0.0188
21521W        W41801  19.036  15.487  10.117 -0.1239 -0.2337 -0.0667
21522W        W41802   2.035  16.846  10.334  0.0680  0.1651 -0.1134
21523W        W41803  17.257   3.358   1.061  0.2912 -0.2971  0.2510
21524W        W41804  12.293  13.965  13.727  0.0021 -0.0502 -0.0898
21525W        W41805  13.477   0.578  12.250  0.0116 -0.0830 -0.2052
21526W        W41806  12.598  14.364  10.302 -0.1830  0.1414 -0.1971
21527W        W41807   2.632  12.476   1.860 -0.1670 -0.0767  0.2105
21528W        W41808  18.779   9.459  10.117  0.2124  0.0454  0.0314
21529W        W41809   8.605   7.638   2.605 -0.1754  0.1805  0.1259
21530W        W41810   0.193  15.089   1.131 -0.1975  0.0397 -0.2981
21531W        W41811   8.706  18.821  11.029  0.1549  0.1715 -0.1544
21532W        W41812  10.824   7.981  10.318  0.4670  0.0439 -0.1973
21533W        W41813  17.901  12.519  10.948  0.3559 -0.0619 -0.2540
21534W        W41814  13.134  16.473   1.695 -0.0373  0.0402  0.4166
21535W        W41815   9.221  18.998   1.841  0.1277 -0.2276  0.0256
21536W        W41816   2.095   4.999  12.689  0.0017  0.1854  0.1211
21537W        W41817   0.678   3.905  10.924 -0.1856 -0.1665 -0.1126
21538W        W41818  15.969  18.747  10.802 -0.2420 -0.1011 -0.2781
21539W        W41819   4.646  14.452  11.857  0.1118  0.1197  0.0075
21540W        W41820  19.502   5.013   2.887  0.0461  0.0921 -0.1732
21541W        W41821   1.495   6.502  12.009  0.2413  0.0889 -0.2300
21542W        W41822   3.884  11.439  11.329 -0.0487 -0.4275  0.2200
21543W        W41823   5.055   2.340  11.337  0.2353 -0.0700  0.3021
21544W        W41824   5.667   2.469   0.585 -0.2961 -0.2146 -0.1274
21545W        W41825  19.357  16.029   2.969 -0.0337  0.3232 -0.1158
21546W        W41826  14.152   4.289  11.141 -0.1122  0.0444 -0.0114
21547W        W41827   3.180   7.694  11.833 -0.1095 -0.0158  0.0122
21548W        W41828   8.501   5.002  13.283 -0.0752 -0.1319 -0.1567
21549W        W41829   4.511   6.914  10.976 -0.3398 -0.2431  0.2854
21550W        W41830   2.061  11.304   2.491 -0.3233  0.0359 -0.0038
21551W        W41831   6.756   2.357   1.164 -0.0573 -0.0931  0.2155
21552W        W41832   3.985  15.916   2.698  0.1424  0.1363  0.0358
21553W        W41833  19.346  17.612  12.761 -0.3040  0.1035  0.0799
21554W        W41834   5.438  11.054  13.316  0.1993  0.0624 -0.0330
21555W        W41835   9.717   7.503  11.660 -0.0917  0.2112  0.0719
21556W        W41836  17.140   3.427  10.181  0.2012 -0.1665 -0.0497
21557W        W41837   0.068  17.550   1.409  0.0657 -0.1216  0.0094
21558W        W41838  19.314   1.999   1.182 -0.0671  0.0751 -0.0271
21559W        W41839  11.810   1.306  12.776 -0.1843 -0.0069 -0.1319
21560W        W41840  18.898  18.926   0.489 -0.0606 -0.1181 -0.2219
21561W        W41841   1.414  11.840  10.282 -0.3667  0.0547  0.0520
21562W        W41842   8.356   3.864  12.738  0.1795  0.0137 -0.0331
21563W        W41843   2.512  12.347  12.885 -0.4855  0.1577  0.1922
21564W        W41844  10.488  19.651   0.494  0.0808  0.0106 -0.2387
21565W        W41845  15.141   8.611  12.589  0.1497  0.2004  0.0412
21566W        W41846  12.342  19.728  10.280 -0.1352 -0.2928  0.2253
21567W        W41847  15.627  12.446   0.353  0.0201 -0.0044  0.2367
21568W        W41848   0.103  15.704  13.801 -0.0164 -0.0517  0.1958
21569W        W41849  13.956  19.947   9.541  0.1118  0.1899 -0.1214
21570W        W41850   6.695   7.898   0.507 -0.0363  0.1014 -0.1986
21571W        W41851  17.047   1.145   4.107  0.3206  0.2059 -0.1705
21572W        W41852  19.024  18.260  11.738 -0.1101 -0.2297  0.0008
21573W        W41853  14.069  12.073   2.656  0.0720  0.1447 -0.0728
21574W        W41854   6.924   8.780  13.656  0.2043  0.0650 -0.2246
21575W        W41855  18.414  12.017  12.579  0.0604  0.1879 -0.3062
21576W        W41856  11.429  18.404   0.342 -0.2814 -0.3577 -0.2312
21577W        W41857  17.236  10.294  12.011 -0.1064 -0.4118  0.0405
21578W        W41858   9.438   2.120  11.728 -0.1988  0.2208 -0.1149
21579W        W41859   1.066   4.826   0.092 -0.1110  0.0609 -0.1517
21580W        W41860  17.763   9.370  10.294  0.0148 -0.0846  0.1730
21581W        W41861   3.985   6.141  10.260 -0.1697  0.0213  0.0463
21582W        W41862  14.254  18.106  10.778 -0.0785  0.1746  0.2745
21583W        W41863   5.116  16.091   2.733 -0.0819 -0.1793 -0.1001
21584W        W41864   1.608  13.554  11.569 -0.2290  0.3192  0.1529
21585W        W41865   1.958   1.612   2.872 -0.0325 -0.1294 -0.1081
21586W        W41866  16.154  13.395   1.248 -0.1866 -0.0728  0.0234
21587W        W41867   9.823  19.429   4.928 -0.0965 -0.1928  0.1274
21588W        W41868  13.475  14.840   4.411  0.0621 -0.1279  0.2419
21589W        W41869  18.891  13.191  12.905  0.0997 -0.0626 -0.0784
21590W        W41870  16.250  13.799  10.627  0.1399  0.2152 -0.0576
21591W        W41871   9.114   1.235  13.735 -0.0130  0.1408 -0.1358
21592W        W41872   6.357  18.818  11.371  0.0213 -0.1504 -0.2407
21593W        W41873  17.646   3.444  10.052 -0.0022  0.1176 -0.1185
21594W        W41874   0.688   4.679  13.132  0.1718  0.0252 -0.1264
21595W        W41875  15.430  13.953  11.067  0.0540  0.0506 -0.0019
21596W        W41876  10.903  12.231  11.500  0.0832  0.0087  0.0136
21597W        W41877   6.445   0.974  12.155 -0.1989  0.0456 -0.1054
21598W        W41878   5.841   2.321  13.131 -0.1828 -0.0723 -0.2536
21599W        W41879  12.895  15.612  11.579  0.3600 -0.1008 -0.0282
21600W        W41880  14.247  14.475   1.521 -0.0908  0.2111  0.0251
21601W        W41881  10.052   9.647  12.686 -0.0027 -0.0477 -0.0975
21602W        W41882   9.611   2.410   2.837 -0.0020 -0.1003 -0.1119
21603W        W41883  16.565  16.917   1.210 -0.2337 -0.0334 -0.0298
21604W        W41884   0.274   8.725   1.639  0.1888 -0.1339  0.0206
21605W        W41885   7.585   9.837   3.996 -0.2090 -0.1810  0.1276
21606W        W41886   6.847   5.032  12.579 -0.0569 -0.1356  0.3667
21607W        W41887  19.155   3.426   1.484  0.1712  0.1462  0.0679
21608W        W41888   2.436  18.775   2.581  0.2550  0.2402  0.1802
21609W        W41889   2.008   6.293   1.726 -0.0905 -0.1429  0.1180
21610W        W41890  16.621   2.107   9.502 -0.2271  0.1319  0.3133
21611W        W41891   5.028  12.855  10.720 -0.0098 -0.1565 -0.2272
21612W        W41892   0.964   9.888   2.569 -0.3434  0.0667 -0.5650
21613W        W41893  19.777   6.516   3.887  0.1937 -0.0990  0.1743
21614W        W41894   8.421  17.222  12.876  0.0426 -0.0651 -0.1043
21615W        W41895   6.460  10.853   5.331 -0.0411 -0.2458 -0.0711
21616W        W41896  13.468   6.241  11.652 -0.1632 -0.1684  0.1931
21617W        W41897  18.230   8.851   1.955  0.0935  0.0595  0.1704
21618W        W41898  17.260   6.910   4.175  0.0130  0.0627 -0.2325
21619W        W41899   0.771  10.274  13.500 -0.0024 -0.3996  0.2254
21620W        W41900   5.773   1.132  11.657  0.0197  0.1054 -0.0074
21621W        W41901   6.503   9.660  12.163  0.1113 -0.0847  0.0987
21622W        W41902   1.007  18.100  13.581 -0.0897 -0.3767 -0.2520
21623W        W41903   8.012  17.895  12.195  0.0966  0.0500 -0.3715
21624W        W41904   0.364   4.265   2.540 -0.0385  0.0316 -0.2076
21625W        W41905   6.728  16.945   3.738  0.1309 -0.1601 -0.2443
21626W        W41906  10.559  16.334  12.159 -0.0461 -0.0684  0.1148
21627W        W41907  17.120  13.538   2.828  0.0257 -0.0051 -0.0374
21628W        W41908  11.872   4.156   0.082 -0.1095  0.0964  0.0766
21629W        W41909  15.797  17.157   3.260 -0.0857 -0.4458  0.1110
21630W        W41910   7.563   8.457   1.376 -0.4726 -0.0596 -0.0640
21631W        W41911   8.007   4.297  10.715 -0.2843  0.0715 -0.2363
21632W        W41912   7.949  18.045   3.039 -0.3562 -0.1562 -0.3236
21633W        W41913   9.162   7.992   3.367  0.1340 -0.0154  0.1299
21634W        W41914   3.667   5.211   3.322  0.2597 -0.3339  0.3542
21635W        W41915  14.752  10.271   2.245  0.3544 -0.1937 -0.0063
21636W        W41916   0.630   4.104  12.568  0.1660  0.1937  0.4423
21637W        W41917  14.829  13.162  12.158  0.0038 -0.1217 -0.1078
21638W        W41918   1.747  19.683   1.010  0.0531  0.1262  0.2401
21639W        W41919   7.582   8.824   1.682  0.0887 -0.0401  0.0123
21640W        W41920   8.534   3.193   1.038  0.1938  0.4154  0.0437
21641W        W41921   1.902  13.733  13.218 -0.2828 -0.3828  0.0511
21642W        W41922   6.735   2.634  10.511  0.0593 -0.2900  0.2697
21643W        W41923   3.329  14.279   0.531 -0.0433  0.2122 -0.0372
21644W        W41924   5.314   9.788   2.166  0.0029  0.1520 -0.4781
21645W        W41925  19.629   0.662   3.471  0.1809 -0.3355 -0.0414
21646W        W41926  17.896  14.442   3.252  0.0042 -0.1293  0.2485
21647W        W41927  13.749  15.479   9.548  0.1903 -0.1104 -0.1541
21648W        W41928   5.558   9.338   2.126 -0.1523 -0.2655  0.3404
21649W        W41929  14.146   5.226  12.553 -0.0980 -0.0261 -0.0738
21650W        W41930   6.543   1.665   2.724  0.1421 -0.1635 -0.1322
21651W        W41931  12.697   9.079   9.328 -0.2022 -0.2948 -0.1188
21652W        W41932   3.323   6.908   0.268  0.1421 -0.2878 -0.1488
21653W        W41933   5.149   9.654  12.160  0.1535  0.0662  0.0445
21654W        W41934   9.480   8.608  11.004  0.0291 -0.0994 -0.0941
21655W        W41935  11.176   4.068   3.001 -0.2174 -0.0563  0.1647
21656W        W41936   2.212   6.125  11.346 -0.1904  0.1024 -0.2306
21657W        W41937  18.299  12.330   2.833 -0.2460  0.1923 -0.2150
21658W        W41938  19.801   9.658   3.480 -0.1347 -0.1747  0.3059
21659W        W41939   8.833  15.414  12.834 -0.0487 -0.1619  0.1797
21660W        W41940   7.864   8.370   0.488 -0.0917  0.1284  0.2236
21661W        W41941  19.940   3.789   0.838  0.0855  0.0744  0.5240
21662W        W41942  13.196  12.588  10.399  0.1238  0.2466  0.3361
21663W        W41943  12.013  16.568   0.285 -0.3000 -0.3584 -0.1157
21664W        W41944  16.514   0.691   2.021  0.0225 -0.1868  0.1585
21665W        W41945   0.274   0.154  12.324 -0.1528  0.0941  0.1070
21666W        W41946   2.620  13.020   0.374  0.0045  0.0468  0.1652
21667W        W41947  10.619   3.795   2.356  0.0804 -0.0586  0.1482
21668W        W41948   2.665  10.169   2.061  0.2033 -0.1411  0.1176
21669W        W41949  10.756  19.399  10.622  0.2892  0.0557  0.1506
21670W        W41950   1.571  18.459   0.408  0.2754 -0.1285 -0.1014
21671W        W41951   2.375   7.122   1.929  0.4112  0.1028 -0.2253
21672W        W41952   7.581   7.329   2.554  0.0208  0.0526 -0.1275
21673W        W41953  18.972  15.433  10.620  0.1790 -0.2392  0.1630
21674W        W41954  13.715   1.091   0.599 -0.3108 -0.0091 -0.0418
21675W        W41955   1.518  17.883   3.352  0.0633  0.1540 -0.3177
21676W        W41956   3.856  11.547   2.098  0.0002 -0.1068  0.2970
21677W        W41957   1.073   5.443  13.503 -0.0298 -0.1872  0.1458
21678W        W41958   1.474   8.945  12.943  0.0082  0.2020 -0.0437
21679W        W41959  19.278   1.908   9.023  0.1087  0.4420 -0.1629
21680W        W41960  16.225  12.669  11.668 -0.2277 -0.0789  0.0873
21681W        W41961   9.283   9.322   3.051  0.1562 -0.1714  0.3809
21682W        W41962   0.021   9.484   9.915 -0.3117  0.2398  0.4049
21683W        W41963   6.832   6.479   3.551  0.0269 -0.0360  0.0862
21684W        W41964   0.861  13.786   4.097  0.1824  0.3581 -0.3914
21685W        W41965  15.425  15.851  12.350 -0.6417 -0.2179 -0.0912
21686W        W41966  10.243  18.658   9.988 -0.1032 -0.1254  0.2171
21687W        W41967   9.174   8.507   1.309  0.1566 -0.0139 -0.1224
21688W        W41968  14.476   2.153   3.440  0.1347 -0.1776 -0.1442
21689W        W41969   7.843  11.373   9.329  0.3956 -0.2436 -0.1614
21690W        W41970   7.479   3.471  13.014  0.2146 -0.1445 -0.1414
21691W        W41971  10.225  14.209   0.578 -0.0365 -0.1138 -0.2320
21692W        W41972  17.667  12.172  12.643  0.0604  0.1691  0.1241
21693W        W41973   7.627   0.005   2.971 -0.0275  0.4807 -0.0553
21694W        W41974   7.808  11.053   4.169 -0.0410 -0.0117  0.1597
21695W        W41975  12.720   9.661  11.419 -0.1972  0.0342  0.0237
21696W        W41976   5.697  15.887   3.198 -0.0343  0.0122 -0.0579
21697W        W41977  17.081   9.443   0.776 -0.1177  0.1806  0.0770
21698W        W41978   5.131  10.765   0.213  0.0252  0.0561  0.1582
21699W        W41979  13.424   8.529   0.016  0.0019 -0.0687 -0.0444
21700W        W41980  15.996  13.950   9.890 -0.0050  0.0487 -0.2536
21701W        W41981  11.348   9.787   0.465 -0.2459 -0.0111 -0.1334
21702W        W41982  15.124  11.752  10.554  0.2895  0.0210  0.3558
21703W        W41983  13.913  13.656  13.261 -0.1525  0.3502  0.2819
21704W        W41984   7.261  16.068   1.570  0.2269  0.2303  0.1161
21705W        W41985  10.830   8.377   3.674  0.1093 -0.3370  0.2188
21706W        W41986   8.316   6.846   1.254  0.1317 -0.4463  0.1737
21707W        W41987   9.656  11.028  11.849  0.3036 -0.1781 -0.0653
21708W        W41988  19.384  10.212  10.446 -0.0587  0.0895  0.1771
21709W        W41989   8.845   6.983   3.739 -0.0997 -0.2071 -0.0957
21710W        W41990   2.743  12.187   2.834 -0.2519  0.1424 -0.0754
21711W        W41991   8.536  19.870   3.433 -0.0295  0.0748  0.0177
21712W        W41992  17.240   4.794   4.734 -0.0464  0.0983  0.0269
21713W        W41993  12.649   0.071   3.330 -0.3432  0.1875 -0.1164
21714W        W41994   2.979   7.517   0.624  0.0851 -0.2067 -0.1828
21715W        W41995   7.621  15.044   0.764  0.4016 -0.1372  0.0798
21716W        W41996  19.223  12.242  12.988 -0.0559 -0.0174  0.1388
21717W        W41997   8.176  16.444  13.295 -0.1751 -0.3586 -0.2622
21718W        W41998  15.840   5.743   9.156  0.2436 -0.3001  0.0911
21719W        W41999   2.854   4.744  10.991  0.1498  0.1058  0.0158
21720W        W42000   2.201   0.488   2.128  0.2955 -0.0710 -0.2394
21721W        W42001  16.060   0.556  11.638 -0.3734 -0.1877 -0.2739
21722W        W42002  11.891  16.204  11.738  0.0292  0.0277  0.1344
21723W        W42003  12.746   1.562   3.194 -0.3925 -0.0878  0.0828
21724W        W42004   6.033   2.480   2.746 -0.5027  0.3531  0.1521
21725W        W42005   0.252  12.975   2.067 -0.1738 -0.0977  0.2396
21726W        W42006  14.338   0.168   9.983  0.3441 -0.4619 -0.0523
21727W        W42007  15.666  11.571  11.177 -0.1091  0.3162 -0.1640
21728W        W42008   6.486  14.370  10.663  0.1826  0.0983  0.2534
21729W        W42009   4.797   0.261   1.484  0.3097  0.0158  0.1193
21730W        W42010  12.843  19.251  13.136 -0.0972  0.0345 -0.0756
21731W        W42011   6.045   2.016   2.759 -0.0410  0.4468 -0.0159
21732W        W42012   4.460  11.433  10.701 -0.0842 -0.1903 -0.1218
21733W        W42013  12.998  14.258  13.201  0.2472  0.2078  0.1225
21734W        W42014  10.672   3.295  13.609 -0.3026  0.1558 -0.1673
21735W        W42015  15.561   0.267   0.428  0.1472 -0.1262 -0.0393
21736W        W42016   3.519  11.339  13.290  0.2354  0.1049  0.1462
21737W        W42017  10.446  12.339   2.184 -0.0822  0.0820  0.0847
21738W        W42018  10.944  14.387  12.348 -0.1268 -0.1012 -0.0292
21739W        W42019  19.000   4.563   2.218  0.0431  0.0226  0.1586
21740W        W42020  15.469  19.676   2.527  0.1963  0.2037 -0.1368
21741W        W42021  13.243   2.383   9.747  0.1103  0.1637  0.3145
21742W        W42022  16.323  19.298   0.050 -0.0632 -0.1144 -0.0179
21743W        W42023  19.634   2.190   2.091  0.2380 -0.0121 -0.0422
21744W        W42024  17.693   0.433  12.194 -0.0020 -0.1157  0.0051
21745W        W42025  12.911  13.741   3.407  0.1599 -0.0628  0.1213
21746W        W42026   5.572   5.572   1.920 -0.1465  0.1944 -0.0470
21747W        W42027   7.408   6.665   0.116 -0.1231  0.4236 -0.1667
21748W        W42028  19.493  19.630  13.670 -0.2224 -0.2219 -0.0240
21749W        W42029  18.982   7.241  10.793  0.1605  0.0053 -0.0664
21750W        W42030   0.429   4.719   1.288 -0.0181  0.3565  0.0485
21751W        W42031   4.837   4.602   0.725  0.0252  0.0422  0.2250
21752W        W42032  17.670  11.590  13.277 -0.0314 -0.2347  0.0303
21753W        W42033   5.766  13.326   1.108  0.0234  0.1731  0.0920
21754W        W42034   5.966  11.051   3.751  0.1868 -0.4021  0.1330
21755W        W42035   0.777   8.578  13.639  0.3943 -0.0389 -0.1612
21756W        W42036   4.472  13.038  11.493  0.1376  0.1400 -0.1521
21757W        W42037   9.019  10.830  11.290 -0.3340  0.1076  0.2118
21758W        W42038  18.010  17.745   2.348 -0.0481  0.1878 -0.0600
21759W        W42039  17.041  16.074  12.694  0.0765  0.0167 -0.0413
21760W        W42040  13.819  18.194  11.153 -0.1118  0.1551 -0.0406
21761W        W42041  11.947  17.682  10.785 -0.0324 -0.1434 -0.0932
21762W        W42042  10.859   9.773   1.956 -0.2100 -0.1922 -0.0076
21763W        W42043   7.991   0.240   3.825  0.4128 -0.2945  0.2540
21764W        W42044  15.083  17.589  13.121  0.3926  0.0104  0.0421
21765W        W42045  17.109  15.537   0.921  0.1053 -0.0497  0.2305
21766W        W42046   5.979   5.123   0.249 -0.0067 -0.1850  0.2317
21767W        W42047   4.447   4.081  11.326 -0.3466  0.2199 -0.2372
21768W        W42048   4.634  11.090   1.578  0.2267 -0.0282 -0.0480
21769W        W42049  10.707   1.280   2.934 -0.0360  0.0956 -0.2781
21770W        W42050  12.071  12.398  13.276  0.0220 -0.0065  0.2848
21771W        W42051  19.335  13.078  11.742 -0.0060  0.3336  0.2593
21772W        W42052  16.060  19.179   0.911 -0.2696 -0.3872  0.3110
21773W        W42053  19.407  15.498   2.145  0.0885 -0.1315 -0.1189
21774W        W42054   7.361  16.888  11.841 -0.1265 -0.0650  0.0416
21775W        W42055   3.865   9.457  12.435  0.1940 -0.0269 -0.2635
21776W        W42056  18.209  19.695  13.640 -0.0826  0.2193 -0.1672
21777W        W42057  14.698   9.661  10.219  0.0003  0.2716 -0.1782
21778W        W42058  18.806  18.733   2.445  0.1278 -0.2964 -0.0260
21779W        W42059  18.024  16.899   1.871 -0.0866  0.1640 -0.0772
21780W        W42060   1.750   9.383   1.318  0.0751 -0.0923 -0.0383
21781W        W42061  18.230   0.013   2.664 -0.0386  0.1656  0.0449
21782W        W42062  10.530   6.360   2.803 -0.0056  0.2470 -0.1569
21783W        W42063  16.263  12.116   9.996  0.0953  0.1870 -0.0232
21784W        W42064  15.862   4.684   1.192 -0.4011 -0.0351 -0.1035
21785W        W42065   2.278   4.530   1.577 -0.0377 -0.2468 -0.2504
21786W        W42066  14.837   1.582  11.515  0.3094 -0.0638 -0.0489
21787W        W42067  16.699   9.777  11.663 -0.2275  0.0384 -0.2022
21788W        W42068   6.453  15.993   1.982  0.1344  0.0156  0.0074
21789W        W42069  10.257  14.159   3.117 -0.1730 -0.2632  0.3540
21790W        W42070  16.362   7.199   3.347  0.0413  0.1847  0.2184
21791W        W42071  11.000  16.699   3.019 -0.1569  0.2078 -0.0360
21792W        W42072   5.706  13.767   2.455 -0.1925 -0.2344  0.1653
21793W        W42073   7.021   2.934  10.307  0.1582  0.0965  0.2440
21794W        W42074  12.961  11.358   2.615  0.2966  0.1040  0.1244
21795W        W42075   5.506  12.870  10.640 -0.2612 -0.2405  0.2764
21796W        W42076   3.478  18.737   1.925  0.0844  0.2662  0.2686
21797W        W42077   4.196   1.681  11.843  0.0476  0.1090 -0.0156
21798W        W42078   4.008   3.219   4.355 -0.2366 -0.3681 -0.0447
21799W        W42079  17.402   7.611  12.552 -0.1443 -0.0363  0.2582
21800W        W42080   8.420   4.423   1.788 -0.1531 -0.1485  0.0226
21801W        W42081  12.944   0.038  11.686 -0.0056 -0.1327 -0.2769
21802W        W42082  10.458   6.044  13.070 -0.0446 -0.2322 -0.1612
21803W        W42083  10.996  18.098   1.380 -0.0069 -0.2657  0.1762
21804W        W42084  19.492   3.346   2.367 -0.0306  0.1514 -0.0309
21805W        W42085   3.268   5.104  10.833 -0.0013 -0.0547 -0.0766
21806W        W42086   2.241  18.072  11.117 -0.0418 -0.1855  0.0592
21807W        W42087   0.705   2.392  12.532  0.3789  0.1836 -0.2171
21808W        W42088   2.366  13.874   1.256 -0.1809 -0.2560  0.0033
21809W        W42089   5.401  12.147  10.671 -0.0462 -0.2261 -0.0655
21810W        W42090   2.817  10.701  13.323 -0.0546 -0.2990 -0.1416
21811W        W42091  10.727  13.587   4.864  0.1362 -0.2198 -0.1863
21812W        W42092   3.779   1.338  11.882  0.2996  0.0785  0.1766
21813W        W42093  18.618  18.433   2.852  0.0633 -0.0772 -0.1049
21814W        W42094   6.125  11.405   1.398  0.1681  0.1322 -0.3825
21815W        W42095  16.749  19.165  10.230  0.1212  0.1807 -0.1436
21816W        W42096  14.172  11.229   0.674  0.2095  0.0248 -0.2955
21817W        W42097   1.435  15.165  11.375 -0.3346  0.0053  0.0187
21818W        W42098   9.226  10.296  11.827 -0.1890  0.0472  0.1054
21819W        W42099   0.958  19.026   4.614 -0.0249 -0.0539 -0.0457
21820W        W42100  18.154  19.041  11.025  0.0598  0.1646 -0.0995
21821W        W42101  17.665   3.498  10.707  0.0680  0.1815 -0.2490
21822W        W42102   6.679   3.496   0.626 -0.2465 -0.0178 -0.1126
21823W        W42103  19.282  18.175  13.187 -0.0167  0.1621 -0.1023
21824W        W42104   9.226   1.886   2.224  0.0083 -0.0472  0.0943
21825W        W42105   9.637  19.664  12.330  0.0041  0.4698 -0.0007
21826W        W42106   7.928  10.325  10.976 -0.0776  0.0541 -0.2429
21827W        W42107  14.395   9.269   1.969  0.1698 -0.0195 -0.2733
21828W        W42108   2.383  12.570   0.732 -0.1985 -0.1893  0.2045
21829W        W42109   7.421  11.136  12.119  0.1918  0.1795  0.0596
21830W        W42110  18.458   5.246  10.884 -0.0953  0.0198 -0.1794
21831W        W42111  16.696   5.559   0.773  0.1796 -0.2203  0.1169
21832W        W42112  17.278  16.649  10.960  0.0214  0.0090  0.0243
21833W        W42113  16.472   4.980   0.232 -0.0319 -0.0153  0.1289
21834W        W42114  18.967   6.700  13.102  0.3509  0.1329 -0.0273
21835W        W42115   2.919  14.984  11.925  0.3704 -0.0128 -0.0026
21836W        W42116  16.990   7.917   0.409 -0.0096 -0.0629 -0.1386
21837W        W42117  14.259  16.935   0.346 -0.3395  0.0894 -0.0696
21838W        W42118   1.933   5.463  12.534  0.0965  0.0434  0.1514
21839W        W42119  13.139   1.928   1.749 -0.1048 -0.2118  0.1968
21840W        W42120  19.258   2.399   1.593 -0.1429  0.2806 -0.0888
21841W        W42121   0.728   5.017   0.969  0.0265  0.0158  0.3341
21842W        W42122   2.719  15.597   3.356  0.1019  0.2948  0.2454
21843W        W42123  14.652  14.753   2.269  0.2726 -0.2730 -0.1558
21844W        W42124   5.631  11.062  12.421 -0.0600  0.1275  0.0116
21845W        W42125  18.628   5.228  12.448  0.0961 -0.2943 -0.1959
21846W        W42126  11.081  19.198  10.332  0.3391  0.2299 -0.1295
21847W        W42127   9.674  12.091  10.113 -0.1895 -0.1117  0.3088
21848W        W42128  17.371   7.484  10.446  0.3867 -0.3148 -0.3931
21849W        W42129   8.070  19.848   2.048 -0.2086 -0.3570 -0.0283
21850W        W42130  17.633   3.251   0.662 -0.0501  0.1268  0.2930
21851W        W42131   4.658   5.940   1.913 -0.1564  0.2959  0.0848
21852W        W42132   7.901   2.518   1.517 -0.1254 -0.3125 -0.0472
21853W        W42133  17.069  10.483  11.590  0.2543  0.2879  0.2617
21854W        W42134   3.903  15.653   2.186  0.0334 -0.0386 -0.0512
21855W        W42135   4.359   7.310   1.873 -0.1028  0.0924 -0.0415
21856W        W42136  15.948  14.426  10.219  0.5385  0.0005 -0.1353
21857W        W42137   1.959   6.721  11.671  0.2262 -0.0816 -0.1929
21858W        W42138   7.036   1.603   0.876 -0.0948  0.0790  0.1632
21859W        W42139  16.283   4.985   9.907 -0.0151 -0.0477 -0.0630
21860W        W42140  15.763   8.133  10.769 -0.0623  0.4594  0.1310
21861W        W42141   5.456  18.690   1.323 -0.0492  0.1792  0.3815
21862W        W42142  13.728   0.579  11.744 -0.1340  0.1626 -0.3522
21863W        W42143   2.455  19.630  12.857 -0.2658  0.1793 -0.0656
21864W        W42144  13.612   4.666  12.038  0.0612  0.1013 -0.0080
21865W        W42145   6.917  10.884   2.868 -0.0405  0.0789  0.1236
21866W        W42146   1.831  12.416   9.468  0.0699  0.3668 -0.0278
21867W        W42147  14.482  18.823   1.376  0.0320 -0.0229 -0.2268
21868W        W42148  14.741   1.557  12.971 -0.0025 -0.0446 -0.1564
21869W        W42149   4.557  10.693   0.350  0.1793 -0.2245  0.1172
21870W        W42150  15.707  10.566  10.757 -0.1398 -0.2047 -0.2231
21871W        W42151   0.242  18.616   3.759 -0.0317 -0.0770  0.0782
21872W        W42152  17.595  18.054  10.960  0.3634  0.1383 -0.3865
21873W        W42153   2.041   0.657  11.096  0.0226  0.1135 -0.1486
21874W        W42154  11.555   8.685   3.821 -0.0716  0.1422  0.0482
21875W        W42155  14.338  17.370  10.540  0.3024 -0.1160  0.3957
21876W        W42156   2.863   2.634   3.200 -0.0427  0.1564  0.1113
21877W        W42157  16.725   0.505   1.088 -0.1351  0.1759  0.0185
21878W        W42158   8.692  14.293   3.033  0.1786  0.1158 -0.0624
21879W        W42159   8.290   2.445   3.117  0.1314  0.1574  0.0396
21880W        W42160  19.878   7.811  13.461 -0.1185 -0.0725  0.0351
21881W        W42161  17.611  16.498   3.272 -0.0250  0.3577  0.1313
21882W        W42162  12.198   1.975  13.367  0.0221 -0.0993  0.1912
21883W        W42163  18.654   5.782  12.931 -0.3438 -0.1651  0.1124
21884W        W42164   7.259  14.787   3.016  0.2066 -0.1020 -0.1452
21885W        W42165   4.414   5.725  13.821 -0.0379 -0.2730 -0.0971
21886W        W42166  19.843  12.277  11.811 -0.0216  0.2255 -0.0294
21887W        W42167   1.933   3.472  12.169  0.1211 -0.0025 -0.1005
21888W        W42168   6.428  12.220   3.475  0.2436  0.4841 -0.1306
21889W        W42169  19.403   1.084   3.580 -0.1309 -0.1489 -0.0321
21890W        W42170   1.020   1.706  10.262  0.0860 -0.0205 -0.0036
21891W        W42171  15.169  17.036  12.158 -0.1672  0.1971  0.1540
21892W        W42172  17.730  18.478   0.055 -0.1795 -0.0073  0.0471
21893W        W42173   4.374   1.696   1.738 -0.3491 -0.2520  0.4041
21894W        W42174  14.721  18.247  10.488 -0.0851  0.1056 -0.4334
21895W        W42175   2.872   2.838   0.960 -0.1806  0.1278  0.1820
21896W        W42176   6.413   6.225  13.148  0.5197 -0.0333 -0.0535
21897W        W42177  12.239  15.861  12.639 -0.0905  0.1706 -0.3796
21898W        W42178   7.576  19.566   3.270  0.0374 -0.1316 -0.0333
21899W        W42179  11.459  13.386  12.551  0.2498 -0.3054 -0.1139
21900W        W42180  17.752  11.661   0.970  0.0017  0.0139 -0.1491
21901W        W42181  12.047  18.972  12.509  0.5029  0.2833  0.1451
21902W        W42182   9.771  12.433   3.874  0.2325 -0.1764  0.1047
21903W        W42183  19.214   3.568   2.786 -0.0896 -0.1148 -0.2192
21904W        W42184   7.810   9.328   1.820  0.1304  0.1360  0.4847
21905W        W42185  13.681   5.429  11.519  0.0166  0.2207 -0.0803
21906W        W42186   2.565   4.090  12.264  0.0528  0.0185 -0.1066
21907W        W42187   9.156  18.167   4.848  0.2092 -0.1172 -0.0492
21908W        W42188  15.119   1.493  11.944 -0.1287 -0.0625  0.1041
21909W        W42189  16.328  18.516   1.133  0.3063  0.2674  0.1008
21910W        W42190   7.740   0.170  10.326 -0.1420  0.1006 -0.3368
21911W        W42191   8.969   4.198  11.168 -0.2788  0.1087  0.0513
21912W        W42192  19.632  17.913   0.336  0.1822 -0.2675 -0.1667
21913W        W42193  10.364  10.961  12.672  0.0185  0.0170 -0.0521
21914W        W42194   7.740  18.700   2.964 -0.0921  0.0898  0.0926
21915W        W42195  18.771  10.164   1.413 -0.3626  0.2664  0.2649
21916W        W42196   3.814  14.328  13.705 -0.0526  0.1576 -0.1489
21917W        W42197  11.302   5.537   2.003 -0.0942  0.1784 -0.0001
21918W        W42198   9.922   9.641   3.851  0.0961 -0.0016  0.1011
21919W        W42199   2.991   9.266  10.258 -0.2914 -0.1023 -0.3001
21920W        W42200   9.784   0.563   2.730  0.3620 -0.0122 -0.1485
21921W        W42201   2.397   4.781  10.791 -0.2398  0.2524  0.2730
21922W        W42202   9.011   4.790   9.521 -0.4065  0.1875  0.1792
21923W        W42203  17.534  18.549  10.611  0.1603  0.0075 -0.2925
21924W        W42204   9.146  11.029  12.982  0.1070 -0.1825 -0.2127
21925W        W42205  16.886  16.882   3.618 -0.1600  0.2586 -0.1721
21926W        W42206  18.799  19.183   1.913 -0.1328 -0.0457  0.2172
21927W        W42207  17.206  19.855  10.772 -0.3276 -0.0497  0.4995
21928W        W42208  13.006  13.700  13.342 -0.0004 -0.3014 -0.4518
21929W        W42209   2.688   2.320  11.009 -0.2960 -0.1160  0.1251
21930W        W42210   1.537  13.011  10.786 -0.1004 -0.0174  0.2711
21931W        W42211  12.637   0.723   9.007  0.0534 -0.0359  0.2906
21932W        W42212  16.673   8.204  12.878  0.0386  0.3608 -0.0520
21933W        W42213   6.366  17.289  13.676  0.0338  0.1522  0.1757
21934W        W42214   9.649  12.857  12.661 -0.0554 -0.1707 -0.0752
21935W        W42215  17.048   9.781   1.209 -0.1195  0.2654 -0.0241
21936W        W42216   3.621   1.888   2.239 -0.1280 -0.1526 -0.1846
21937W        W42217  11.713   1.558  10.244 -0.2755  0.2989 -0.4456
21938W        W42218  12.051   1.063   3.270  0.1061 -0.2079 -0.0320
21939W        W42219  15.677   6.711   0.171 -0.3351  0.0554  0.1669
21940W        W42220  10.918  17.380   2.051  0.1610 -0.0536 -0.0301
21941W        W42221  13.994  13.752   0.294 -0.1569  0.1459  0.2885
21942W        W42222  17.265   6.637   3.167  0.2037 -0.0751 -0.0067
21943W        W42223  13.374   2.503  12.158 -0.0323  0.0850  0.2515
21944W        W42224   3.181   6.411   0.040  0.3480  0.2132 -0.3164
21945W        W42225  14.759   4.726   4.427  0.1319  0.0121  0.0133
21946W        W42226   3.669   2.296  11.294  0.1082  0.0647  0.2156
21947W        W42227  11.022  11.884   0.873  0.2655 -0.0312 -0.2458
21948W        W42228   1.246   6.469   3.667 -0.1427  0.0599 -0.1335
21949W        W42229   9.955   1.026   1.368  0.0851 -0.0690  0.0329
21950W        W42230  10.138  16.346   2.999  0.0601  0.0480  0.0993
21951W        W42231   7.936  14.071   2.318 -0.2647 -0.2458  0.1852
21952W        W42232   2.909  11.625   2.115  0.0280  0.0816 -0.0599
21953W        W42233   0.463   7.480   3.129 -0.0897  0.2067  0.0243
21954W        W42234  12.622  11.315   0.584 -0.1727  0.2590  0.0826
21955W        W42235   9.226  12.655  12.463  0.2214  0.0279 -0.1399
21956W        W42236  18.857   6.125   1.023  0.0792 -0.1663 -0.1891
21957W        W42237  16.284  15.316   0.903 -0.3459  0.2238  0.1694
21958W        W42238   4.414  13.158  12.519 -0.1167 -0.0552 -0.2438
21959W        W42239   5.816  18.979   1.776  0.1298  0.0432  0.1642
21960W        W42240   6.298   3.408   1.761  0.0175  0.2880 -0.0821
21961W        W42241   9.306   5.298   4.227 -0.0584 -0.1077  0.3900
21962W        W42242  18.020   3.643  10.376  0.1997  0.0046 -0.1223
21963W        W42243   9.643   0.779  10.462  0.4504  0.1373  0.0498
21964W        W42244  19.475  13.794   0.610 -0.1860 -0.1349  0.1655
21965W        W42245  14.547   4.781  12.525  0.0305 -0.0328  0.0111
21966W        W42246  16.273   3.581   0.176  0.0468  0.1288 -0.0352
21967W        W42247   3.792   0.336   2.603 -0.0569 -0.0602 -0.0347
21968W        W42248   2.249  11.592   3.134  0.0829  0.1076  0.2989
21969W        W42249   5.286   9.571   4.328  0.0401 -0.2456 -0.4398
21970W        W42250  10.467  13.569  13.559  0.3713  0.0895 -0.0982
21971W        W42251  11.146   5.339   2.953 -0.0413  0.0793  0.2370
21972W        W42252  12.488  15.198   2.768 -0.2072  0.2099  0.0794
21973W        W42253  13.438  17.639  10.413  0.0349  0.2712  0.1473
21974W        W42254   5.422  12.885   2.374  0.0567 -0.0793 -0.5482
21975W        W42255  19.788  14.362  11.661  0.1438  0.1392 -0.1547
21976W        W42256  16.551   4.435  12.421  0.0079  0.3436 -0.0289
21977W        W42257  13.943  17.418   1.335  0.0409 -0.0039  0.1233
21978W        W42258  13.978   1.450  11.723  0.0292 -0.2025 -0.1495
21979W        W42259   4.296   0.429   0.408 -0.0626 -0.1125 -0.1561
21980W        W42260   4.547  15.738  12.920  0.0592 -0.0962 -0.0905
21981W        W42261   0.530  13.637  10.156 -0.0731 -0.1646  0.2929
21982W        W42262  15.066  13.684  10.230  0.0612 -0.0910 -0.0107
21983W        W42263  11.745   9.984   3.132 -0.0926 -0.2540 -0.2595
21984W        W42264   3.609   5.045   4.867  0.2027 -0.0830 -0.1528
21985W        W42265  18.516  12.177   3.823 -0.0059 -0.1134  0.5471
21986W        W42266   8.927  18.810   2.946  0.1791 -0.0459 -0.1203
21987W        W42267   2.073   0.674  13.538 -0.0290 -0.0505  0.3306
21988W        W42268   2.889   6.232  12.526  0.1478 -0.0418  0.0330
21989W        W42269  13.327   9.919  11.783 -0.1925  0.2263  0.0350
21990W        W42270  18.104  10.704   2.017 -0.0339  0.1247 -0.0250
21991W        W42271  14.778   0.618   0.659  0.1594 -0.1408 -0.2919
21992W        W42272  11.523  18.854   3.351  0.0650  0.1173  0.0876
21993W        W42273  12.787   5.354  12.143  0.0421 -0.2270 -0.1199
21994W        W42274   7.147   5.482   4.317 -0.0841 -0.1413  0.0642
21995W        W42275  10.314  11.477   3.461 -0.1531 -0.2488 -0.0267
21996W        W42276  18.781   0.151  11.476  0.0989 -0.0642  0.0594
21997W        W42277   9.903   5.182  13.620  0.1183 -0.0001  0.1023
21998W        W42278  10.215  14.648   1.537  0.3349  0.1431 -0.0630
21999W        W42279   9.464  12.776   1.373 -0.2156 -0.0608  0.1808
22000W        W42280   8.061  13.049   0.936 -0.0093 -0.0393  0.0277
22001W        W42281  15.956   3.021  13.350 -0.0537  0.0252 -0.0911
22002W        W42282  11.224   5.615  10.789 -0.0021 -0.2093 -0.1371
22003W        W42283   7.964   6.656   1.672 -0.1564  0.1266 -0.1116
22004W        W42284   1.915   4.089  10.970 -0.0044  0.0232 -0.0112
22005W        W42285  13.622   1.160  12.204 -0.2227  0.1855 -0.1298
22006W        W42286  17.963  16.715   2.381 -0.0628  0.1721 -0.1632
22007W        W42287  14.875  12.206   2.379 -0.0051  0.3484  0.0872
22008W        W42288   3.396   9.616  11.148  0.2271 -0.0850 -0.2118
22009W        W42289   1.375   5.895   3.135 -0.1122  0.0711  0.2837
22010W        W42290  10.728   5.354  10.721 -0.0300  0.2099  0.0837
22011W        W42291   8.223   1.466  11.444  0.1245  0.2375  0.0640
22012W        W42292   7.275  15.693  13.752 -0.1252  0.2429  0.3032
22013W        W42293  11.451  14.466  12.167  0.1596  0.0538 -0.0898
22014W        W42294   7.935   1.483   4.381  0.2220  0.4489  0.2856
22015W        W42295   1.759  16.973  11.322  0.3259  0.0033  0.0410
22016W        W42296   5.089  15.095  12.529  0.1229 -0.0211 -0.0323
22017W        W42297  19.787   5.767  12.894  0.1636 -0.0224  0.0107
22018W        W42298  18.037   6.936   1.625 -0.0790 -0.5115  0.0662
22019W        W42299   3.488   7.277  11.567 -0.0644  0.0912  0.2496
22020W        W42300  10.539  11.732  10.984  0.2542 -0.1801  0.1214
22021W        W42301   3.561   3.240  10.801 -0.1395 -0.1119 -0.0757
22022W        W42302   6.024   3.030   3.405  0.3235 -0.1136  0.1008
22023W        W42303  15.272  11.467   2.954  0.0262  0.0792  0.0102
22024W        W42304   0.312  17.755   2.840 -0.1410 -0.1685 -0.3211
22025W        W42305   0.262   2.309  13.275 -0.0738  0.1518 -0.0684
22026W        W42306  10.935  14.086   3.532 -0.1724 -0.0531 -0.2095
22027W        W42307   3.400  11.276   0.831  0.1070 -0.1935 -0.0510
22028W        W42308   7.862   2.225   3.001  0.2514 -0.4268 -0.6953
22029W        W42309  10.638  14.511   1.293 -0.0664  0.2125  0.2208
22030W        W42310   3.675  14.149  11.885 -0.3362 -0.1881  0.0072
22031W        W42311  16.001   7.892   0.715 -0.0845 -0.2786  0.2055
22032W        W42312   2.846  19.347   2.900 -0.0809  0.0407  0.0596
22033W        W42313  18.859   6.307  11.394  0.1397  0.3285  0.1168
22034W        W42314  18.856   9.464  13.352  0.1415  0.0019  0.1540
22035W        W42315   2.795  12.726   2.798 -0.1392  0.0545  0.0600
22036W        W42316  18.181   5.582   0.500  0.0681  0.2019 -0.3599
22037W        W42317  15.406  13.091   4.078  0.0397 -0.0124 -0.3455
22038W        W42318  12.874  13.401   2.457 -0.5127  0.2018 -0.0510
22039W        W42319  17.573   6.163  12.174  0.0339  0.0223 -0.1489
22040W        W42320  14.654  13.712   9.865 -0.2809 -0.2139 -0.0134
22041W        W42321   9.754  16.652   9.041 -0.1005 -0.1213 -0.3316
22042W        W42322  19.157   1.631  11.272 -0.0618 -0.1673  0.1206
22043W        W42323   5.844  15.345   1.570 -0.0330 -0.1556 -0.1076
22044W        W42324   4.866  17.183  11.967  0.1721 -0.2981  0.0610
22045W        W42325  13.998  16.896  13.765 -0.4251  0.0615 -0.1338
22046W        W42326  19.300  18.633  13.439  0.1072  0.0489 -0.0234
22047W        W42327  17.015   8.931   4.443 -0.1794 -0.1209  0.1010
22048W        W42328   9.348  16.819   3.783 -0.1327  0.3390  0.2691
22049W        W42329   5.184  11.714  13.655  0.3037 -0.0693  0.0870
22050W        W42330  17.713  13.428   2.863  0.3160 -0.1143 -0.0722
22051W        W42331   0.531   3.980   0.841 -0.1416  0.3366 -0.0950
22052W        W42332  18.735   7.713  10.388 -0.1983  0.1556  0.3999
22053W        W42333  12.544   7.354  10.149 -0.0895 -0.0911 -0.0523
22054W        W42334  14.733   3.616   3.502 -0.0780  0.0789  0.1615
22055W        W42335   1.827  12.816  12.051  0.3057  0.3584  0.2254
22056W        W42336  12.916  14.970  10.900  0.3616  0.0253 -0.0642
22057W        W42337   3.925  18.118  12.605  0.2759 -0.0540  0.0701
22058W        W42338  10.794  10.989   2.136 -0.0382 -0.1492  0.0485
22059W        W42339   3.405   9.173  12.445  0.0338  0.0289 -0.2985
22060W        W42340  17.324  10.765  10.843  0.0828  0.0583  0.0331
22061W        W42341  11.871   8.621   0.919 -0.0620 -0.0618 -0.1708
22062W        W42342   7.044   6.077  12.249  0.0541 -0.1437 -0.2473
22063W        W42343   4.104  18.594  10.854 -0.1486  0.2401 -0.2389
22064W        W42344  18.332   3.348  10.792 -0.3713  0.1123  0.2635
22065W        W42345   1.993   1.737  11.802 -0.1537 -0.0501 -0.1925
22066W        W42346   4.189  10.414   2.049  0.1704  0.1339 -0.3335
22067W        W42347  14.782   9.823   0.800 -0.0706  0.1958  0.0172
22068W        W42348  15.089   8.727  10.229 -0.0893  0.0016 -0.2717
22069W        W42349   4.776   4.567   4.399 -0.3562  0.2042 -0.1357
22070W        W42350   6.322  18.139   0.950  0.0154 -0.2684 -0.2091
22071W        W42351   2.526   9.727  12.368  0.4617 -0.2728  0.0844
22072W        W42352   8.554  14.912  10.812  0.0625  0.0227 -0.0624
22073W        W42353   2.857   8.653  13.697  0.2571  0.0866  0.0135
22074W        W42354   0.893   8.451   0.271 -0.2031  0.0289  0.0433
22075W        W42355  14.829  16.904   0.536 -0.1643 -0.1590 -0.0168
22076W        W42356   7.252  11.690  13.651 -0.2166 -0.0387 -0.0194
22077W        W42357   2.828  12.998  12.686 -0.0252  0.0434  0.1282
22078W        W42358  15.979  10.193  12.136  0.1747  0.2146 -0.0280
22079W        W42359   4.366  16.514   3.465 -0.1952 -0.0663 -0.2108
22080W        W42360   3.603   6.004  11.742  0.0173 -0.3298  0.0633
22081W        W42361  10.441  19.720   1.033  0.0344 -0.1182  0.0960
22082W        W42362  14.804  19.744  11.697  0.2109 -0.1518  0.1458
22083W        W42363  10.493  11.449   9.980 -0.1708  0.4027  0.2018
22084W        W42364   1.887   0.358  11.525 -0.0013 -0.0649 -0.1748
22085W        W42365  13.366  13.107  12.796 -0.1070 -0.1266 -0.0749
22086W        W42366  15.214  16.446  10.921  0.3334  0.3418  0.0057
22087W        W42367   3.938   8.491   0.741  0.0513 -0.2532 -0.3838
22088W        W42368   5.268  19.527   0.341  0.2582  0.2050  0.2548
22089W        W42369   4.305  18.524  13.484 -0.2526  0.1230  0.0815
22090W        W42370  15.366  17.379   3.700  0.1005  0.0344 -0.0565
22091W        W42371   7.454   8.087   1.003  0.0443 -0.4272  0.0095
22092W        W42372  18.746   7.602   1.245 -0.1070  0.1520 -0.1874
22093W        W42373  19.046   4.027  11.744  0.0957 -0.0431  0.0512
22094W        W42374   4.697  11.134   0.219 -0.0383  0.0277 -0.2970
22095W        W42375   4.570   1.238  12.411  0.1338  0.2502 -0.2885
22096W        W42376  15.730   9.426  12.974 -0.2945 -0.2381  0.3330
22097W        W42377   1.854   6.023   3.921  0.2766  0.1968  0.0717
22098W        W42378  19.662   7.561   1.904  0.0706 -0.3299  0.0402
22099W        W42379   0.373   4.842   3.951  0.0674 -0.0508 -0.2447
22100W        W42380   5.611   9.485   3.051  0.2120  0.2624 -0.3060
22101W        W42381   0.533  19.734  12.600 -0.3398 -0.0376  0.1604
22102W        W42382  15.845  14.865   0.265  0.0405  0.1159 -0.4241
22103W        W42383   5.782   9.290   3.501 -0.0475  0.2338 -0.3185
22104W        W42384   4.133  16.357  10.518 -0.2464 -0.0121 -0.0396
22105W        W42385  15.788  14.267   0.896 -0.0123  0.1042  0.1568
22106W        W42386   8.864   2.019   0.658  0.0926 -0.0117  0.1991
22107W        W42387  18.759   8.789  11.493 -0.0278 -0.1663  0.1559
22108W        W42388  17.931   2.385   1.827  0.0581 -0.0867  0.0018
22109W        W42389   0.783  19.436  12.928  0.1065  0.0082 -0.0671
22110W        W42390   2.103   8.936   1.264  0.1458 -0.1532 -0.2212
22111W        W42391  13.402   3.427   0.435 -0.1485  0.1475 -0.0162
22112W        W42392  17.775   4.287   1.848  0.0498  0.0538 -0.1576
22113W        W42393  19.402  13.803   3.182  0.4026 -0.1217 -0.2320
22114W        W42394  10.666   7.791   0.905  0.2293 -0.0757  0.0683
22115W        W42395  14.267   4.778  11.049  0.2755 -0.1066 -0.1584
22116W        W42396   8.696  14.005   3.929  0.1954 -0.1228  0.2154
22117W        W42397   3.676  11.766   2.938  0.0554  0.2279  0.2079
22118W        W42398  15.335   7.795   3.742  0.0066  0.2592  0.1563
22119W        W42399  11.224  12.072  12.915  0.2736  0.2888  0.2566
22120W        W42400  14.206  10.097  11.446 -0.0606 -0.2013 -0.2324
22121W        W42401  18.743  15.159   1.496 -0.1865 -0.1680 -0.3329
22122W        W42402  12.032   0.859   2.806  0.0633  0.0867  0.0066
22123W        W42403  11.030   9.027   1.496  0.3412 -0.0206  0.5303
22124W        W42404  17.953   1.196   3.788 -0.1233  0.4471  0.0567
22125W        W42405  19.784  10.339   9.651  0.3184 -0.1037  0.1381
22126W        W42406  16.168  14.848   0.874 -0.3813 -0.1629  0.2858
22127W        W42407   0.752   4.388   1.057  0.1436 -0.0981 -0.0575
22128W        W42408  13.363  14.522  12.988 -0.3632 -0.1048  0.0665
22129W        W42409   2.970   4.902  13.189  0.1267  0.2051  0.0786
22130W        W42410  11.769  10.418   0.268  0.0166 -0.0435  0.0702
22131W        W42411   0.530  10.034   2.887 -0.3900 -0.0784 -0.3174
22132W        W42412   2.965  13.959   1.153 -0.2173  0.1202 -0.2053
22133W        W42413   3.763   3.443   2.565  0.0836  0.1491 -0.0933
22134W        W42414   9.846   0.046  10.457 -0.2241  0.1208 -0.0185
22135W        W42415   4.228  17.105  11.071  0.2123 -0.1347 -0.0247
22136W        W42416   6.482   5.882   1.899  0.2141  0.0391  0.3678
22137W        W42417   2.852  18.011   1.819 -0.1933 -0.1217 -0.0029
22138W        W42418  17.507  12.062   0.171 -0.1408  0.1222  0.2766
22139W        W42419  14.437  15.631   2.023  0.0025 -0.0377  0.1900
22140W        W42420   7.874   2.040   0.164 -0.1012  0.1910 -0.0025
22141W        W42421  14.969  11.762   2.650 -0.1573 -0.2032 -0.2444
22142W        W42422  13.469   0.861   2.508  0.2542  0.0328 -0.1729
22143W        W42423   8.238  19.299  13.342  0.1161  0.2145  0.1276
22144W        W42424  12.464   0.332   0.949  0.0655 -0.0312  0.0551
22145W        W42425  12.095   8.029  12.940 -0.1225 -0.2390 -0.0177
22146W        W42426   3.939  13.105  12.902 -0.0128  0.0932  0.2664
22147W        W42427  12.370  12.142   3.828  0.0232  0.1277  0.2097
22148W        W42428   5.796  18.921   2.965 -0.1223 -0.4118 -0.1142
22149W        W42429  16.632   7.413   1.376 -0.2164  0.0236  0.1125
22150W        W42430   0.647   6.352  10.191 -0.1192  0.1118 -0.3627
22151W        W42431  12.693   9.993  10.109  0.1379 -0.3825  0.3960
22152W        W42432   6.447   1.362   1.503  0.2162 -0.3699  0.1128
22153W        W42433  13.205  14.518   3.624  0.0979  0.2313  0.1473
22154W        W42434  12.834   6.005  10.342  0.0627 -0.3806 -0.2129
22155W        W42435  14.753   6.698   2.306 -0.0957  0.2354  0.2353
22156W        W42436   0.463   0.691  13.069 -0.4909  0.1626  0.0087
22157W        W42437   8.990   6.457   0.494 -0.4565 -0.0521 -0.0457
22158W        W42438   7.321   3.464  10.398 -0.1380  0.1333 -0.1261
22159W        W42439  19.314  15.586   8.795 -0.1215  0.0114 -0.1803
22160W        W42440   4.865  10.591   2.864  0.1865 -0.4767 -0.2837
22161W        W42441  18.411  15.767   0.828  0.2508  0.0271 -0.2248
22162W        W42442  10.692   5.585  11.196 -0.1439 -0.0338  0.4060
22163W        W42443  15.800   0.216   3.511  0.0516 -0.1276  0.3684
22164W        W42444   7.977  17.362   0.208 -0.1852 -0.1244 -0.3469
22165W        W42445   0.231  10.180  13.430 -0.0477  0.0582 -0.2919
22166W        W42446   9.255  10.383   0.875 -0.1354  0.0167  0.1990
22167W        W42447   1.984   1.408   1.947  0.1281 -0.0732 -0.1396
22168W        W42448   1.666   8.174   2.930 -0.1096 -0.2287 -0.2878
22169W        W42449   1.728  14.773   3.689 -0.1382  0.0907  0.1900
22170W        W42450  13.021  15.881  12.895 -0.3013  0.0603  0.0358
22171W        W42451  12.148   5.976  12.601  0.0418  0.2742  0.0279
22172W        W42452  16.296   1.677  12.991  0.2494 -0.3469  0.0820
22173W        W42453   6.078  11.217  13.465  0.3433 -0.2034 -0.0691
22174W        W42454   6.676  12.783   0.123 -0.0916  0.3007  0.1430
22175W        W42455   5.948  18.117   1.721 -0.0044  0.4445 -0.4143
22176W        W42456   1.781  13.200   1.277 -0.0854 -0.3063 -0.2210
22177W        W42457  12.837   1.044  10.312 -0.1178 -0.1441  0.1428
22178W        W42458   5.109  13.519  12.933  0.0952  0.0305 -0.0264
22179W        W42459  14.699  18.123   0.096  0.2278 -0.0550 -0.2408
22180W        W42460  18.109  11.611   3.034  0.0172  0.2715  0.1804
22181W        W42461  10.499  16.829  10.760  0.1139  0.0372  0.3398
22182W        W42462  16.646   8.712   2.005 -0.1178 -0.0116  0.2740
22183W        W42463  14.026  13.881   2.921 -0.4804  0.1595  0.1973
22184W        W42464   4.998   2.600   1.226  0.2220  0.1096 -0.2337
22185W        W42465   2.649  19.158   4.320  0.0736  0.1295 -0.1736
22186W        W42466   9.993   2.122   0.896 -0.1495  0.1953 -0.1840
22187W        W42467  12.896   7.202  13.671 -0.3909 -0.1241  0.0212
22188W        W42468  16.743  18.068   0.317  0.0011 -0.2374  0.2306
22189W        W42469   4.738   6.674  10.211  0.3535 -0.1619  0.2130
22190W        W42470   8.336   2.633   0.221  0.2534  0.1207  0.0081
22191W        W42471   5.057   6.979   1.216  0.1615 -0.3670  0.1825
22192W        W42472   7.391  11.865   0.640  0.2041 -0.1396 -0.1294
22193W        W42473  14.006   9.720   3.466  0.0970  0.3748 -0.1976
22194W        W42474  13.910   3.121   1.139 -0.1105  0.0695  0.3134
22195W        W42475  14.245   0.355  10.477 -0.0497 -0.1401  0.2830
22196W        W42476  13.307   0.171   1.938  0.2304 -0.1325 -0.2696
22197W        W42477   9.188   1.858  13.209  0.0879  0.1539  0.3878
22198W        W42478  17.859  18.552  11.012  0.0000  0.2276  0.1528
22199W        W42479  13.272   0.567   3.993 -0.0846  0.0651  0.2399
22200W        W42480   1.140  13.745  12.976 -0.2302  0.2176  0.0295
22201W        W42481   3.308  11.991   1.505 -0.2339 -0.3521 -0.1748
22202W        W42482   6.990   2.076   0.622  0.2264  0.1868  0.0796
22203W        W42483   2.211  15.967  12.849 -0.1380  0.1387  0.0069
22204W        W42484   3.206   2.053  13.343  0.1136  0.1593 -0.4205
22205W        W42485  11.087  11.687  10.153 -0.1058 -0.1091  0.0885
22206W        W42486   6.745   0.942  12.836 -0.1764  0.1091 -0.4095
22207W        W42487   0.451   6.390   0.982 -0.1038  0.0804  0.1181
22208W        W42488   7.048   6.322   3.975  0.1765  0.1152  0.2380
22209W        W42489   2.130   5.040   1.385 -0.1785  0.0397 -0.0180
22210W        W42490   1.326   1.865   1.924  0.1066  0.2211  0.0210
22211W        W42491  19.148   4.795   2.606  0.1200  0.0889 -0.1269
22212W        W42492   3.968  18.460   4.728 -0.0790  0.0208 -0.1053
22213W        W42493  15.014  13.538   9.461  0.0838  0.2095  0.1821
22214W        W42494  11.107   1.696  11.672  0.0013  0.1683  0.0224
22215W        W42495  14.582  18.332  12.628 -0.4231  0.4689 -0.0704
22216W        W42496   7.069  12.777  13.677 -0.0500  0.0252  0.0603
22217W        W42497   6.792  14.771  12.892  0.0757  0.0553  0.0412
22218W        W42498  14.567   7.400   0.328 -0.3851 -0.0470  0.1496
22219W        W42499   1.218  10.068  13.262 -0.1099  0.0469 -0.1278
22220W        W42500   4.302   8.624   3.524  0.2325  0.2583 -0.0140
22221W        W42501   4.906  10.532  11.814 -0.0201 -0.0637  0.3312
22222W        W42502  15.584  17.339  12.177 -0.3455  0.2108  0.0084
22223W        W42503  14.483  18.823  11.430  0.1706  0.2721 -0.0905
22224W        W42504   9.194  15.834  12.702 -0.1411  0.2544  0.0460
22225W        W42505   1.778  13.898  13.768 -0.0725  0.0150  0.0909
22226W        W42506  17.763   6.635  12.017 -0.4159  0.0332  0.4557
22227W        W42507   1.855  19.508  12.036  0.0683  0.1676  0.0272
22228W        W42508   1.969  14.401   3.174 -0.2605  0.2629  0.0106
22229W        W42509  13.977  11.487  10.581  0.1226 -0.1548  0.0412
22230W        W42510   7.311   4.399  13.559  0.2813  0.0859 -0.0056
22231W        W42511   7.821  10.031   0.116  0.2007 -0.1509  0.0335
22232W        W42512  17.772  14.122   1.933 -0.1782 -0.0949  0.2325
22233W        W42513  19.690  11.186  13.409  0.1725  0.3089 -0.0009
22234W        W42514  16.782   1.824   0.980 -0.0884  0.1019 -0.1692
22235W        W42515   6.812  12.361  13.619  0.1511  0.0358  0.0707
22236W        W42516  10.193  14.850  11.222  0.1476  0.3219 -0.0127
22237W        W42517   8.579   2.569  13.174 -0.2047  0.0252  0.3703
22238W        W42518  17.949   9.488   3.058  0.2416  0.2709  0.2229
22239W        W42519  14.465  11.777   1.309 -0.3412 -0.0245 -0.1624
22240W        W42520   3.807  10.833   2.072 -0.2228 -0.0079 -0.5166
22241W        W42521   5.692   7.997   3.809 -0.1370  0.0884  0.0580
22242W        W42522   7.662   5.384   3.080  0.3714  0.0880 -0.3175
22243W        W42523  12.697   4.835   1.312  0.0976  0.1182  0.0237
22244W        W42524  12.392   5.785   2.881 -0.0930 -0.0900  0.1416
22245W        W42525   0.565   4.327  10.129  0.3763 -0.2888  0.0088
22246W        W42526  13.946   3.832   2.351  0.3217 -0.1045  0.2218
22247W        W42527  13.930  18.552  13.388 -0.0060  0.1263  0.1863
22248W        W42528  17.520  16.937   3.035 -0.0877  0.0783  0.4365
22249W        W42529  10.002   8.908   0.635 -0.2108 -0.0207  0.0148
22250W        W42530  11.466  14.432   1.553  0.1220  0.0626  0.0242
22251W        W42531  14.544  13.687   1.975 -0.1060  0.0253  0.0755
22252W        W42532  12.027  11.606  12.398 -0.0507 -0.2042 -0.0606
22253W        W42533   2.269   5.297  11.645  0.2249 -0.1980 -0.1808
22254W        W42534   3.398   4.883   3.543 -0.0793  0.1768 -0.1426
22255W        W42535  13.150   1.364  10.789  0.3566 -0.1745 -0.0372
22256W        W42536  12.471  18.804  12.086  0.0571  0.0755 -0.0171
22257W        W42537   7.761   3.564   1.648  0.3593 -0.1519 -0.2244
22258W        W42538   3.136   3.107   0.133 -0.0613 -0.2624  0.1021
22259W        W42539   2.371   2.271   2.418 -0.0052  0.1587  0.0659
22260W        W42540  14.223  15.675  13.859  0.0683 -0.1580  0.1340
22261W        W42541  14.858   4.693  11.834  0.0805  0.0284  0.1635
22262W        W42542   6.774  18.023   2.584  0.0718 -0.0747 -0.2623
22263W        W42543  16.927  12.506   0.305 -0.1031 -0.0080 -0.0014
22264W        W42544   7.855  14.027   9.843  0.1515 -0.0947  0.0201
22265W        W42545  16.868  19.628   4.943 -0.3721 -0.2512  0.0122
22266W        W42546  13.711   3.248   2.129  0.0394 -0.0748  0.2018
22267W        W42547  17.477   7.942   1.223 -0.4120 -0.2055 -0.0707
22268W        W42548  13.991  11.768   1.770 -0.2518  0.0201  0.0605
22269W        W42549   0.537  17.068   3.873  0.0944 -0.0635 -0.0569
22270W        W42550   6.667  17.474  11.752  0.1049 -0.0617 -0.0076
22271W        W42551   3.694  14.206   5.012 -0.0532  0.0627  0.0565
22272W        W42552  13.134   3.263  10.143  0.2496  0.0595 -0.0431
22273W        W42553   1.305   4.417  11.218 -0.1134  0.1797 -0.2325
22274W        W42554  19.366  15.798   9.729 -0.3189  0.2488  0.1936
22275W        W42555  12.750   2.821   2.777 -0.0805  0.2443  0.1043
22276W        W42556  12.706   5.226   1.902 -0.1015 -0.4433  0.0152
22277W        W42557  13.367  14.793  10.724 -0.1218  0.3009 -0.0349
22278W        W42558   1.537   4.308  10.751 -0.0446  0.0488  0.0952
22279W        W42559  14.827   9.764  11.781  0.0898  0.2227  0.0066
22280W        W42560  19.080  13.254  10.322 -0.0743  0.2115  0.1584
22281W        W42561   6.439   3.936   0.695 -0.0660 -0.0257 -0.0740
22282W        W42562  13.146  18.307   1.737  0.0462 -0.1489 -0.4189
22283W        W42563   5.910   8.531  13.708  0.0147 -0.1584  0.1448
22284W        W42564   0.447  14.702  10.965  0.1074 -0.0432 -0.2145
22285W        W42565   1.756   6.556   0.927 -0.3140  0.0715 -0.1332
22286W        W42566  19.768  10.557  10.584  0.1815  0.3331  0.1512
22287W        W42567   5.672  19.134  10.446 -0.0086  0.0053 -0.0799
22288W        W42568   6.830   5.601   3.927 -0.0562 -0.0920  0.1714
22289W        W42569  15.188   3.316  10.468  0.1163 -0.0934  0.0728
22290W        W42570   2.940  17.572   1.980 -0.0921  0.1932 -0.2948
22291W        W42571   3.236  10.461   3.124  0.0321 -0.1852  0.1822
22292W        W42572  10.230   0.230   1.922 -0.0411  0.1632 -0.1244
22293W        W42573  14.628  19.725   3.847  0.0190 -0.0577 -0.1654
22294W        W42574  16.822   8.767   1.421 -0.0806  0.0453  0.4193
22295W        W42575  15.447   2.329   4.228  0.1159  0.0536  0.3353
22296W        W42576   7.617  10.382   2.974  0.0407  0.0168  0.2371
22297W        W42577   3.171   0.021  13.662  0.0486  0.1071  0.1284
22298W        W42578  13.445  14.399   1.219 -0.1885  0.0544 -0.2996
22299W        W42579   7.410  16.686  11.326  0.1568 -0.1820 -0.1208
22300W        W42580  18.527   1.144   3.540 -0.3214 -0.0026 -0.2211
22301W        W42581   6.034  12.307   2.635  0.1374 -0.0642  0.0244
22302W        W42582  17.159   5.320   0.480  0.0845 -0.0174  0.3164
22303W        W42583   9.123   3.866  11.498 -0.1268 -0.0057 -0.0638
22304W        W42584  17.943   7.891   1.952  0.0009 -0.3710 -0.0613
22305W        W42585  11.681   2.683   0.008 -0.1958 -0.2447  0.1977
22306W        W42586  17.292   3.224  11.080 -0.1090 -0.1057  0.2070
22307W        W42587   5.003  16.621   4.809 -0.1049  0.0226  0.3964
22308W        W42588  17.387  10.302  13.225  0.1817 -0.1684  0.0364
22309W        W42589  12.704   2.407  12.915 -0.0401  0.1732 -0.1336
22310W        W42590   8.098   1.420  10.970 -0.0505  0.0056  0.3225
22311W        W42591  11.891  17.219   0.839  0.0806  0.0304 -0.3338
22312W        W42592  18.079   2.046  10.949 -0.1838 -0.1819 -0.2657
22313W        W42593  10.102  14.283  12.288  0.2598 -0.3624 -0.0639
22314W        W42594   3.630  15.847   0.233 -0.2103  0.1621 -0.1024
22315W        W42595  16.544  14.698  11.397  0.1732  0.4227 -0.1215
22316W        W42596   5.193   5.479   3.094 -0.1075  0.2494 -0.0972
22317W        W42597   5.274  10.108  10.912  0.2498  0.1855  0.0109
22318W        W42598   5.099  16.606   1.627 -0.1317 -0.1492 -0.2097
22319W        W42599  17.455  18.594  13.061 -0.0205 -0.0955 -0.2026
22320W        W42600  17.483  12.603  10.065  0.0030  0.0251  0.2513
22321W        W42601  15.959  16.463  13.070  0.3147 -0.1587  0.0921
22322W        W42602   4.368  17.384   2.276 -0.4177 -0.1089 -0.4746
22323W        W42603  10.223  15.824   2.102  0.4164  0.0302 -0.0524
22324W        W42604  18.703  18.473  13.584  0.0957 -0.0880 -0.0137
22325W        W42605  16.404   5.264   1.680 -0.1956 -0.2254  0.0095
22326W        W42606  12.226  11.233   4.298 -0.0429  0.0118 -0.1434
22327W        W42607   8.278  13.196  13.390 -0.2728 -0.1529  0.1196
22328W        W42608  13.820   5.115   3.485 -0.2699  0.0455 -0.1099
22329W        W42609   3.593   5.055   1.940 -0.0312  0.0292  0.2683
22330W        W42610   8.385  11.949  12.609  0.2381  0.2469  0.1681
22331W        W42611   6.716  17.333  10.720 -0.0342  0.0651  0.2171
22332W        W42612   5.736  11.088  11.840 -0.4701 -0.1772  0.2307
22333W        W42613  10.243  18.389   1.244 -0.0128  0.0367  0.2021
22334W        W42614  19.880  13.351   0.507 -0.2305  0.0802  0.1239
22335W        W42615  11.480   5.509   5.189  0.0866 -0.0194  0.3638
22336W        W42616   3.412   5.306   0.562 -0.3961 -0.0076  0.0068
22337W        W42617   9.356   0.768  12.122 -0.2662 -0.2620 -0.1645
22338W        W42618  11.713   7.461  11.511 -0.2443  0.0546  0.2178
22339W        W42619   5.582   0.366   3.373 -0.2040 -0.3799 -0.1482
22340W        W42620  19.722  19.812   3.067  0.2133 -0.1983 -0.0775
22341W        W42621   0.186   4.849  13.168 -0.0789  0.2034 -0.1114
22342W        W42622   6.099  13.520  10.380  0.0436 -0.2335  0.0343
22343W        W42623  10.850   7.927   2.141 -0.3433  0.2989 -0.1104
22344W        W42624   4.276   1.243   1.517 -0.0521 -0.1241  0.0112
22345W        W42625   6.286  15.398  12.534 -0.0357  0.0328 -0.1481
22346W        W42626  10.244   6.127   2.439 -0.1610  0.0719  0.4192
22347W        W42627   6.355  14.008   3.900 -0.0551 -0.1668 -0.0145
22348W        W42628  17.567  17.664   0.029  0.2640  0.1805  0.0464
22349W        W42629  14.711   1.070  13.156 -0.0846 -0.3229  0.0515
22350W        W42630   7.006  16.859  13.713 -0.0506  0.2976 -0.0448
22351W        W42631  12.907   5.731  11.817  0.1532 -0.0629 -0.3198
22352W        W42632  14.510   3.913  12.201 -0.4140 -0.1623 -0.2668
22353W        W42633   0.473   8.565  10.617  0.0335 -0.1754 -0.0421
22354W        W42634  12.618  18.641   3.958  0.0612  0.1086  0.2648
22355W        W42635   7.968   8.905  11.972  0.1777 -0.0674 -0.1002
22356W        W42636   5.232  19.610   4.484  0.1717 -0.2413 -0.1804
22357W        W42637  11.964  16.335   3.320 -0.0262 -0.1448  0.0142
22358W        W42638   3.671  17.818   0.450  0.1075 -0.0140 -0.0766
22359W        W42639  19.394  15.497   9.331  0.0342  0.2850 -0.0490
22360W        W42640  14.212  15.584  12.359 -0.3180  0.1641  0.0496
22361W        W42641  12.869  12.433  10.793  0.1533  0.3043 -0.0239
22362W        W42642   9.548   6.785   1.651 -0.2070 -0.1487  0.0941
22363W        W42643   2.469   4.110  10.765 -0.1227  0.1546 -0.1099
22364W        W42644  19.091   3.896   0.963 -0.1685 -0.2009  0.1222
22365W        W42645   2.576   3.424   1.337  0.2903 -0.0363  0.0182
22366W        W42646  13.636  19.176  12.754 -0.2765 -0.1204 -0.3835
22367W        W42647  12.631  15.576  12.155 -0.0076 -0.3044 -0.2470
22368W        W42648   4.354  16.314   0.913 -0.2259  0.1450  0.0677
22369W        W42649   6.920   2.306  12.984 -0.0193 -0.0997 -0.2916
22370W        W42650   3.906  19.955   3.731 -0.0395 -0.0795 -0.1209
22371W        W42651  19.924   1.818   1.179  0.0445 -0.1334 -0.1797
22372W        W42652   3.173  17.615   0.494  0.0327  0.2548  0.0915
22373W        W42653  17.836  12.088  11.204 -0.1217  0.0237 -0.1399
22374W        W42654  13.686   3.513   0.860  0.3589 -0.1520  0.2468
22375W        W42655  15.703  18.465  10.031  0.3523  0.1510 -0.3445
22376W        W42656   3.873   9.497   3.762 -0.0207 -0.0666  0.2921
22377W        W42657  15.025  13.621   0.655  0.0406 -0.1791 -0.0146
22378W        W42658   3.673   4.958   0.341  0.0474  0.1977 -0.0417
22379W        W42659  14.083   4.713   1.653  0.1108  0.0069  0.0821
22380W        W42660   4.308   1.168   2.769  0.0779 -0.0169 -0.3822
22381W        W42661  19.419   5.708   2.295  0.0819  0.1619 -0.1844
22382W        W42662   6.317   2.030  11.401 -0.0724  0.0100 -0.2162
22383W        W42663  17.428   8.528   0.106  0.1622  0.4039 -0.1054
22384W        W42664   1.963   2.028   1.967 -0.2283  0.1593 -0.2068
22385W        W42665  15.186   2.834  10.315  0.1738  0.1663  0.0396
22386W        W42666   3.708  10.618   1.605  0.0330  0.0431 -0.1716
22387W        W42667  14.076   2.619   2.411 -0.1092  0.2730  0.0013
22388W        W42668  11.694  11.656   3.099 -0.4620 -0.2482  0.0247
22389W        W42669  16.954  18.341   2.451  0.4317  0.1599  0.0094
22390W        W42670  18.121  12.084  10.685  0.3211 -0.1686 -0.1522
22391W        W42671   3.225   9.354  13.373  0.0740 -0.0079  0.5559
22392W        W42672   3.061  12.069   3.267 -0.1788 -0.1886  0.1170
22393W        W42673  13.657   2.985   0.209 -0.2618  0.0919  0.0111
22394W        W42674   8.128  13.238  12.374  0.0418 -0.2415 -0.1372
22395W        W42675  15.786   4.000  12.168  0.3336 -0.2785  0.2013
22396W        W42676  13.726   8.861   3.048  0.3326  0.2788 -0.0507
22397W        W42677  16.716  15.964  11.321 -0.2104  0.1893  0.1019
22398W        W42678   3.898   6.787   0.909  0.0301  0.2455 -0.0603
22399W        W42679  17.661   7.385  12.926 -0.0599  0.2095 -0.0127
22400W        W42680  10.361  11.625  11.596  0.2854  0.2086  0.1021
22401W        W42681  10.753   7.738   1.696 -0.4138 -0.0325 -0.0708
22402W        W42682   6.869   8.558  11.563  0.3898 -0.0480 -0.3102
22403W        W42683  11.156  13.303   1.137 -0.0127 -0.4294  0.0916
22404W        W42684  16.262  17.224   1.489  0.0193  0.0267  0.0268
22405W        W42685  11.631   4.861  12.477 -0.0142  0.1274  0.1522
22406W        W42686   0.119   3.281  10.262  0.2582  0.4278 -0.1038
22407W        W42687   8.494  12.936   1.134 -0.1739  0.2412  0.0028
22408W        W42688   1.753  12.574   3.719  0.3633  0.1716  0.1404
22409W        W42689  17.084   4.699   3.601  0.2224 -0.1653  0.1680
22410W        W42690  17.297  18.781   3.511  0.1050 -0.0879 -0.0399
22411W        W42691   1.170   2.947   3.671 -0.0941  0.1861  0.0188
22412W        W42692  14.624  15.185  11.767  0.0304  0.1232 -0.0991
22413W        W42693   0.847  11.133  10.372 -0.3246  0.3328 -0.1804
22414W        W42694  15.353   6.970   1.216 -0.2171 -0.0652 -0.2638
22415W        W42695   0.714   6.465  13.591  0.1606  0.0744 -0.3016
22416W        W42696   9.014   4.874   3.534  0.0867 -0.1314 -0.2827
22417W        W42697  19.171  14.196   0.953  0.1462  0.1296 -0.1243
22418W        W42698  10.877  13.274  13.465 -0.0096 -0.0985 -0.0421
22419W        W42699  17.954  18.382   0.628 -0.0368 -0.1346 -0.1159
22420W        W42700   9.904   8.993   0.081 -0.3056 -0.1467  0.3187
22421W        W42701  15.649  11.121   2.986 -0.2043  0.1585  0.2515
22422W        W42702   3.836  19.280   5.083 -0.1602  0.1858  0.0410
22423W        W42703   2.786  13.186   1.412  0.0414  0.2698  0.1532
22424W        W42704   0.342   0.291   3.291 -0.3668  0.2845  0.0094
22425W        W42705  14.995   1.496   3.970 -0.3943 -0.1041  0.0704
22426W        W42706   5.035  13.934   4.702 -0.0929 -0.2702 -0.0315
22427W        W42707   0.936   8.098   2.717 -0.2748 -0.3716 -0.0261
22428W        W42708  18.091   1.813   3.070 -0.0483  0.0867  0.1926
22429W        W42709   8.148  17.287   3.308 -0.3722 -0.0220  0.2176
22430W        W42710   5.662   3.486   4.609  0.1231 -0.4277  0.1872
22431W        W42711  14.689  17.166  13.113 -0.0744 -0.1447  0.0334
22432W        W42712   4.687  16.469  13.783  0.1691  0.3201 -0.2587
22433W        W42713   8.238  19.160  10.200 -0.0725  0.2582  0.1914
22434W        W42714  16.998   6.863  10.952 -0.0460 -0.0200  0.1103
22435W        W42715  15.919  13.217  13.569 -0.0165  0.0572 -0.1893
22436W        W42716  14.514  10.556   0.007  0.1346  0.0843 -0.1776
22437W        W42717   5.910  13.311   3.753  0.2063 -0.1229 -0.1198
22438W        W42718  17.318  15.407  10.778  0.2171 -0.2015  0.1215
22439W        W42719  15.095  19.720   3.014 -0.5153  0.0731  0.3037
22440W        W42720  17.763   4.749  12.738  0.2032 -0.0210  0.0840
22441W        W42721   3.355  14.854  13.503 -0.0152  0.0933 -0.0574
22442W        W42722  11.910  10.333  11.339 -0.1798  0.2631  0.1716
22443W        W42723  15.624   0.684  12.024  0.0009 -0.0249  0.1355
22444W        W42724  19.886   0.921  11.850  0.1606 -0.3449 -0.2020
22445W        W42725  15.636   6.047   2.643  0.1013  0.2449  0.0568
22446W        W42726   3.308   6.157   3.086  0.2580  0.2616  0.0868
22447W        W42727   6.970  19.516   0.060  0.2063 -0.0144  0.0591
22448W        W42728   0.977  10.527  13.132 -0.1302  0.2442 -0.2494
22449W        W42729  16.118   4.759   2.113  0.2768  0.1436 -0.0735
22450W        W42730  15.579  13.375   2.749  0.0486 -0.0273  0.0621
22451W        W42731  12.533  10.673  13.538 -0.1186 -0.0827  0.2277
22452W        W42732  17.828   2.007   8.873  0.1451 -0.0626  0.0937
22453W        W42733   0.543  17.029   0.878 -0.0635  0.1099 -0.0932
22454W        W42734   7.706  10.587  12.801 -0.3550  0.1391 -0.0112
22455W        W42735  12.083  16.710  13.687  0.0473  0.0977  0.2982
22456W        W42736   1.051  10.984   1.562 -0.1699 -0.2675 -0.1665
22457W        W42737   3.170   2.801  12.291 -0.3968 -0.1458  0.1234
22458W        W42738   8.686  13.608  10.407 -0.3159 -0.0830 -0.0132
22459W        W42739  19.630  17.266   3.070 -0.0359 -0.1452 -0.1914
22460W        W42740   9.271   7.959  12.590 -0.0567 -0.1301  0.6196
22461W        W42741  18.798  11.943   3.402 -0.0300 -0.0731  0.0091
22462W        W42742  16.985   6.847  12.540 -0.2847 -0.1513 -0.1686
22463W        W42743  10.532  18.924  10.807 -0.0072 -0.1548  0.0557
22464W        W42744   8.016  13.253   3.812 -0.0046 -0.0366  0.0998
22465W        W42745  17.126   7.481   1.040 -0.1597  0.0050 -0.1906
22466W        W42746   1.518   2.218   2.194 -0.1149  0.3681  0.2772
22467W        W42747  11.346  16.348   1.448 -0.0330  0.1093 -0.1463
22468W        W42748  11.566   3.252  13.827  0.1898 -0.1057  0.3772
22469W        W42749  14.992  18.055   0.966  0.0097 -0.1207  0.1540
22470W        W42750   7.030   8.071  11.325  0.0768 -0.1283  0.1699
22471W        W42751  16.836  13.387   3.299  0.0358 -0.0669  0.3252
22472W        W42752  18.089   6.307   0.069 -0.2310  0.0082 -0.1029
22473W        W42753   5.543  14.706  13.581  0.0498  0.0376 -0.1450
22474W        W42754  10.559   5.007   1.204  0.2149  0.1089 -0.2699
22475W        W42755   1.148  19.262   0.580 -0.0527  0.0113  0.0164
22476W        W42756  16.003  13.491   9.709 -0.1988  0.2659  0.3619
22477W        W42757  11.009  17.667  13.190  0.4527  0.0610 -0.1676
22478W        W42758  15.392  11.286   3.500 -0.2113 -0.0781  0.2048
22479W        W42759   5.533  19.512   1.670  0.2819  0.0900  0.0744
22480W        W42760   1.917   1.200   3.712 -0.2138  0.1275  0.1868
22481W        W42761   6.204  15.708  13.811 -0.1900 -0.2603 -0.0781
22482W        W42762  18.616   5.281   8.915 -0.1662 -0.0057  0.1802
22483W        W42763  15.734   5.823   3.412 -0.0205  0.2057  0.1051
22484W        W42764   8.248   4.189   0.961  0.1309  0.1499 -0.2052
22485W        W42765  17.424  10.453  10.008  0.0670  0.0086 -0.0683
22486W        W42766  12.884   4.532  10.415 -0.1778 -0.1017  0.2947
22487W        W42767   7.092   0.931   2.198 -0.1181  0.2080  0.2715
22488W        W42768  17.232  10.794  13.387  0.0033  0.1173 -0.2608
22489W        W42769  17.462   4.711  12.218  0.0465  0.1367 -0.4514
22490W        W42770   5.127   5.969  10.776 -0.0137 -0.0627 -0.1574
22491W        W42771   7.706   5.191  13.609  0.0207  0.2305  0.5190
22492W        W42772   8.714   9.964  13.742 -0.1230  0.0786 -0.2439
22493W        W42773   8.853  17.242   1.335  0.0099 -0.0968  0.0594
22494W        W42774   3.945  18.517  13.107  0.1954  0.2975 -0.2626
22495W        W42775   2.422   9.270  13.218 -0.1256  0.1440  0.1216
22496W        W42776  10.889  19.652   1.231 -0.1842  0.1121  0.1670
22497W        W42777  18.843  18.560   3.643  0.2825 -0.1591  0.0722
22498W        W42778  15.535  12.777   2.256  0.0910  0.0976  0.0453
22499W        W42779  11.496   0.663   2.104  0.1678 -0.0800  0.0035
22500W        W42780  17.544   8.354   2.993  0.0757 -0.3435 -0.0466
22501W        W42781   5.451  14.279  12.363 -0.3876  0.1262 -0.1093
22502W        W42782   1.991  19.491  12.969 -0.2765  0.3485  0.2876
22503W        W42783   9.412   1.038  13.130  0.0270 -0.0641 -0.3517
22504W        W42784  15.024   2.552  11.832 -0.4800  0.3931 -0.2429
22505W        W42785   8.434  18.886   4.179  0.3429  0.1113 -0.0845
22506W        W42786  17.056  14.058   0.197  0.0633  0.1717 -0.1928
22507W        W42787   3.385   0.200  10.912 -0.1913 -0.4229 -0.3337
22508W        W42788   4.181   3.639  11.545 -0.0971  0.2895 -0.1347
22509W        W42789  13.929  14.127  10.356  0.3256  0.1096  0.3587
22510W        W42790  16.971  11.980   8.890  0.0821 -0.1923  0.2772
22511W        W42791  10.527  18.099  13.769 -0.0105 -0.4253 -0.0605
22512W        W42792   5.790   7.961  10.049 -0.0447 -0.0132  0.1437
22513W        W42793  18.764  16.981  13.816 -0.0832 -0.1391 -0.0470
22514W        W42794   1.520   7.775   1.966  0.2454 -0.1317 -0.4322
22515W        W42795  18.353   5.181   1.627  0.2587 -0.2705 -0.0983
22516W        W42796   5.264  10.203   1.852 -0.0441  0.2180 -0.0318
22517W        W42797  14.811   9.923  12.897  0.2145  0.0315 -0.3583
22518W        W42798   2.857   6.597   3.908 -0.0209 -0.0489 -0.0834
22519W        W42799  18.430   0.587   9.138 -0.1136 -0.1522 -0.2508
22520W        W42800   6.693  18.441   1.129 -0.0236 -0.2606 -0.1159
22521W        W42801  14.230  18.744   3.669 -0.1736 -0.1880  0.0343
22522W        W42802  14.821   8.649  11.577 -0.2873  0.1635  0.0371
22523W        W42803  13.935  12.201   2.187 -0.0601 -0.0865  0.1895
22524W        W42804   5.385   9.965  13.095  0.0407 -0.2082 -0.0059
22525W        W42805  14.977   7.045  12.322  0.3687 -0.2655  0.2565
22526W        W42806   5.922  10.931   0.018  0.2337  0.1985  0.0039
22527W        W42807   6.343   7.483   0.271  0.1936 -0.0420  0.2312
22528W        W42808   7.323   0.445   3.008  0.0770  0.1047  0.1305
22529W        W42809   5.031  17.000  10.582 -0.0464  0.2201 -0.0141
22530W        W42810  12.958   0.924  11.572  0.0998 -0.0230  0.1913
22531W        W42811  16.318  13.127   1.797  0.0690  0.2568 -0.1558
22532W        W42812  13.139  10.778  10.865 -0.0937  0.2633 -0.0659
22533W        W42813   6.143   3.483   4.333 -0.1917 -0.0829 -0.2178
22534W        W42814   4.991   9.452   2.237  0.1354  0.2646  0.1111
22535W        W42815   5.043   5.173  10.195  0.5998  0.1205 -0.2328
22536W        W42816  13.098   2.542  12.615 -0.1921  0.1068 -0.1541
22537W        W42817   6.833   0.362  10.332 -0.0315 -0.3204 -0.0059
22538W        W42818  18.975   4.123  13.759 -0.0515  0.0852 -0.2187
22539W        W42819  10.688   3.381   1.968  0.1261  0.0377 -0.1723
22540W        W42820   4.394   1.751  11.310 -0.2906 -0.2982  0.3118
22541W        W42821  13.208   4.800   0.179  0.1425  0.0756  0.2631
22542W        W42822   3.562   2.635  11.870 -0.2804  0.0022  0.0367
22543W        W42823   8.126   1.199  13.632  0.2342 -0.0218  0.2970
22544W        W42824   7.910   7.894  11.915 -0.0907  0.1243  0.0533
22545W        W42825   3.507  15.043   3.887  0.1025  0.3815 -0.0604
22546W        W42826  18.977   3.317  10.373 -0.0088  0.0648  0.0730
22547W        W42827  15.113  10.993   0.249 -0.1366  0.1221 -0.0424
22548W        W42828  19.097   8.006   3.437  0.2575  0.1574 -0.1505
22549W        W42829  10.696  11.834  10.519 -0.1151 -0.0452 -0.1304
22550W        W42830   5.037   3.532   0.903  0.3484 -0.0024  0.0127
22551W        W42831   3.958  10.094  13.620 -0.0485 -0.1080  0.1550
22552W        W42832   6.329   1.251   0.398  0.0440  0.1204 -0.2107
22553W        W42833   3.597  17.540   5.039 -0.1912 -0.0440  0.0348
22554W        W42834  14.789   9.433  13.226  0.0833  0.2122 -0.1780
22555W        W42835  15.776  18.528  13.542  0.0466  0.0331 -0.0623
22556W        W42836   1.594  12.787   2.206  0.1358 -0.1439  0.1857
22557W        W42837  14.974  19.224  11.665 -0.1821 -0.1122  0.2668
22558W        W42838  18.890   4.417   0.788 -0.1664 -0.0294 -0.0473
22559W        W42839  11.925   8.568   1.416 -0.1583 -0.1835 -0.0027
22560W        W42840  10.972   6.491  13.212  0.0839  0.0227  0.1601
22561W        W42841   5.132   0.012  13.013 -0.0476 -0.1714 -0.0674
22562W        W42842  10.519   7.694  13.792 -0.0187 -0.2905  0.2688
22563W        W42843   5.235  17.101   1.697 -0.0367  0.2747 -0.1385
22564W        W42844   6.654   6.354   0.927  0.1832 -0.1210 -0.2297
22565W        W42845   7.843  17.333   1.460  0.1859 -0.0997  0.1504
22566W        W42846   4.406  18.292   1.334 -0.0526  0.1599 -0.3480
22567W        W42847  17.692  14.186  11.700  0.1550 -0.2791 -0.0741
22568W        W42848  18.120  13.891   2.779  0.0036 -0.0310 -0.3085
22569W        W42849  13.254   4.448  11.721 -0.1007 -0.1526  0.1462
22570W        W42850  14.762  10.275   1.717 -0.0695 -0.3548 -0.1092
22571W        W42851  12.773  17.118  11.082  0.3268  0.1074 -0.2580
22572W        W42852   3.730  15.092  10.848  0.1191 -0.1120 -0.3914
22573W        W42853   9.525   4.673   0.950 -0.3057 -0.1418 -0.0158
22574W        W42854  13.161  19.680   1.882  0.0089  0.1809  0.0066
22575W        W42855  13.329  13.445   1.485 -0.1493 -0.0864  0.0893
22576W        W42856   2.413   0.005   2.316 -0.2695  0.1609 -0.0661
22577W        W42857   4.505   2.889   2.807 -0.0698 -0.3154 -0.1588
22578W        W42858  16.216   9.195  13.020  0.0112  0.1086 -0.2968
22579W        W42859   2.757   0.104   0.524  0.0318 -0.2248  0.1222
22580W        W42860  15.174   8.094   0.447 -0.0357 -0.1409 -0.1363
22581W        W42861   5.567   9.751  11.825  0.1609 -0.2031  0.0493
22582W        W42862   6.281  13.437   1.176  0.3564  0.2129 -0.2205
22583W        W42863  15.113   6.909   2.646 -0.0817  0.3498 -0.2073
22584W        W42864  13.831  16.017   0.199  0.2263  0.1636 -0.0385
22585W        W42865   0.627  10.827   3.514 -0.0673  0.0482  0.0923
22586W        W42866  17.999   4.961  13.127 -0.1473  0.2384 -0.1187
22587W        W42867   3.082   8.693   1.176 -0.1848 -0.0006 -0.1024
22588W        W42868  12.745   3.584  13.814  0.3588 -0.0895  0.1339
22589W        W42869  15.592   9.692  12.523 -0.0502 -0.0731  0.2335
22590W        W42870  12.372   7.719   1.102  0.0002  0.2819  0.2291
22591W        W42871   2.677  18.253  13.813  0.1591 -0.1502  0.2548
22592W        W42872  16.982  13.900   3.156  0.0180 -0.3658 -0.0265
22593W        W42873   4.453  19.298   1.464  0.0950  0.0164 -0.3376
22594W        W42874  12.286  10.413  11.633  0.0337  0.3387 -0.1731
22595W        W42875   2.499   5.353  13.757  0.2040 -0.0844 -0.0376
22596W        W42876   4.739   1.892   9.424  0.0295  0.2266  0.0091
22597W        W42877  17.395  17.251   0.206  0.0397  0.0723  0.2247
22598W        W42878   0.145   4.275  11.950  0.2229  0.1193  0.0197
22599W        W42879   8.538  15.549   3.152  0.2714  0.1185  0.1403
22600W        W42880   8.699  12.234  10.669 -0.1734  0.0399 -0.0635
22601W        W42881   6.132   5.755   2.571 -0.0874  0.2042  0.5717
22602W        W42882   2.885   0.454  12.752 -0.1329 -0.2680 -0.2346
22603W        W42883   9.331  10.671   2.700 -0.0162  0.1635  0.0357
22604W        W42884   6.450   7.195   1.251  0.3362 -0.1366  0.0355
22605W        W42885   8.381  11.942   1.083 -0.0809 -0.1551 -0.1958
22606W        W42886  12.520  17.947  11.663  0.0591  0.1065 -0.3552
22607W        W42887  11.018   3.273   1.092 -0.4575  0.0104 -0.0580
22608W        W42888   1.041  12.345   3.264  0.1349  0.2095 -0.0473
22609W        W42889  18.972  15.510   9.594  0.3275 -0.0994  0.0379
22610W        W42890   6.496   6.563   0.501  0.2089  0.0431 -0.0774
22611W        W42891   1.194  12.641   2.008 -0.0747 -0.4359  0.1283
22612W        W42892   4.377  11.596   2.131  0.0468 -0.0995 -0.1661
22613W        W42893  15.966  10.955  13.164  0.0366  0.1979 -0.0317
22614W        W42894   1.895   1.383  11.501 -0.1613 -0.2767 -0.1685
22615W        W42895  10.842  19.924   3.315  0.3607 -0.0284  0.3245
22616W        W42896  10.231  11.009   2.527 -0.0688 -0.0135  0.0197
22617W        W42897  15.822  12.280   3.126 -0.3548 -0.1604 -0.0785
22618W        W42898   5.308  11.575   2.525 -0.0040  0.1513 -0.1607
22619W        W42899  13.549   7.525  11.158  0.4972 -0.0161 -0.0814
22620W        W42900  16.089  11.445   1.809 -0.0301  0.1207 -0.4607
22621W        W42901  19.229   8.795  13.043  0.3312 -0.0581 -0.2870
22622W        W42902  10.735   0.617  13.057  0.0746 -0.3313 -0.0413
22623W        W42903   2.642  18.902   1.366  0.1735  0.1457  0.0709
22624W        W42904   4.807   2.019   2.000 -0.1130 -0.1262 -0.4457
22625W        W42905   8.953   4.950  13.053 -0.0758  0.1135  0.3642
22626W        W42906   1.547   9.215  10.077 -0.3976  0.2668  0.1115
22627W        W42907  18.328  11.792  13.558  0.1823 -0.0684 -0.3485
22628W        W42908   6.756   5.432  11.940  0.0255  0.3059  0.0086
22629W        W42909   7.673   8.732   0.216  0.1967  0.1070  0.1475
22630W        W42910   0.388   0.587  11.092 -0.0202  0.1651  0.2261
22631W        W42911   4.344  18.478  12.567 -0.4810  0.1126  0.0421
22632W        W42912  17.947   2.020   1.078  0.2069 -0.0506  0.1517
22633W        W42913   3.907   7.093   1.797  0.1350  0.1234  0.1531
22634W        W42914   6.758   3.228  11.770  0.1904  0.0059  0.1032
22635W        W42915  13.701  16.802  10.209  0.0728 -0.0449  0.0689
22636W        W42916   0.250  10.771  10.253 -0.1839 -0.1844  0.0752
22637W        W42917   3.923   3.976  11.895  0.1507  0.1778 -0.0837
22638W        W42918   6.182  16.958   1.914  0.1059  0.0333  0.3472
22639W        W42919   6.669   7.685  10.599 -0.2197  0.0294 -0.1886
22640W        W42920   6.544   7.009  12.846  0.2130 -0.2968 -0.2777
22641W        W42921   4.861  12.926   2.422  0.3050  0.0053  0.1211
22642W        W42922   0.619   5.973  12.007  0.1777  0.1070 -0.2488
22643W        W42923   3.012  14.582   1.819  0.2646  0.0703  0.1979
22644W        W42924   3.118   2.996   4.485 -0.3220  0.0452 -0.1544
22645W        W42925   0.554   1.033   3.456  0.0906  0.2069  0.0878
22646W        W42926   2.466  15.229   0.884  0.0508  0.2798 -0.0230
22647W        W42927   7.850  11.155  10.922 -0.0349 -0.0369 -0.1242
22648W        W42928   7.427   2.024   2.993 -0.2332 -0.1094  0.1633
22649W        W42929   9.219   4.895  12.218 -0.0440  0.0466 -0.0292
22650W        W42930  16.410   0.165  11.668 -0.1718  0.0508 -0.0219
22651W        W42931   5.137   6.013  12.981  0.4756 -0.1475 -0.1216
22652W        W42932   2.488  14.284   0.427  0.1015  0.1118 -0.1446
22653W        W42933   3.921  13.595   2.040  0.2436 -0.0423  0.1229
22654W        W42934  18.786  16.834  10.840  0.0383  0.1838  0.0589
22655W        W42935   4.103   0.685   0.825 -0.0711 -0.1014 -0.0798
22656W        W42936   9.171  14.247   4.014  0.0599  0.3126  0.0910
22657W        W42937   9.978   3.658   9.429  0.1648  0.1462 -0.3215
22658W        W42938   6.029   5.563  10.324  0.0252  0.4496 -0.1159
22659W        W42939  18.348  16.642  10.721 -0.2104  0.1920  0.1322
22660W        W42940   6.067  13.423  12.324  0.1110 -0.0942  0.1249
22661W        W42941  15.663   4.956   3.602 -0.0427  0.0507 -0.1498
22662W        W42942   3.579  17.578  10.933  0.0183 -0.0165  0.1612
22663W        W42943   2.174  17.282  12.766 -0.2577  0.1661  0.5088
22664W        W42944   0.441  11.351   3.448 -0.1381  0.2932 -0.1805
22665W        W42945  10.109   0.816  11.389 -0.2045 -0.2065  0.3082
22666W        W42946   3.896  10.940  13.342 -0.3327 -0.3917 -0.3255
22667W        W42947  10.437  12.400  11.736  0.3293  0.3628  0.0674
22668W        W42948   6.306  11.082   1.021  0.1763  0.0969  0.1481
22669W        W42949  12.571   4.769  11.679 -0.0574 -0.2306  0.1900
22670W        W42950  18.680  10.418   1.835 -0.0004  0.0209 -0.4624
22671W        W42951   0.046   0.804  13.401  0.1065  0.0331  0.1216
22672W        W42952  13.713   1.119  10.075  0.1906  0.2397  0.3121
22673W        W42953  11.243   6.276   2.782  0.2585 -0.0969 -0.2991
22674W        W42954   4.441  12.286  11.653 -0.1062 -0.2360  0.1552
22675W        W42955   8.326   1.701   1.147  0.2985  0.1861  0.0072
22676W        W42956   4.180   3.449  12.168  0.0621  0.3701  0.2411
22677W        W42957  10.297  15.017   1.838 -0.1962 -0.1594 -0.1918
22678W        W42958   5.841   1.267   0.342  0.0819  0.2923  0.1130
22679W        W42959   8.919  17.274  12.771 -0.0308 -0.0955 -0.3021
22680W        W42960  10.280   9.317   3.625  0.0989 -0.0248 -0.0193
22681W        W42961   5.181   0.947   0.689  0.0068 -0.2475  0.2964
22682W        W42962  19.773  11.131  10.387  0.1311  0.2644  0.2377
22683W        W42963   6.238   3.139   0.756 -0.0870 -0.2558  0.0346
22684W        W42964   7.236  18.000  12.029 -0.2947  0.2025 -0.4209
22685W        W42965   7.081   2.535   0.758  0.3321  0.1940  0.1515
22686W        W42966  11.177  10.535   9.494  0.2744  0.1248 -0.1261
22687W        W42967   6.054   9.665  11.837  0.1644 -0.0364  0.4710
22688W        W42968   3.834   3.895   9.549  0.1894  0.3085 -0.0647
22689W        W42969  18.757   2.679   2.346 -0.0698  0.2603 -0.0882
22690W        W42970   4.647   4.044  13.300  0.3599  0.0832 -0.0271
22691W        W42971   7.268  19.842   1.967 -0.1136  0.1028 -0.1975
22692W        W42972  17.142   2.016   1.265 -0.1612  0.1502  0.1561
22693W        W42973   3.967  17.640  13.448  0.0343  0.4220 -0.1054
22694W        W42974   5.484   7.984  13.347  0.1449 -0.1489 -0.1134
22695W        W42975   0.533  15.546   0.945  0.3862 -0.2097  0.1758
22696W        W42976   1.872  11.305   2.983  0.1205  0.1217 -0.0248
22697W        W42977  10.955   8.512  12.764  0.0905 -0.1313  0.3074
22698W        W42978   6.948  19.566  10.337  0.1509  0.1067 -0.0428
22699W        W42979   8.239  18.716  13.285  0.1259  0.2130  0.4291
22700W        W42980  12.764   9.852   2.597  0.0515  0.0787  0.1470
22701W        W42981   1.282   4.739   2.779 -0.0322  0.0327  0.0385
22702W        W42982  13.243  16.910  12.254  0.0535  0.0467 -0.0736
22703W        W42983   9.353  14.702  11.175  0.0038 -0.2467  0.3167
22704W        W42984  16.055   8.799  10.853  0.0570 -0.1218 -0.1197
22705W        W42985  18.758  16.767   3.893 -0.2201 -0.4968 -0.0136
22706W        W42986  19.232  11.449  12.604  0.2703  0.0327 -0.0952
22707W        W42987  17.443  16.224  10.490 -0.0034  0.3182 -0.3113
22708W        W42988   9.292   7.261   4.050  0.0048 -0.0454  0.3309
22709W        W42989   2.019  15.065   0.739  0.1850  0.0218 -0.3179
22710W        W42990   7.739  16.084   3.584 -0.1847 -0.1247 -0.1626
22711W        W42991   7.963  18.390   0.377  0.1342 -0.0800  0.0967
22712W        W42992  17.416   6.347   1.398  0.2892  0.0956  0.2391
22713W        W42993  12.021   5.134  13.555 -0.1016 -0.0788 -0.3747
22714W        W42994  19.118   2.235   0.017 -0.0378  0.1291  0.2613
22715W        W42995   7.238  10.625   0.691  0.3801  0.1885 -0.0769
22716W        W42996  17.951  18.816   0.946 -0.1290  0.1966  0.1115
22717W        W42997   9.770   6.933   2.703  0.2235 -0.1244  0.0370
22718W        W42998  12.518  12.211  12.103  0.0295  0.2575  0.2680
22719W        W42999  10.364   3.714   0.010  0.0219  0.1497 -0.0411
22720W        W43000   1.276   1.975  13.089  0.1932 -0.2597  0.3101
22721W        W43001   6.220  15.765   0.950 -0.0440  0.0674  0.0352
22722W        W43002   4.293  13.522   2.361  0.1575  0.0569  0.1000
22723W        W43003  15.331   8.125  12.530  0.0989  0.1504  0.0929
22724W        W43004   0.274   7.682  11.261  0.0729 -0.3354 -0.0350
22725W        W43005   4.689  16.822  12.226 -0.2317 -0.0528 -0.1137
22726W        W43006   8.194  15.222  13.825  0.3488  0.1045  0.0383
22727W        W43007   7.846  15.727  13.557 -0.1032 -0.1117 -0.0945
22728W        W43008   3.108  13.534  10.649  0.0086  0.1228  0.3062
22729W        W43009   8.342   5.707  12.706 -0.1866  0.0058  0.1930
22730W        W43010  13.045  17.961  11.044 -0.2561  0.0140 -0.0796
22731W        W43011  16.429  18.113  10.084  0.0704 -0.1120 -0.1702
22732W        W43012  12.515  14.735   0.617  0.3623  0.3128  0.3583
22733W        W43013   2.191   0.769   0.564  0.3775  0.1206  0.0591
22734W        W43014   0.928  11.914  11.040 -0.1922  0.2011 -0.0676
22735W        W43015   9.111  19.741   0.466  0.2005  0.2315 -0.2711
22736W        W43016   6.396  14.454  12.792 -0.1222 -0.0253 -0.0030
22737W        W43017  15.342   7.057  13.561 -0.0936  0.0165  0.2861
22738W        W43018   5.986  19.500  10.694  0.2256 -0.0317  0.0309
22739W        W43019   6.079  15.310  11.023 -0.2284 -0.0310  0.2938
22740W        W43020  13.766  18.398   9.372  0.0991  0.0066  0.4040
22741W        W43021  10.901  15.980   2.702  0.1428 -0.0026  0.1756
22742W        W43022   7.694   4.409   9.960  0.0422  0.2788  0.2670
22743W        W43023  19.801  15.768   3.638  0.0563 -0.3496  0.0833
22744W        W43024   8.856   8.130   1.175  0.0368 -0.2222 -0.0850
22745W        W43025   7.810   2.838   0.661 -0.0404  0.1738 -0.0240
22746W        W43026  15.224   7.812  13.242  0.0560  0.1497 -0.1684
22747W        W43027   2.501   6.734   9.398 -0.2041  0.0769 -0.1985
22748W        W43028   8.474   4.906   2.129  0.0839  0.3163  0.0892
22749W        W43029   7.505   9.940  10.734  0.0021 -0.3571 -0.3530
22750W        W43030   0.624  12.294   2.664  0.0591 -0.0569  0.3783
22751W        W43031   5.735   8.303   0.854  0.1869  0.0286  0.2934
22752W        W43032   3.543   9.073   3.639 -0.0255  0.3089 -0.0542
22753W        W43033  18.017  15.119  12.474 -0.1523  0.0695  0.1094
22754W        W43034  19.525   1.669   2.086  0.2329 -0.0561 -0.0713
22755W        W43035   5.801   1.721  10.816  0.0094  0.1440 -0.0239
22756W        W43036  13.475   1.345   2.346  0.1810 -0.2017  0.2008
22757W        W43037  18.546   2.882  10.387 -0.0574  0.1819 -0.2115
22758W        W43038   2.889  18.616   0.887  0.0511 -0.1434 -0.0191
22759W        W43039  19.865  17.916  11.810  0.1790  0.1133 -0.0217
22760W        W43040   1.983  14.618   0.341 -0.0050  0.0950 -0.1150
22761W        W43041   3.293  15.064  12.967 -0.3184 -0.1797  0.0038
22762W        W43042   8.768  15.406  12.172 -0.3391  0.0754 -0.0755
22763W        W43043  16.353  15.214  10.595  0.1837  0.0468  0.1762
22764W        W43044   3.074   9.116  12.907  0.1849  0.3125  0.1166
22765W        W43045   1.442  19.403  13.850 -0.2808  0.1921  0.0567
22766W        W43046  15.884   5.346   3.322 -0.1810 -0.2098 -0.0758
22767W        W43047  19.071  10.662   2.271  0.3138  0.1537 -0.0686
22768W        W43048   5.311   6.007   1.967 -0.1293  0.1320  0.4553
22769W        W43049   0.800   2.009  12.876  0.1328 -0.3549 -0.0193
22770W        W43050   5.573  16.424   2.205  0.1704 -0.1891 -0.0167
22771W        W43051   1.366  15.563  12.754 -0.2146  0.0396  0.4162
22772W        W43052   1.202   0.465   1.828 -0.0937 -0.1844 -0.0176
22773W        W43053  16.811  15.270   1.245  0.2020 -0.3450  0.0043
22774W        W43054  17.795   3.943  11.846 -0.0219 -0.0786 -0.2075
22775W        W43055  12.170   8.511  10.902  0.1700  0.1969 -0.0619
22776W        W43056   7.528   9.786   1.685  0.0993 -0.1041  0.1411
22777W        W43057  17.298   6.635   0.164 -0.1023  0.0110 -0.1977
22778W        W43058   0.018  19.480  13.497  0.3739 -0.0991  0.3458
22779W        W43059   2.969  12.333   1.334 -0.2200  0.1746 -0.1891
22780W        W43060  19.111  16.993  11.180  0.1590  0.3072 -0.0579
22781W        W43061  16.532  10.562   2.086  0.0379  0.2435  0.2403
22782W        W43062  11.273  14.702  13.634  0.0368  0.4027 -0.1026
22783W        W43063   1.976   0.679   3.959  0.4186 -0.1637  0.2933
22784W        W43064   2.274  13.780   2.941  0.0660 -0.0377  0.0797
22785W        W43065   1.509  14.981  11.863 -0.2092 -0.3484 -0.5697
22786W        W43066   1.488  10.948  10.502 -0.2211 -0.4380 -0.1626
22787W        W43067  14.122  17.936   0.505  0.1720 -0.2838 -0.2176
22788W        W43068   2.747   4.875   2.042 -0.2517  0.2102  0.0033
22789W        W43069   6.943  14.280  10.817  0.3272  0.1799  0.0864
22790W        W43070  15.158  11.241   0.690  0.0840 -0.0864  0.0688
22791W        W43071  15.760  14.388  11.080 -0.2811  0.2390 -0.0008
22792W        W43072   2.194  19.418   1.488  0.1611 -0.2712 -0.3215
22793W        W43073  17.235  19.737   1.893  0.3825  0.2279  0.0252
22794W        W43074   7.331   5.305   3.881  0.0882  0.0430  0.4500
22795W        W43075  16.754  17.669  11.899  0.0195  0.1492  0.3106
22796W        W43076   8.687  13.280  13.706 -0.3163 -0.3558 -0.1225
22797W        W43077   2.578   4.241   2.418 -0.1744  0.1070  0.1095
22798W        W43078  17.910  15.266   2.514 -0.0753  0.3353  0.5283
22799W        W43079   6.149  11.326  11.603  0.0479  0.2446  0.0973
22800W        W43080  11.664   9.823   0.815 -0.0086 -0.1199 -0.2654
22801W        W43081  13.034   9.745   0.183  0.1313  0.1230 -0.0510
22802W        W43082   5.977  16.856  11.137  0.3230  0.0487  0.0205
22803W        W43083   5.092  11.973   2.304  0.2425  0.0683 -0.1524
22804W        W43084   3.370  16.869  10.591  0.0112  0.0723 -0.0671
22805W        W43085  11.418   0.618   4.183  0.2461 -0.4589  0.3681
22806W        W43086   4.091  11.906   3.542 -0.4768  0.2605  0.2079
22807W        W43087   0.529   2.305   3.761  0.1142  0.0597  0.0451
22808W        W43088  16.645  16.977   1.717  0.1920 -0.1439 -0.0296
22809W        W43089   1.575   4.961   0.027 -0.4057  0.1904  0.2710
22810W        W43090   9.388   4.339   2.878 -0.2797  0.0776 -0.3420
22811W        W43091   0.967   9.845   3.122 -0.2689 -0.1401  0.0260
22812W        W43092  15.427   1.651   9.878 -0.1042  0.0699 -0.0371
22813W        W43093  18.786   2.430  10.229  0.1690  0.2951 -0.1678
22814W        W43094  12.640   4.007   2.316  0.2602 -0.1702 -0.0396
22815W        W43095   1.683  17.720  10.744  0.0384  0.0815 -0.0164
22816W        W43096  19.290   5.850  11.894 -0.3883  0.1103 -0.2332
22817W        W43097  17.181  16.552  12.528 -0.0350  0.1366 -0.2072
22818W        W43098   4.609  15.870  12.466 -0.0761 -0.0374 -0.1693
22819W        W43099  10.472  10.516   0.729 -0.3214 -0.1115 -0.1752
22820W        W43100  13.705   2.643   1.054  0.1401  0.0479 -0.0481
22821W        W43101  18.143  15.856  10.123 -0.5050 -0.4610  0.3651
22822W        W43102  16.221  17.291  13.680  0.1437  0.0757  0.1841
22823W        W43103   9.171  14.302  11.484 -0.2364  0.0903 -0.4734
22824W        W43104   4.117   2.054   0.418  0.1963 -0.2172  0.0718
22825W        W43105   3.535  15.902  12.710  0.1155 -0.1691  0.1574
22826W        W43106   4.219   3.578  10.289  0.1386 -0.0589 -0.0761
22827W        W43107  19.072  13.818   1.831  0.1037  0.2344  0.1786
22828W        W43108  18.522   0.397   2.495 -0.1100 -0.3132 -0.3005
22829W        W43109   7.491   2.500  11.879 -0.0242 -0.0005  0.1833
22830W        W43110  17.450  18.712   1.179  0.4148  0.2203 -0.2133
22831W        W43111   5.741  17.668   1.030 -0.1749 -0.4220  0.1269
22832W        W43112  11.499   3.977  13.247  0.2087  0.0805 -0.2757
22833W        W43113  16.472   0.449  12.524 -0.2418  0.0913 -0.2536
22834W        W43114  12.558   1.508  13.615  0.1569 -0.1225  0.0789
22835W        W43115   3.440  19.230   1.620 -0.1453 -0.0966 -0.0720
22836W        W43116  16.378   3.535  10.877 -0.2375  0.4595 -0.2005
22837W        W43117  19.101  10.355   2.732 -0.0972 -0.4806 -0.1205
22838W        W43118   4.367   4.164   2.693  0.2688  0.1935  0.0767
22839W        W43119   8.216   8.274   3.035  0.1572 -0.0482 -0.4824
22840W        W43120   7.093   7.684   1.456 -0.0572  0.2871 -0.5708
22841W        W43121  13.405  11.621  10.513 -0.1424 -0.2223 -0.0481
22842W        W43122   8.213  15.343  11.366 -0.0784 -0.2792 -0.0038
22843W        W43123  16.079  12.236   9.547 -0.3437 -0.1640 -0.1084
22844W        W43124  16.690   5.877  12.256  0.1553 -0.2101  0.0647
22845W        W43125   9.839   7.177   1.792  0.0476  0.3660  0.1269
22846W        W43126  11.039   5.715  11.547  0.2173  0.2120 -0.0159
22847W        W43127  13.646  15.236   1.842 -0.1739 -0.0503  0.1749
22848W        W43128   1.056   0.762  12.104  0.5433  0.1826 -0.3252
22849W        W43129  17.821   0.442   1.465  0.4589 -0.0863 -0.0801
22850W        W43130   5.298   0.246   1.326 -0.2435  0.1109  0.2946
22851W        W43131  15.359   4.337   0.862 -0.3380  0.0386 -0.0698
22852W        W43132   5.592   3.646  11.144  0.2891  0.3123 -0.1986
22853W        W43133  15.827   6.590  10.369 -0.1090 -0.0450 -0.0183
22854W        W43134  10.531  11.039   0.547  0.1519 -0.1734  0.0591
22855W        W43135   6.921  13.423  11.319 -0.3254  0.3333 -0.0507
22856W        W43136  14.780  14.724   9.841 -0.1180 -0.0616 -0.0116
22857W        W43137   9.794   9.750   1.670  0.0946 -0.5515  0.3510
22858W        W43138   8.082  10.721   0.804 -0.0094 -0.0960  0.0040
22859W        W43139   8.439  12.169   9.576 -0.3002  0.1016  0.0181
22860W        W43140   8.731   7.866  11.849  0.0400 -0.0418 -0.3535
22861W        W43141   8.131   7.334  10.677  0.0161  0.2751 -0.0986
22862W        W43142   8.082  17.131  12.409  0.2788 -0.1085  0.0319
22863W        W43143  12.199   9.437   0.166 -0.0313  0.0767  0.0961
22864W        W43144   4.398  13.701   3.884 -0.1258  0.0206 -0.0633
22865W        W43145  16.077   6.344  11.141  0.2224  0.0837 -0.0839
22866W        W43146  12.232   6.603   4.817  0.2228 -0.0624 -0.0007
22867W        W43147  16.921   4.436   1.701  0.0514  0.1669 -0.3172
22868W        W43148  16.205   7.845  13.614  0.0854  0.1644  0.1428
22869W        W43149  16.070  16.998   2.443 -0.1867 -0.2596  0.2977
22870W        W43150  14.177   3.619  10.422 -0.2676  0.0615 -0.2252
22871W        W43151   9.590   5.641   3.082 -0.1085 -0.0203 -0.3573
22872W        W43152   7.850  12.733   2.538 -0.0432 -0.1047 -0.1994
22873W        W43153  19.036  18.425   3.183 -0.2988 -0.2186  0.0510
22874W        W43154   3.684   3.726  13.412  0.0703 -0.2969 -0.2151
22875W        W43155  17.474   9.396   1.152 -0.2925 -0.3329 -0.0562
22876W        W43156   2.321  15.580   3.016  0.0131 -0.2911 -0.0135
22877W        W43157  14.499   9.821   1.606  0.0139 -0.0991 -0.1564
22878W        W43158  14.240   2.041  10.570 -0.0212 -0.0105 -0.0948
22879W        W43159   0.960   6.790   1.423 -0.0116 -0.2651 -0.3484
22880W        W43160  19.701   2.576   0.220  0.0032 -0.2251  0.3217
22881W        W43161   0.234   1.093  11.079  0.1092  0.2219  0.1829
22882W        W43162  16.183  17.900   1.472 -0.1567 -0.0466 -0.1675
22883W        W43163  13.149  19.069  12.744  0.0224  0.3508 -0.0801
22884W        W43164  11.207  18.029   2.613  0.0181 -0.0720  0.1868
22885W        W43165  16.587   1.102  12.361  0.2297  0.0692  0.0030
22886W        W43166   7.576   6.622  10.414  0.1583  0.0487 -0.0482
22887W        W43167   9.682  19.679  13.002  0.2358  0.1618 -0.0599
22888W        W43168   3.827   5.373   9.614 -0.1812 -0.3496 -0.2277
22889W        W43169   2.820  15.267   0.084  0.0273  0.1957  0.1753
22890W        W43170   2.490   3.760   0.027 -0.2580  0.0953 -0.2490
22891W        W43171  14.327  16.991  10.208  0.1250  0.1657  0.0420
22892W        W43172   5.716  11.268  12.961  0.1191 -0.1812  0.2417
22893W        W43173   5.149  17.212  11.054  0.2796 -0.0008 -0.2964
22894W        W43174   4.899  15.161   1.683 -0.1328 -0.1278 -0.1588
22895W        W43175  18.136   6.840  11.365  0.2588 -0.1839 -0.2624
22896W        W43176   9.620   7.427   2.760 -0.2574  0.3409 -0.0606
22897W        W43177   5.349  11.273  12.070  0.0090  0.3021 -0.1053
22898W        W43178   3.520   7.472   2.728  0.1690  0.3491  0.1307
22899W        W43179   5.925   4.372  13.378 -0.0258 -0.0937 -0.1949
22900W        W43180   1.287   4.988   1.766  0.3135  0.2312 -0.2014
22901W        W43181  18.561  12.066  10.807 -0.1403 -0.0801 -0.3283
22902W        W43182   4.146  12.588   3.133  0.0331 -0.2225 -0.1024
22903W        W43183  16.759   3.955  10.992 -0.1048  0.1485 -0.1475
22904W        W43184   0.719   9.168   4.914 -0.1007 -0.1682 -0.2198
22905W        W43185  11.339   4.643   1.704 -0.0886 -0.3208  0.0555
22906W        W43186  18.942  12.402   1.131  0.0008 -0.2164  0.1341
22907W        W43187   4.858  15.998  11.472 -0.0373  0.2612 -0.4156
22908W        W43188  14.119   2.862   2.962 -0.0633  0.0843  0.4761
22909W        W43189  16.629   8.446  12.405 -0.3757  0.1462  0.0237
22910W        W43190   1.172   0.035   3.649  0.2936  0.4759 -0.0209
22911W        W43191  14.116   4.839  12.158  0.1082  0.2278 -0.1543
22912W        W43192  16.461  14.228  13.741 -0.0710 -0.0679  0.1177
22913W        W43193   5.310  18.915   3.281  0.1626 -0.0890  0.5199
22914W        W43194  19.757  12.403   2.824 -0.2222  0.0685  0.0212
22915W        W43195  16.737   7.105   2.407 -0.0944  0.4006  0.0069
22916W        W43196  12.075   9.234  10.291  0.1118 -0.1704  0.0788
22917W        W43197   1.349  17.481  12.947  0.1232  0.0397  0.0442
22918W        W43198  10.679   4.435  11.135 -0.0353 -0.1835 -0.1572
22919W        W43199   5.290  11.647  10.763  0.1194 -0.4539 -0.1104
22920W        W43200  11.346   4.750   4.797  0.0687  0.2299 -0.2232
22921W        W43201   7.004  13.835  13.319  0.0234 -0.1315 -0.4188
22922W        W43202   9.117  19.198   2.671 -0.1691  0.0023 -0.0519
22923W        W43203   3.073   6.372  13.016 -0.1300  0.0113  0.3058
22924W        W43204  11.094   3.886  10.380 -0.0305  0.1278 -0.0926
22925W        W43205   8.453  11.187   1.733 -0.0254  0.3237  0.2764
22926W        W43206   7.011   1.599   2.378  0.0782 -0.2591  0.2002
22927W        W43207   0.698  13.355   3.910  0.4492 -0.0894 -0.0453
22928W        W43208  19.317   7.194   2.049 -0.0393  0.2366 -0.1630
22929W        W43209   9.427   7.298   1.457 -0.1097  0.0371  0.1356
22930W        W43210  11.827   8.058   1.533 -0.0676  0.3381  0.0207
22931W        W43211  17.323   3.982   2.457  0.0453 -0.2539  0.2879
22932W        W43212  14.078   7.404   0.140 -0.0290  0.0613 -0.0577
22933W        W43213  18.059   3.035  11.995  0.0188  0.0264  0.0423
22934W        W43214  18.555   9.021  12.036  0.1220 -0.0137 -0.4335
22935W        W43215  19.507  11.452  10.757  0.0784  0.3135 -0.0212
22936W        W43216  13.946  10.152   1.302  0.1170 -0.0668 -0.0481
22937W        W43217  17.543   6.545   2.741 -0.1735  0.0844 -0.1456
22938W        W43218   0.085   9.881  13.838 -0.0943  0.1356 -0.0098
22939W        W43219  12.956  11.297   1.548  0.1626  0.0987 -0.1146
22940W        W43220   6.243   1.060  12.695  0.1270 -0.0458  0.4770
22941W        W43221   1.167  14.294  12.128  0.0941 -0.0814  0.2045
22942W        W43222   2.121   3.944  13.055  0.1341  0.0081 -0.0865
22943W        W43223  15.594   4.316   1.852 -0.2679  0.0476  0.0646
22944W        W43224  19.871  16.022  11.008 -0.2529  0.0292 -0.0002
22945W        W43225   0.911   9.679  12.003 -0.0850  0.1070 -0.3150
22946W        W43226   9.621   7.899   2.908  0.1279  0.1721  0.0958
22947W        W43227   3.540  10.719   2.589  0.0591  0.0535 -0.0760
22948W        W43228  12.389   9.019   2.168 -0.0721  0.1490  0.1403
22949W        W43229  13.426   9.690   1.074 -0.0066 -0.0540 -0.1277
22950W        W43230  17.927  10.999   1.557 -0.0487 -0.2267 -0.0285
22951W        W43231  16.559   8.948  12.093 -0.1543  0.0049 -0.3439
22952W        W43232   2.502  16.284  11.849  0.1250  0.3982 -0.0235
22953W        W43233  18.916   0.281   2.179 -0.1962  0.3025 -0.1457
22954W        W43234   1.880  12.344  11.814  0.2833 -0.0960  0.1335
22955W        W43235  16.759   2.714   3.705 -0.3771 -0.2234  0.1673
22956W        W43236  12.502   7.007  11.623 -0.1297 -0.2026  0.1786
22957W        W43237   0.993  19.006   4.075  0.1887  0.1258  0.3666
22958W        W43238   9.067   0.790   1.126 -0.1393 -0.1277  0.0189
22959W        W43239  15.710  15.833   0.486  0.2996  0.3233 -0.2334
22960W        W43240   2.639   9.340  11.624 -0.1155  0.1238 -0.4473
22961W        W43241   8.888  14.682  10.561  0.0934  0.0108 -0.0943
22962W        W43242  13.857   7.676   8.987 -0.0704  0.1611  0.1970
22963W        W43243   5.053   9.739   0.532  0.0015 -0.0827  0.1203
22964W        W43244  16.493   2.718   0.045 -0.0550  0.1579 -0.2271
22965W        W43245   7.692  12.902   3.017 -0.4727 -0.2637  0.4374
22966W        W43246  19.366   5.221   1.963  0.0183  0.1053 -0.2696
22967W        W43247   2.193   8.029   4.638 -0.0081 -0.1340 -0.2284
22968W        W43248   8.033  12.093  12.921 -0.1218 -0.3558 -0.1263
22969W        W43249  10.162  16.344  11.363  0.1169 -0.1651 -0.1168
22970W        W43250   9.682  17.544   1.614 -0.0064  0.0695  0.2698
22971W        W43251   2.827  19.000   3.544  0.1067 -0.0718  0.2760
22972W        W43252  15.074  17.227   0.949  0.0843 -0.0274  0.1040
22973W        W43253   6.764   4.624   3.920  0.0366  0.4618 -0.2195
22974W        W43254  17.087  15.822  13.305  0.0382 -0.2976  0.1121
22975W        W43255   6.355  18.713  10.483 -0.3044  0.0866 -0.0381
22976W        W43256  13.931  13.650  11.043 -0.2090  0.1654 -0.2747
22977W        W43257   5.704  11.440  10.670 -0.1916 -0.0538  0.0290
22978W        W43258  13.333  12.498   2.256 -0.0408  0.0265  0.2906
22979W        W43259   2.402  17.150  12.246 -0.1360  0.0115  0.2296
22980W        W43260  11.915   5.469   1.251  0.1236  0.0333  0.1356
22981W        W43261   4.375  13.958  12.405  0.1910 -0.0790 -0.0232
22982W        W43262   2.089  15.225   2.705 -0.3672  0.2025  0.0926
22983W        W43263  13.882  13.207   0.131 -0.0633  0.0501 -0.1970
22984W        W43264   0.204   7.874   4.192 -0.1273 -0.1468 -0.3182
22985W        W43265   5.013  18.897   0.841 -0.0206  0.0774 -0.1939
22986W        W43266   1.279  17.475  10.478 -0.1929 -0.1743  0.2507
22987W        W43267  19.432   6.189   0.352  0.2453 -0.0045  0.1912
22988W        W43268  14.731   6.798  11.293  0.0921 -0.1240 -0.0275
22989W        W43269  17.081   0.025   9.349 -0.3249 -0.4000 -0.0395
22990W        W43270  17.927  17.419  13.727 -0.3385 -0.0414  0.1379
22991W        W43271  15.226  16.702  11.437  0.1293 -0.0112  0.4405
22992W        W43272  13.337   6.954  12.608  0.1144 -0.0588  0.3553
22993W        W43273   7.055   8.393   4.686  0.0938  0.1144 -0.1335
22994W        W43274  11.654  15.441   3.527 -0.1076  0.1110  0.0481
22995W        W43275  13.275   9.887   2.436  0.1372 -0.2717  0.0288
22996W        W43276  18.787  13.720  11.048  0.0487 -0.2935  0.2309
22997W        W43277  11.132  14.742   2.429 -0.0685 -0.0110  0.0360
22998W        W43278  14.737   0.265   1.954  0.3322  0.0806 -0.0654
22999W        W43279  12.651  14.093  12.396  0.0589  0.0735 -0.1173
23000W        W43280  18.104   0.817  10.477  0.1087  0.1969 -0.3270
23001W        W43281  11.471   9.108   3.553  0.1044  0.3743  0.2124
23002W        W43282   2.919   9.419   1.954  0.2962 -0.0610 -0.1990
23003W        W43283   3.459   4.352  12.779  0.1091  0.0417  0.1141
23004W        W43284   3.374   6.052  12.736  0.0457 -0.0292  0.5705
23005W        W43285  12.372  19.259  11.698  0.0947  0.0119 -0.2476
23006W        W43286   5.196   2.627   0.785  0.3351  0.2322  0.0250
23007W        W43287   9.060  17.789   1.114 -0.0929  0.0925 -0.0781
23008W        W43288  10.276  19.381  13.650  0.3333 -0.0254  0.0966
23009W        W43289   2.591   0.149   3.526  0.2282  0.0702  0.0705
23010W        W43290  16.797  11.156  12.326  0.2361 -0.0118 -0.5396
23011W        W43291   7.853   2.938   9.919  0.2280  0.1858 -0.1704
23012W        W43292   0.710  16.169  10.042 -0.2226  0.2232  0.0269
23013W        W43293  11.009   4.883  11.855  0.0477 -0.3405 -0.1779
23014W        W43294   0.455  18.392   1.751 -0.0226  0.2653  0.0576
23015W        W43295  12.947  10.790   2.558  0.0128  0.0341  0.2508
23016W        W43296  16.499  14.826   2.541  0.1880 -0.0567  0.0459
23017W        W43297  17.491  11.104   2.377 -0.0042  0.0398 -0.0320
23018W        W43298   8.712   7.428  13.184  0.0437  0.3103  0.2697
23019W        W43299  11.931   5.041   2.553  0.2798  0.3113 -0.0911
23020W        W43300   8.668   1.679   4.872 -0.0121  0.0310  0.2811
23021W        W43301   5.600  18.210   0.149  0.2012  0.0679  0.1122
23022W        W43302   6.394   9.626   2.993  0.0634 -0.0061  0.1122
23023W        W43303   9.460  15.363   2.226 -0.2985  0.4831 -0.2565
23024W        W43304  15.577   3.133   1.827 -0.3227  0.0448 -0.1206
23025W        W43305   0.314  14.149   3.845 -0.1135  0.1566  0.0628
23026W        W43306  10.731  17.333  10.823 -0.1819 -0.3214 -0.2821
23027W        W43307  14.923   6.004  12.862  0.0219 -0.0890  0.1234
23028W        W43308   3.654   4.028  12.413 -0.0643 -0.3143  0.1072
23029W        W43309   3.083  11.570  11.037  0.1648 -0.0068 -0.2246
23030W        W43310  15.473  12.000  11.414 -0.0242 -0.1522  0.5427
23031W        W43311   1.652  18.901  12.743 -0.1623  0.1093 -0.0232
23032W        W43312   3.572   9.830   0.154 -0.0716 -0.4810 -0.0964
23033W        W43313   1.777   0.757   3.453  0.0801  0.0994  0.0579
23034W        W43314  10.035   4.833   3.460  0.1247  0.4163 -0.0513
23035W        W43315  10.504  19.345   9.095  0.3100 -0.1379  0.0074
23036W        W43316  17.543   8.608  12.788 -0.2021 -0.1204 -0.1259
23037W        W43317  15.556  11.946   0.354 -0.0817  0.0222 -0.0051
23038W        W43318  17.648   3.135  13.512  0.3811 -0.1863  0.3744
23039W        W43319   9.501  19.236   2.315  0.0743 -0.0554  0.1775
23040W        W43320  11.570  16.824   1.673 -0.1523  0.2320  0.2773
23041W        W43321  19.807  10.365   2.247 -0.1767  0.1858  0.1370
23042W        W43322  19.086   7.120   1.229 -0.1505  0.3288  0.2514
23043W        W43323   1.166  16.211   3.520 -0.0813  0.0338 -0.1326
23044W        W43324   1.232  18.031  10.555 -0.0602  0.1353 -0.0721
23045W        W43325  17.035   7.842   1.456 -0.1442 -0.0844 -0.0780
23046W        W43326   8.192   9.051   0.255 -0.0975  0.2283  0.2025
23047W        W43327   9.816   0.771  13.343  0.2085 -0.2922 -0.1716
23048W        W43328   5.648  17.353  13.815 -0.1198 -0.0967 -0.2884
23049W        W43329   9.071   4.056  10.252  0.0233  0.1372 -0.1979
23050W        W43330  12.381  10.019  11.346 -0.0940 -0.1637 -0.1392
23051W        W43331  18.290  10.665   1.512 -0.1340 -0.0272 -0.0142
23052W        W43332   4.498  15.304   0.855  0.0872 -0.1651  0.0778
23053W        W43333  14.994   9.978  10.457  0.0996  0.1704 -0.1491
23054W        W43334  13.069   6.420  10.410  0.0192  0.1637  0.3438
23055W        W43335  13.201  16.344  13.023  0.0336 -0.1851  0.0043
23056W        W43336   5.861   2.109   1.750  0.1309  0.1963  0.2698
23057W        W43337   7.671  17.470  10.494  0.0616 -0.0061 -0.2289
23058W        W43338   4.359  10.053  13.205  0.0036 -0.3329 -0.0395
23059W        W43339  15.877   1.059  11.769  0.0875  0.3478  0.0501
23060W        W43340   1.083   6.874  12.073  0.0362 -0.2082 -0.0056
23061W        W43341  16.743  12.671   1.210  0.1946  0.2244  0.2827
23062W        W43342  12.766  11.796  12.237  0.2160 -0.1151 -0.0691
23063W        W43343  12.269   7.851   3.273 -0.1017 -0.1190  0.0995
23064W        W43344  11.805  15.657   2.334  0.0341  0.1346 -0.3069
23065W        W43345   0.486   4.107   3.047 -0.0711 -0.0067  0.0311
23066W        W43346   1.950  16.364  12.497  0.2087  0.0107 -0.3709
23067W        W43347   6.251   8.432   3.301  0.0885 -0.0069 -0.0387
23068W        W43348   8.975   7.415   2.304 -0.2638  0.1427  0.0829
23069W        W43349  11.351   9.203   2.530 -0.0635  0.1063  0.0577
23070W        W43350   4.613   5.015   0.827  0.0872  0.1663 -0.0525
23071W        W43351  15.866  12.378   1.597  0.2962 -0.3084  0.6445
23072W        W43352  11.282   2.946   1.288 -0.0589 -0.0452  0.2049
23073W        W43353  13.374   8.709   0.890  0.3233  0.3795  0.1330
23074W        W43354  14.232   2.723   9.013 -0.3634 -0.1604  0.2432
23075W        W43355  10.335  19.465   9.966 -0.1790 -0.0682  0.0709
23076W        W43356   9.927  10.424   2.712 -0.1119  0.2438  0.2410
23077W        W43357  14.338   4.754   1.183 -0.0398  0.1649 -0.0331
23078W        W43358   9.525   2.706  10.979 -0.0057  0.0731 -0.4105
23079W        W43359   6.314  14.823   0.402  0.4442  0.0177 -0.3588
23080W        W43360   5.011   4.622   3.399  0.3786  0.1936 -0.1321
23081W        W43361   5.430   0.531  11.569  0.1119  0.0048 -0.1353
23082W        W43362  19.595   7.955  10.613  0.1464  0.3715  0.4169
23083W        W43363  16.329  16.080   1.158 -0.0362 -0.0872 -0.1837
23084W        W43364   9.115  17.147  13.557 -0.5034 -0.2043  0.1238
23085W        W43365   6.996  13.700  13.844  0.1213 -0.1123 -0.3347
23086W        W43366  13.543  11.661  12.650  0.0259  0.1278 -0.0979
23087W        W43367   5.664   7.009  12.503 -0.1084 -0.1605  0.0542
23088W        W43368  14.869   0.902  12.635  0.0509  0.0809  0.2762
23089W        W43369  13.665  17.745   0.407 -0.1780  0.0993  0.0467
23090W        W43370  13.487  11.664   3.526 -0.0208  0.2855 -0.1057
23091W        W43371   2.437   7.210   9.330  0.0015  0.0670 -0.0994
23092W        W43372   8.990   7.325   4.427 -0.2164 -0.1703 -0.3214
23093W        W43373  15.012   7.255   4.966  0.0506  0.1396  0.1070
23094W        W43374  15.487   8.250   1.351  0.0818  0.1236  0.0702
23095W        W43375  10.720   9.282   1.828  0.0408  0.1260  0.1206
23096W        W43376   0.465  13.170  12.765 -0.0909 -0.1443  0.1012
23097W        W43377  19.633   8.108  12.394  0.2815 -0.2034 -0.0328
23098W        W43378  15.767   1.004  13.789  0.1583  0.3624  0.0457
23099W        W43379   9.452  17.173   4.084  0.1077  0.3380  0.2124
23100W        W43380  10.019   1.504  12.355  0.2010  0.2483 -0.0279
23101W        W43381   6.391   8.467  11.848  0.0117 -0.0112 -0.0939
23102W        W43382  15.139   4.961   3.517  0.0682  0.0503 -0.0532
23103W        W43383   3.564   0.945  13.246  0.1881  0.0953 -0.0884
23104W        W43384  14.458   6.058  13.165  0.0052 -0.0156 -0.0238
23105W        W43385   9.593   1.473   1.189 -0.2290  0.0690  0.0017
23106W        W43386  12.344   4.806   1.761 -0.1331  0.4440  0.0576
23107W        W43387   5.445  11.811   1.533  0.0886 -0.0503 -0.1790
23108W        W43388  15.528  17.179   2.233  0.2844 -0.0768 -0.4290
23109W        W43389   5.375   4.733  11.323  0.2046  0.0562  0.1210
23110W        W43390  18.425  12.736  11.349  0.0319 -0.0412 -0.2085
23111W        W43391  12.152   0.953  12.754  0.0918 -0.0712 -0.1696
23112W        W43392   4.760   5.055   1.846 -0.0518 -0.0558 -0.1287
23113W        W43393  12.405  14.484   1.145  0.2467 -0.0830  0.1894
23114W        W43394  13.761  17.470  13.555 -0.2720 -0.0901 -0.1384
23115W        W43395  10.893   7.613   1.274 -0.1749 -0.0803  0.4277
23116W        W43396   9.873   8.935   2.760 -0.4079  0.0371 -0.0256
23117W        W43397  18.349  14.858   0.414 -0.1299  0.1578  0.2419
23118W        W43398  10.935   9.095   2.223 -0.4347 -0.1174 -0.1191
23119W        W43399   0.939   3.617  12.959  0.0757  0.2266 -0.2561
23120W        W43400  13.822  13.975  11.881  0.1273  0.0633  0.0844
23121W        W43401  10.537   5.825   1.533 -0.1098  0.0242  0.0151
23122W        W43402   8.312  18.054   1.441  0.1125  0.0034  0.0755
23123W        W43403  11.942   8.276  12.003  0.2050  0.2524  0.0940
23124W        W43404  12.968   8.616  10.366 -0.0575 -0.1176  0.0423
23125W        W43405  13.331   2.813  10.224 -0.0480  0.2142 -0.1101
23126W        W43406  12.237  17.841   2.580  0.0136  0.4102  0.2224
23127W        W43407   6.356  11.858   0.928 -0.0104 -0.1821  0.1441
23128W        W43408  15.179   2.332   2.381  0.0949  0.4990 -0.1649
23129W        W43409   0.305  18.524   0.814  0.0490  0.2791  0.3350
23130W        W43410  19.188   1.299  12.284  0.1020  0.1369  0.2149
23131W        W43411  11.422   5.666   3.659 -0.1323  0.4262 -0.1876
23132W        W43412   1.797  18.537   2.595 -0.2313  0.1108  0.1048
23133W        W43413   5.358  17.458  13.448  0.1832  0.0350  0.3639
23134W        W43414   6.251   6.929  11.768  0.1426  0.1397  0.2077
23135W        W43415   0.980   5.592   2.517 -0.0999 -0.3378  0.1302
23136W        W43416  10.845   8.175  13.780 -0.1351 -0.1027 -0.0191
23137W        W43417   7.061  10.862   2.343 -0.0793  0.2652 -0.1300
23138W        W43418  11.808  17.620   0.478  0.1084  0.1640 -0.1473
23139W        W43419  14.801  19.484   0.210  0.0402  0.3850 -0.0542
23140W        W43420   1.145  18.720  11.000 -0.1599  0.0998 -0.3168
23141W        W43421  10.591   5.102   0.685  0.3397  0.0954  0.3490
23142W        W43422  13.730   3.474  10.190 -0.1139  0.1210 -0.1107
23143W        W43423  17.641   9.560   2.505  0.2921  0.0914  0.0212
23144W        W43424   9.145   4.773   0.187  0.0459  0.0561 -0.0102
23145W        W43425  16.107  17.102   1.017  0.1807  0.3411 -0.1119
23146W        W43426   3.756   6.189   2.814 -0.3340 -0.0975 -0.0789
23147W        W43427   6.196  17.339  11.433 -0.2685  0.1936 -0.1628
23148W        W43428  14.938  16.203   1.170  0.2354  0.4818 -0.2646
23149W        W43429  14.390  13.646   3.688 -0.0542  0.0446 -0.1485
23150W        W43430  14.186   9.895   8.807 -0.0592  0.0196  0.0143
23151W        W43431   2.667   5.839  10.877  0.0842 -0.0036  0.2848
23152W        W43432   0.029   3.538  12.739 -0.1795 -0.1178  0.1249
23153W        W43433   3.497   6.710  12.759 -0.0296  0.2121  0.3250
23154W        W43434  10.682   8.041   9.393 -0.0741  0.2248  0.3440
23155W        W43435  13.674  17.075   3.421 -0.0834  0.0946  0.1051
23156W        W43436   0.076   4.621  13.624 -0.1019 -0.0589  0.1039
23157W        W43437  17.557   5.096  13.500  0.2353  0.1726  0.0373
23158W        W43438   9.056  10.346  10.656 -0.0030  0.0956  0.0793
23159W        W43439   0.033   5.268  12.279  0.0768  0.2872  0.0992
23160W        W43440   5.770   5.442   4.169 -0.2745  0.2335  0.2046
23161W        W43441  15.254   1.424  13.802  0.0185 -0.1184 -0.0473
23162W        W43442   9.265  10.214  10.197  0.1260 -0.5881  0.0296
23163W        W43443  18.180  11.663  11.016  0.0521  0.1163  0.2682
23164W        W43444   9.744   7.232   2.295 -0.0433 -0.0560 -0.3685
23165W        W43445   7.153   6.426  11.233 -0.1949  0.0269  0.0187
23166W        W43446  18.789  10.590   3.070 -0.0008 -0.0544 -0.1116
23167W        W43447   8.346   1.967  10.471 -0.0533  0.0012  0.0995
23168W        W43448  11.639   9.338   0.429 -0.1687  0.2804  0.1111
23169W        W43449  16.595   9.836  13.462 -0.0964  0.0117 -0.2500
23170W        W43450  13.584  10.379  12.147  0.0685 -0.4592 -0.1354
23171W        W43451  13.833  18.696  12.757 -0.0707 -0.2269 -0.1421
23172W        W43452   3.977   0.436  12.209 -0.0885 -0.2941  0.1443
23173W        W43453   7.775  13.189   4.312 -0.0126  0.0061 -0.0879
23174W        W43454  18.667  16.400  12.586 -0.1195  0.0510  0.1457
23175W        W43455   1.893   7.877   0.792 -0.2687 -0.3170  0.1033
23176W        W43456   0.527   2.748   0.327  0.2493 -0.0202  0.0349
23177W        W43457  13.876   2.027   3.436 -0.1621 -0.0009  0.2874
23178W        W43458  13.035  19.896  13.754  0.1979 -0.1628 -0.0218
23179W        W43459  11.766  10.318  11.832  0.0404  0.1753 -0.0111
23180W        W43460  12.476   0.838   1.010  0.0943 -0.0211 -0.2597
23181W        W43461   1.252   1.179   1.370 -0.1655  0.4074 -0.1659
23182W        W43462  11.951  19.576   1.964 -0.0643  0.0333  0.1680
23183W        W43463   6.948   0.799  12.240 -0.0213  0.0394  0.1658
23184W        W43464   8.707  19.928   1.642  0.0685 -0.0440  0.3767
23185W        W43465  19.137   2.776  12.355  0.1516  0.0443 -0.1964
23186W        W43466   0.241  16.356  10.714 -0.3215 -0.1581 -0.2927
23187W        W43467   4.780  14.826  10.204 -0.1394 -0.0721  0.2631
23188W        W43468   6.292   6.405  10.556  0.0702 -0.0084  0.6373
23189W        W43469  18.593   3.373  13.427 -0.1037  0.0521 -0.2500
23190W        W43470   5.632  15.812   1.632  0.0284 -0.2295  0.1653
23191W        W43471   3.028   4.581  12.703 -0.0262 -0.0863 -0.1692
23192W        W43472  11.244  16.901  13.838  0.3377  0.1313  0.2070
23193W        W43473   4.986  19.142   2.959  0.1115 -0.2191  0.0719
23194W        W43474   2.030  11.403   3.586 -0.1133 -0.2377 -0.2809
23195W        W43475   8.900   0.918  11.841  0.1876  0.2933 -0.1729
23196W        W43476  16.163   6.249  13.019  0.1155  0.3638 -0.1305
23197W        W43477   9.088  15.629   1.996 -0.0080 -0.0261 -0.1951
23198W        W43478  16.285   8.128   2.816 -0.0318  0.1674  0.1643
23199W        W43479   4.850  19.883  11.215 -0.0826 -0.1540 -0.0099
23200W        W43480  19.893  19.522   1.720 -0.0720 -0.1259  0.1056
23201W        W43481   9.567   6.533   0.462  0.1482 -0.0455  0.2055
23202W        W43482   2.560  11.292   3.419 -0.1038  0.3091 -0.1181
23203W        W43483   1.481  10.382  10.463 -0.1572 -0.0562  0.3107
23204W        W43484   9.873   4.435  10.655 -0.0144  0.3174  0.1205
23205W        W43485  14.424   6.115   3.515  0.2207 -0.0432  0.2315
23206W        W43486  17.088  16.800  11.409 -0.1293  0.2671  0.3209
23207W        W43487   7.605   9.355   3.985 -0.0179 -0.2047 -0.0052
23208W        W43488   8.471  19.708   9.010  0.4881 -0.0250  0.0301
23209W        W43489   6.980  16.635  11.615 -0.0758  0.2649 -0.0592
23210W        W43490  16.819  13.259  10.332 -0.2799 -0.1054  0.2197
23211W        W43491   5.580   4.315   2.696 -0.1465  0.0481 -0.4319
23212W        W43492   7.345   4.443   3.060  0.1015  0.2250  0.0370
23213W        W43493   4.574   3.402   3.032 -0.0089 -0.0479 -0.1335
23214W        W43494   7.535  13.706  13.370  0.0808  0.1932  0.0576
23215W        W43495  19.859   4.551   1.238 -0.0709  0.0073 -0.1396
23216W        W43496  19.131   7.704  10.831 -0.0841  0.3011 -0.1524
23217W        W43497   6.376  19.774  10.899  0.2835  0.0468  0.1281
23218W        W43498  14.595  13.841   0.356  0.4118  0.2293  0.3659
23219W        W43499   5.912  14.359   4.717  0.2983  0.2262  0.0490
23220W        W43500  11.909   9.758  11.246 -0.0982  0.0433  0.2498
23221W        W43501  19.422  15.488   1.190  0.4339 -0.0659 -0.4282
23222W        W43502  14.715   5.368   0.086 -0.0014  0.0151  0.1897
23223W        W43503   0.446  19.593  11.199  0.3913  0.2273  0.0243
23224W        W43504   5.832   3.125   1.617 -0.1960  0.0847 -0.1012
23225W        W43505  12.362   5.668  11.764 -0.0484  0.1485  0.1254
23226W        W43506   1.839   1.851   4.201  0.0432  0.2658 -0.0572
23227W        W43507   7.604  19.898  12.318  0.4823 -0.0148  0.0687
23228W        W43508  18.106   4.015  10.008  0.0297 -0.0959  0.0604
23229W        W43509   0.844   9.915   0.378 -0.0795 -0.1190 -0.0987
23230W        W43510   6.087   7.004   0.336  0.0816 -0.0887  0.1277
23231W        W43511  16.790  11.114   0.087  0.0491 -0.0828  0.1592
23232W        W43512  19.674   9.716   3.025  0.2302  0.1969  0.1252
23233W        W43513  16.024   6.689   2.092 -0.3047  0.3017 -0.0316
23234W        W43514   3.213   0.913   3.108  0.1311 -0.1578  0.0063
23235W        W43515   0.065   8.098  10.067  0.0805 -0.0201  0.0339
23236W        W43516   7.551  11.953   0.080 -0.3883 -0.0418  0.2690
23237W        W43517  10.809   2.078  10.646 -0.0833 -0.1639 -0.0547
23238W        W43518   0.230   6.566  11.479 -0.2145 -0.0889 -0.0309
23239W        W43519  15.531  14.070  11.570  0.1357 -0.1949  0.0962
23240W        W43520   9.925   5.084  11.732 -0.0954  0.1072  0.0018
23241W        W43521   4.984   0.981  13.818 -0.0398 -0.0884  0.1843
23242W        W43522   8.108   5.956  13.664  0.3546  0.6763 -0.1785
23243W        W43523  17.380   1.602   2.632  0.2061  0.0618  0.3109
23244W        W43524   8.607  11.564   0.176 -0.1681  0.2244 -0.1207
23245W        W43525   8.294  13.967  10.480  0.1862  0.0450  0.1272
23246W        W43526   5.338  18.393  12.394  0.0998  0.0118 -0.1861
23247W        W43527  16.397  13.938  12.044 -0.1109  0.0716  0.0126
23248W        W43528   9.004  18.538  12.758  0.0092 -0.0741  0.1164
23249W        W43529   6.990  11.568   0.457 -0.1706 -0.0827  0.1013
23250W        W43530   6.791   9.294  13.696 -0.1852 -0.0946 -0.1331
23251W        W43531  15.345  17.462   9.783  0.0435  0.0481  0.1146
23252W        W43532  18.604   6.522   0.870 -0.2833 -0.1120  0.0258
23253W        W43533  10.305   8.933  13.125 -0.1361 -0.1814 -0.0501
23254W        W43534   3.556   8.116   9.987 -0.1184 -0.1054 -0.1212
23255W        W43535   4.323   4.146   2.142 -0.0916  0.2042  0.1429
23256W        W43536  10.444   6.198  13.584  0.1166 -0.0820  0.1488
23257W        W43537  13.209  12.118   1.277  0.0475  0.1294 -0.1867
23258W        W43538   6.360   2.413  10.117 -0.0354  0.1077  0.2057
23259W        W43539  15.062   5.792  12.068  0.1968  0.2066  0.0127
23260W        W43540  12.133  13.047  12.208 -0.1536 -0.2504 -0.0226
23261W        W43541  16.410   5.719   1.862  0.2769 -0.1250  0.0514
23262W        W43542  14.442   7.680  13.707 -0.0657  0.0486  0.1610
23263W        W43543   5.423   0.313  10.701  0.0501 -0.1085 -0.1629
23264W        W43544  18.136   1.808  10.455  0.3296  0.1543 -0.3260
23265W        W43545   8.348   6.911   2.150 -0.1878 -0.3203  0.2732
23266W        W43546  14.774  16.290   3.480  0.0729 -0.0975  0.0018
23267W        W43547   2.460   4.053   2.905 -0.2945 -0.3416  0.1644
23268W        W43548  11.732  11.915   0.937 -0.1261 -0.1498  0.1901
23269W        W43549  19.656   0.026   1.441  0.0009  0.0505 -0.1442
23270W        W43550  12.488  19.737   8.939 -0.1942  0.0336  0.1941
23271W        W43551   6.917  16.065   1.989 -0.0360 -0.0157 -0.0423
23272W        W43552   4.416  16.631   2.878 -0.2426 -0.0073 -0.5018
23273W        W43553  11.314  19.544   0.359  0.0837  0.0144 -0.1543
23274W        W43554  10.637   0.587   0.938  0.2424  0.2529 -0.0198
23275W        W43555   8.565  13.904   1.718  0.1609  0.1538  0.0989
23276W        W43556   4.288  19.179  11.490 -0.0211  0.1232  0.2677
23277W        W43557   4.798   1.800   3.613 -0.0247 -0.0704 -0.0167
23278W        W43558   1.994   6.412   0.116 -0.0958  0.1621 -0.2326
23279W        W43559   1.915  15.285  13.608  0.2924 -0.4866 -0.1039
23280W        W43560  16.669   0.623   0.449 -0.1376  0.0146 -0.1424
23281W        W43561   5.104   7.818  11.762  0.1953 -0.2778 -0.2988
23282W        W43562   0.784  18.567  11.399 -0.1083  0.0859 -0.1053
23283W        W43563  17.903  18.945  10.577 -0.0775 -0.2768 -0.0155
23284W        W43564  15.415  18.926  10.771  0.0426 -0.0016 -0.1635
23285W        W43565  18.486   3.973  11.883  0.2240  0.0412 -0.0920
23286W        W43566  12.252  17.143  11.224 -0.2442  0.3121  0.2710
23287W        W43567  13.307   1.499   1.637 -0.0838 -0.1181 -0.3327
23288W        W43568   7.627  11.800  12.803 -0.1616 -0.0838 -0.0639
23289W        W43569  19.258  18.707  11.430  0.1325 -0.1748 -0.4678
23290W        W43570   9.737  10.638   3.996 -0.0233 -0.0571 -0.1347
23291W        W43571  17.445  14.609   9.277  0.1147  0.0117  0.1929
23292W        W43572   1.012   0.016  12.626  0.0109  0.4731  0.0017
23293W        W43573  13.777   6.140   2.083  0.1511  0.0130  0.0147
23294W        W43574  12.476  11.125  12.845  0.1465 -0.0054 -0.0929
23295W        W43575  19.419  18.258   1.001  0.0756  0.0179 -0.1864
23296W        W43576   8.799   0.406   3.598  0.0864  0.0212  0.1089
23297W        W43577  11.573  11.200   1.555  0.3466 -0.0119  0.0077
23298W        W43578  10.876   2.823   2.828 -0.1501  0.2090  0.1986
23299W        W43579  13.791   4.207   3.024  0.1917 -0.2823  0.2826
23300W        W43580   6.671  11.568  12.544 -0.6281 -0.3656 -0.1277
23301W        W43581  15.670   1.874  10.734  0.0368 -0.1471  0.0439
23302W        W43582   5.469  16.418   3.697  0.2127  0.2957 -0.4156
23303W        W43583  12.519  13.947   1.178  0.0254 -0.0344 -0.0567
23304W        W43584  18.764  17.838  13.031 -0.1623  0.0991  0.1648
23305W        W43585  16.817  11.441   0.455  0.3407 -0.0262  0.1770
23306W        W43586   7.022  17.583   1.068  0.2784 -0.0306 -0.0374
23307W        W43587  13.665   5.507   3.764  0.0238 -0.0547  0.3859
23308W        W43588   3.705  12.892  11.579 -0.0980 -0.0744  0.2821
23309W        W43589   9.914   1.296  11.452  0.0695  0.1830  0.2013
23310W        W43590   0.723   9.429  12.959  0.0228 -0.0857 -0.1468
23311W        W43591   4.001  10.404   2.487  0.1853  0.0267  0.1452
23312W        W43592   6.799  14.724   0.453  0.1586 -0.2023  0.0764
23313W        W43593  18.685   1.858   0.005 -0.2484  0.0237 -0.1887
23314W        W43594  17.045   4.369   2.623 -0.0637  0.2439  0.0089
23315W        W43595   3.314   5.996  12.139  0.1646  0.2213 -0.2525
23316W        W43596  16.590  16.917   3.226 -0.0132  0.0050  0.2830
23317W        W43597   7.854   5.690   1.820 -0.0135 -0.0471  0.0517
23318W        W43598  10.972   5.365   1.631 -0.0613  0.3528 -0.0846
23319W        W43599  13.843  13.944   1.473  0.0055  0.0183 -0.1789
23320W        W43600   7.081  17.911   9.998 -0.0940  0.0432  0.2451
23321W        W43601   7.160  14.740  10.688 -0.1217  0.0092 -0.3440
23322W        W43602   7.972   0.015  11.347  0.0839  0.1712  0.1177
23323W        W43603  16.678  14.769   1.146  0.2432 -0.0999  0.2252
23324W        W43604   9.616   9.848  12.321 -0.6366 -0.1167  0.0635
23325W        W43605   1.863  19.676   0.013  0.0748 -0.0721 -0.1299
23326W        W43606  10.472  14.212   3.581  0.2865 -0.0972 -0.0383
23327W        W43607  15.196   4.340  11.779  0.0295 -0.2816  0.0137
23328W        W43608  13.252   5.562  13.082  0.1017 -0.0694  0.1077
23329W        W43609  16.181  19.284   1.951  0.1361  0.2517 -0.1956
23330W        W43610   7.418   9.423   2.703  0.2497  0.1039  0.2570
23331W        W43611  13.063  14.893   0.020  0.1367  0.1352  0.1222
23332W        W43612  18.489  12.716  10.191  0.1285 -0.1867  0.1784
23333W        W43613  17.950   5.961  13.597  0.0133  0.0646  0.1795
23334W        W43614  13.432  18.738  12.480  0.1566  0.1086 -0.0185
23335W        W43615   6.317   6.058   0.250  0.2715 -0.0584 -0.2728
23336W        W43616  12.769  13.369  11.867 -0.0658 -0.1900 -0.0995
23337W        W43617   5.668  13.939   4.490 -0.1069 -0.2343 -0.1068
23338W        W43618   3.316  14.735   1.370 -0.0737  0.1665 -0.1296
23339W        W43619  12.540  12.008  10.575  0.0594 -0.2806  0.0140
23340W        W43620  14.083   5.357   4.932 -0.2598 -0.0119  0.0882
23341W        W43621   8.156  13.387   1.261  0.0523 -0.0033  0.0146
23342W        W43622   4.325  14.377  13.624 -0.0527 -0.1781  0.0570
23343W        W43623   9.264  16.390  10.517 -0.0291  0.1058  0.2807
23344W        W43624   0.343  19.078  11.932 -0.3492  0.0053  0.3286
23345W        W43625   2.612   6.503   2.391  0.1881 -0.2322  0.1163
23346W        W43626   7.004  15.082   3.433  0.0588  0.0418  0.0299
23347W        W43627   7.213  15.003  11.099  0.1521 -0.4364  0.2761
23348W        W43628   4.858  13.643   3.633  0.0484 -0.0890 -0.2989
23349W        W43629  10.810  11.555   3.341 -0.3281 -0.1390  0.0032
23350W        W43630  16.769   8.711   9.870 -0.0987  0.0773 -0.1681
23351W        W43631  15.151   6.354   3.431  0.2008  0.4771 -0.0110
23352W        W43632  16.076   6.943  10.059 -0.1083  0.0583 -0.5382
23353W        W43633   5.247  16.232  11.169 -0.0719 -0.1500  0.1414
23354W        W43634   6.656   7.851  13.846 -0.0863  0.4122 -0.0121
23355W        W43635   4.295   3.609   2.600  0.2040  0.1385  0.0524
23356W        W43636  18.959  15.603  11.466  0.0293 -0.1468 -0.0726
23357W        W43637   3.863  16.620  10.865  0.0093 -0.0067  0.0368
23358W        W43638  19.764   2.299  13.093 -0.1968  0.0468  0.2441
23359W        W43639   5.539   2.743  12.357 -0.3376 -0.1172  0.2839
23360W        W43640  15.626   3.424  13.301  0.0337 -0.0462  0.1640
23361W        W43641  19.391  11.394   2.863 -0.2755 -0.0754  0.1440
23362W        W43642   2.545  16.311   2.328 -0.0765  0.1928 -0.1620
23363W        W43643   6.278   9.307   3.405  0.0737 -0.3306 -0.0967
23364W        W43644  10.842   5.253  11.530  0.1263 -0.0629 -0.0752
23365W        W43645   8.538   1.686  10.986 -0.2428  0.1275 -0.0661
23366W        W43646  11.007  16.632  11.985  0.0151  0.2137 -0.0379
23367W        W43647   9.554   0.358   0.313  0.2353  0.1453  0.1342
23368W        W43648  18.286   8.064   9.251  0.1546  0.0167  0.1162
23369W        W43649  10.306   9.485   1.605 -0.1573  0.3237 -0.1144
23370W        W43650   0.673   0.425  11.444 -0.0726  0.1414  0.2852
23371W        W43651  10.361  18.161  12.211 -0.0408 -0.3180 -0.1506
23372W        W43652   5.094  14.412   3.143 -0.3253 -0.2305  0.0308
23373W        W43653  14.331   4.493  10.135 -0.1057  0.0334  0.1756
23374W        W43654   7.881   9.480  10.923  0.3586 -0.4338 -0.0854
23375W        W43655  12.348   0.603   2.111  0.0991  0.0793 -0.0730
23376W        W43656  13.342   1.218  12.949  0.0836  0.1605  0.1179
23377W        W43657   2.978   3.977   1.426  0.3595  0.0411 -0.2356
23378W        W43658  18.456   9.736  12.507  0.0318  0.1595 -0.1097
23379W        W43659  15.637  18.126  10.984 -0.0373 -0.0950 -0.0962
23380W        W43660  19.571  15.658  10.770  0.1749 -0.1865  0.2426
23381W        W43661   6.973   4.049  11.011 -0.2039 -0.2173 -0.0918
23382W        W43662  17.725   6.587  11.482  0.2703 -0.0361 -0.5808
23383W        W43663   5.350   4.010  11.583  0.2559  0.2665 -0.2668
23384W        W43664  10.784  17.802   2.374 -0.3350  0.0150  0.1583
23385W        W43665  19.280   2.374  10.162  0.2319 -0.1319  0.2826
23386W        W43666   7.793   6.905  11.692  0.0860  0.1241 -0.2724
23387W        W43667   8.618  19.850  10.756 -0.3547  0.0501  0.1616
23388W        W43668  10.977   7.500   4.038 -0.3939  0.0977 -0.0134
23389W        W43669  11.986  18.499   0.975  0.0009  0.2028  0.1417
23390W        W43670   7.120   9.149   3.519 -0.2059 -0.1475 -0.3359
23391W        W43671   3.878  16.633   2.141 -0.3643  0.0900 -0.1313
23392W        W43672  13.356  18.629  11.983 -0.1402 -0.0397  0.3658
23393W        W43673  18.982   5.509  13.235  0.2030 -0.0852  0.2003
23394W        W43674  17.472   7.021   0.460  0.0936  0.1810  0.1858
23395W        W43675  18.668  19.329  13.830  0.1074 -0.2168 -0.2593
23396W        W43676   8.870   8.137  10.768  0.0858 -0.0447  0.0027
23397W        W43677  15.084  13.175  10.537  0.0514 -0.0624  0.0487
23398W        W43678   4.597   1.227   3.572  0.3127  0.1414 -0.1934
23399W        W43679  19.828  11.009   0.956  0.1109  0.0192 -0.0905
23400W        W43680  13.896   7.924  10.837 -0.2611 -0.0022 -0.4036
23401W        W43681   8.407  10.944  13.613  0.1555 -0.1842 -0.0274
23402W        W43682   2.888  10.100   2.627 -0.4202 -0.0197 -0.0535
23403W        W43683  14.122   8.425  13.098 -0.0991  0.1285 -0.0801
23404W        W43684   7.741  16.161  13.257  0.1802  0.1819  0.0853
23405W        W43685   6.009  18.248  13.041 -0.0184 -0.2828 -0.2067
23406W        W43686   5.340  14.815   0.159  0.1542  0.1004  0.1119
23407W        W43687  13.282  17.168  10.178  0.0146 -0.3040 -0.2723
23408W        W43688   9.910   8.518   0.320 -0.1026 -0.2224 -0.0887
23409W        W43689   0.935   2.461   4.737 -0.0741 -0.1924 -0.0341
23410W        W43690   3.312  10.494  12.396 -0.4335 -0.1915  0.1426
23411W        W43691   0.434  12.508  13.448 -0.1820 -0.1296 -0.0526
23412W        W43692  15.105  13.588   1.186 -0.2165 -0.1118 -0.0548
23413W        W43693   8.132   2.691  12.157  0.0496  0.2027  0.1016
23414W        W43694   2.979  12.733   3.676  0.0334  0.0340  0.1006
23415W        W43695   8.510  14.703   0.705  0.0559  0.1460 -0.4130
23416W        W43696   8.022   3.810  13.110 -0.0431  0.1163  0.3562
23417W        W43697   2.032  16.782   9.593  0.0674  0.2776  0.3181
23418W        W43698  10.209   2.834  10.462  0.1787  0.0715  0.1776
23419W        W43699  18.417  11.097   1.344  0.2191 -0.0832 -0.0991
23420W        W43700   8.169   2.232   4.159  0.1876  0.2180 -0.1733
23421W        W43701   5.816  17.961  10.490 -0.1647 -0.0344 -0.3064
23422W        W43702   5.227   2.531   3.920 -0.0754 -0.1893  0.1388
23423W        W43703  10.369   0.217  10.439  0.2830 -0.0007 -0.1651
23424W        W43704   3.478   7.199   1.569  0.2050  0.2927 -0.0125
23425W        W43705   8.632   6.933  12.055 -0.1366  0.0429  0.2687
23426W        W43706  10.800   7.586  10.709  0.2195  0.0362 -0.0880
23427W        W43707  17.934  11.415   3.566 -0.1096  0.0077 -0.0814
23428W        W43708   4.256  10.783   1.670  0.1939 -0.1725 -0.4635
23429W        W43709  14.071   7.143   0.675  0.1212  0.0885 -0.1314
23430W        W43710  17.377  17.683  10.603  0.0846  0.2301  0.1624
23431W        W43711   4.651  17.205  12.903 -0.3899  0.0297  0.2256
23432W        W43712  16.642   1.316   3.873  0.1194  0.0363 -0.1381
23433W        W43713  19.246  10.696   0.785 -0.2167  0.0290 -0.0339
23434W        W43714  15.384  10.658  12.634 -0.2122  0.2182  0.1604
23435W        W43715   0.287  16.907  10.166 -0.3480  0.3068  0.1850
23436W        W43716   8.184  11.633   2.755  0.2386  0.0498  0.0771
23437W        W43717  10.077   6.361  12.954  0.0056 -0.1647 -0.2245
23438W        W43718   5.519   7.317   2.474 -0.4032 -0.3976 -0.4474
23439W        W43719   4.568  10.648   3.313  0.1318 -0.0329 -0.0435
23440W        W43720   4.511  17.368  11.610 -0.2059 -0.1042  0.2062
23441W        W43721  12.267   0.614  11.416  0.1541  0.1957 -0.4579
23442W        W43722   0.107  18.355  12.004 -0.3188  0.2308 -0.2682
23443W        W43723  19.652   6.042   9.847  0.0589  0.0171 -0.2966
23444W        W43724  12.789   6.753   3.390  0.2372  0.2074  0.4093
23445W        W43725   2.927   6.508   0.467  0.0200 -0.0110  0.2373
23446W        W43726  16.992  14.512   9.488 -0.0420  0.3243  0.0344
23447W        W43727  11.826   9.322   0.892  0.0963  0.1262  0.0114
23448W        W43728  12.313  14.762  11.666  0.1754  0.0055 -0.1220
23449W        W43729   2.672   4.328   0.255 -0.2343  0.4059  0.1075
23450W        W43730  17.414   1.851   2.202  0.0701  0.0564 -0.1675
23451W        W43731   2.944   9.292   3.873  0.2869 -0.0129  0.2702
23452W        W43732  16.988  14.933   2.279 -0.3093 -0.0944 -0.0870
23453W        W43733  13.930   4.787   0.853  0.0641 -0.1116 -0.2477
23454W        W43734  15.453  15.932   9.506  0.0060  0.1608 -0.0865
23455W        W43735  14.171  12.103  11.115  0.2296  0.0421 -0.0707
23456W        W43736   5.956  18.010  12.469  0.0913 -0.1898  0.0507
23457W        W43737  13.227  10.854   9.909 -0.0320  0.3334 -0.3568
23458W        W43738  16.123   6.338   2.472  0.0625  0.2009 -0.2031
23459W        W43739  15.960   4.138   3.970  0.2293  0.0214  0.1886
23460W        W43740  12.863   1.658  12.325  0.0443 -0.2860  0.1934
23461W        W43741   9.573  18.067  13.121  0.0094 -0.2079 -0.2472
23462W        W43742   7.495  18.945   1.138  0.1390 -0.0756 -0.2757
23463W        W43743  13.109   1.601   2.087  0.6419  0.0203  0.2498
23464W        W43744  17.379   1.278  10.634 -0.0813 -0.4501  0.3380
23465W        W43745  19.493   6.736   0.832 -0.3309  0.0438  0.1385
23466W        W43746  17.754   0.401   4.601 -0.2783 -0.3171 -0.1622
23467W        W43747  11.941  16.893  10.556  0.3644  0.0281 -0.0293
23468W        W43748  11.148  16.697  10.203 -0.1280 -0.2279 -0.3207
23469W        W43749   9.240   5.675  11.319 -0.1337  0.0430  0.2158
23470W        W43750   1.659  17.929   2.775 -0.1746 -0.0064  0.0825
23471W        W43751   2.043  18.719   0.258 -0.0050  0.0637 -0.1317
23472W        W43752   9.423   5.148  10.885 -0.0156  0.0032  0.0304
23473W        W43753  12.666   4.152  13.111  0.0800 -0.1153 -0.0262
23474W        W43754  19.614  12.445   1.738 -0.3053 -0.0747 -0.3845
23475W        W43755   5.754  10.368   3.459 -0.0279 -0.1425 -0.1810
23476W        W43756   1.976   3.975   2.981 -0.0187  0.2806 -0.3897
23477W        W43757  19.107   5.842   0.274 -0.0372 -0.0699  0.0037
23478W        W43758   9.400   5.818   0.054 -0.2851  0.2423  0.2078
23479W        W43759   9.625  15.443   0.183 -0.1952  0.0161  0.0554
23480W        W43760  17.579   7.457   1.430  0.2015 -0.0553 -0.0128
23481W        W43761   9.537  19.143  12.037 -0.1274 -0.0162 -0.0869
23482W        W43762  15.820  19.366   1.333 -0.2995  0.0547  0.0665
23483W        W43763  19.610  15.197  13.090 -0.2190 -0.0944  0.3433
23484W        W43764  10.232  10.437   2.227 -0.1728 -0.0372  0.2322
23485W        W43765  12.873  19.602   1.446 -0.1510  0.2154 -0.0026
23486W        W43766   6.068   5.335  12.410  0.3021 -0.0903  0.0963
23487W        W43767   8.553  19.789  12.525  0.2948 -0.1821 -0.2865
23488W        W43768  11.609  12.943   0.265  0.3065 -0.0942 -0.0249
23489W        W43769   5.046  13.124  13.307 -0.0476 -0.0911  0.0803
23490W        W43770   5.058   7.615  10.457 -0.0771  0.2213  0.0938
23491W        W43771  12.720  18.254   1.487  0.0966  0.3866 -0.0137
23492W        W43772   5.774  13.782  13.188  0.5280 -0.0692 -0.0380
23493W        W43773  14.767  11.462   0.461 -0.1949  0.2078  0.0925
23494W        W43774  15.618   4.319   2.904  0.1086 -0.0199  0.0284
23495W        W43775   2.112   6.221  13.468 -0.0060 -0.0168 -0.0942
23496W        W43776  10.663  12.864   0.435  0.3684 -0.2555 -0.2766
23497W        W43777   8.854   6.567  11.668  0.1147  0.2119  0.1855
23498W        W43778   0.311  10.618  12.089  0.1127 -0.1512  0.0545
23499W        W43779   1.987   9.120   2.236 -0.1584  0.2118 -0.1767
23500W        W43780   7.965  11.687   3.863  0.1365  0.2630  0.0934
23501W        W43781   1.903   6.953   3.814  0.0495 -0.0671 -0.0501
23502W        W43782   9.965   1.701   1.633 -0.2108  0.1822  0.3744
23503W        W43783  14.784  13.148  11.018 -0.1053  0.0264  0.0725
23504W        W43784  15.459   8.256  12.066 -0.0547 -0.1132  0.1216
23505W        W43785   9.868  19.043   4.290  0.1203  0.2145 -0.2771
23506W        W43786   2.345   6.368  12.667  0.2485 -0.1881 -0.1135
23507W        W43787   5.909  10.123   0.270  0.0957 -0.2003 -0.0643
23508W        W43788   1.696   9.983  10.738 -0.1032  0.1163  0.2831
23509W        W43789  12.553   2.489  12.048  0.0110 -0.1813 -0.0111
23510W        W43790  14.234   3.189  13.323  0.1032  0.2557  0.0355
23511W        W43791   2.063  12.955   3.342  0.1602 -0.1098  0.4733
23512W        W43792   6.393   3.300  10.723  0.1132 -0.1844 -0.0514
23513W        W43793   0.601  16.498  10.407 -0.1291  0.2259 -0.1135
23514W        W43794  18.631  11.555  10.783 -0.0256  0.2639  0.2358
23515W        W43795   9.701  16.303  13.787 -0.0034  0.0014 -0.2252
23516W        W43796   1.440   5.101   2.580 -0.3076 -0.1264  0.2838
23517W        W43797   6.662  14.979  10.967  0.0970 -0.0803 -0.0923
23518W        W43798  12.899   2.256  11.269  0.2131 -0.0566  0.0528
23519W        W43799   6.485   5.632   0.541 -0.2367  0.0886 -0.1472
23520W        W43800  12.337  19.476  12.325  0.1379 -0.1729  0.0116
23521W        W43801  17.972   5.491  10.753 -0.4852  0.1342  0.3456
23522W        W43802   4.308   9.424   3.001 -0.0043  0.3772  0.1784
23523W        W43803  14.765  15.979   3.123 -0.2339  0.0452 -0.2245
23524W        W43804  12.191  10.840   0.954 -0.1736  0.3565 -0.3186
23525W        W43805  12.042   5.844   2.206 -0.0518  0.0064  0.0874
23526W        W43806  14.912  11.906   1.511 -0.0081 -0.0831  0.0585
23527W        W43807  14.055   6.490  13.026  0.0105 -0.1087  0.0554
23528W        W43808   5.892  14.655   3.742 -0.1205  0.2154 -0.2428
23529W        W43809  14.742   5.093   0.462  0.1375  0.1844 -0.0439
23530W        W43810  14.659   3.810  13.256 -0.1106 -0.0586 -0.0438
23531W        W43811  15.413   5.189   1.990 -0.2396 -0.1255 -0.2736
23532W        W43812   1.237   4.329   9.969 -0.2595  0.0112 -0.0303
23533W        W43813   8.023   0.618   0.195  0.1243  0.3180 -0.0250
23534W        W43814   1.604   8.353   0.806  0.1566  0.0981  0.2273
23535W        W43815  16.672   8.301   1.220 -0.0538  0.2136 -0.3640
23536W        W43816   9.599   9.882  11.653 -0.0751 -0.2092 -0.0392
23537W        W43817   4.641  10.482   1.894 -0.3180 -0.3115  0.0759
23538W        W43818   5.151  10.896   4.094  0.0063  0.4445 -0.2163
23539W        W43819   9.858   4.471   0.033 -0.1100 -0.0629 -0.0250
23540W        W43820   4.537   1.257  11.031 -0.2065 -0.2790  0.2131
23541W        W43821  11.689   0.448  13.769 -0.0370  0.1147 -0.0040
23542W        W43822  10.905  10.391  11.487 -0.1907  0.0108 -0.2685
23543W        W43823   4.783   6.503  12.244  0.1004 -0.3292 -0.3146
23544W        W43824   9.966   8.064   1.646 -0.1810  0.0916 -0.0252
23545W        W43825   7.462  13.588   2.397  0.0817  0.1139 -0.1148
23546W        W43826   3.407  17.834   1.997 -0.3642  0.0976 -0.0738
23547W        W43827   9.167   5.659   0.950  0.1779  0.0372 -0.1292
23548W        W43828  12.530   2.368  13.367 -0.0660  0.0395 -0.0020
23549W        W43829   2.929   0.369   0.113  0.1975  0.2763 -0.3034
23550W        W43830  19.313   4.914  11.162 -0.0355 -0.0181  0.0743
23551W        W43831   0.117   5.045   0.488 -0.0871 -0.2246  0.2503
23552W        W43832  16.442   2.137  12.117 -0.1161  0.1005 -0.2928
23553W        W43833  13.915  16.203   0.671  0.1287 -0.1747 -0.1675
23554W        W43834  15.638   4.559   9.735  0.4492  0.1067  0.0692
23555W        W43835  14.500   7.112  12.310 -0.0712 -0.0293 -0.0533
23556W        W43836   9.891   9.703  10.824  0.5457  0.0180 -0.1024
23557W        W43837  15.802   2.975   3.216 -0.2351 -0.2445 -0.1979
23558W        W43838   9.398  19.686  10.740 -0.0572 -0.1327  0.0959
23559W        W43839   9.975  17.637  10.952 -0.1105 -0.1504  0.0319
23560W        W43840   5.026   7.517   3.624  0.2948  0.1786  0.0072
23561W        W43841   4.313   8.316  12.101  0.0544  0.0140  0.4113
23562W        W43842   0.140  13.089  12.299  0.0003 -0.2105  0.2022
23563W        W43843  19.115  13.311   1.343  0.2268  0.1653  0.2328
23564W        W43844  19.349  10.534   3.183 -0.1801  0.1668  0.0745
23565W        W43845   6.551  19.832  11.715 -0.1433  0.0192  0.2668
23566W        W43846   6.721  17.125   0.124  0.3458 -0.0003  0.0652
23567W        W43847  13.778   6.805  10.534 -0.0461  0.0518  0.1766
23568W        W43848  15.755  17.814   2.185 -0.1285  0.4503  0.0405
23569W        W43849  12.015   4.120  10.100 -0.1038 -0.0554 -0.0543
23570W        W43850   8.419  14.341  12.154 -0.0109 -0.0924 -0.0502
23571W        W43851   7.496  16.659   3.420 -0.1445 -0.0452 -0.1692
23572W        W43852  16.262   9.533  10.070  0.2174  0.1087 -0.0059
23573W        W43853  11.294   6.195   3.646 -0.3712 -0.1362  0.2507
23574W        W43854   1.701   5.982   1.543 -0.3361 -0.2209 -0.1682
23575W        W43855   8.262   8.532   0.158 -0.4880  0.2426 -0.0921
23576W        W43856   4.118   2.296  12.360  0.2429 -0.2732  0.2826
23577W        W43857   7.666   5.894   0.411  0.0282  0.0459 -0.0079
23578W        W43858   9.325  18.610   3.889  0.2350  0.0277  0.4676
23579W        W43859   0.639  18.005   0.790 -0.1285 -0.0670 -0.0925
23580W        W43860   8.393  16.487   2.494 -0.4271 -0.1149  0.1632
23581W        W43861   0.821   5.007   9.507  0.0832 -0.0173 -0.2809
23582W        W43862   2.559   7.241  11.208  0.2160  0.2438  0.1247
23583W        W43863   6.431  14.070   9.910  0.2666 -0.0127 -0.2534
23584W        W43864   8.886  12.312  13.479  0.3444 -0.1306  0.0682
23585W        W43865   6.916   5.991   3.555 -0.1277  0.3575 -0.1445
23586W        W43866  19.921  10.046  12.837 -0.1877  0.2582  0.2196
23587W        W43867   7.308  16.686   0.918  0.0399  0.0316 -0.1697
23588W        W43868   2.999  12.022   0.200  0.0322 -0.0857  0.1936
23589W        W43869   4.436   8.139   9.979 -0.0207 -0.1389  0.2059
23590W        W43870  14.049  15.675   9.898 -0.1628  0.2499  0.1319
23591W        W43871   5.653   3.385   2.774  0.0852 -0.4366  0.0792
23592W        W43872   9.423   9.535  11.995  0.4035  0.1379 -0.2889
23593W        W43873   4.861  19.758   1.234  0.0896  0.1403 -0.1350
23594W        W43874   4.422  13.629   1.196 -0.1824  0.1061  0.2511
23595W        W43875   4.821   9.941   2.078 -0.0552 -0.1583 -0.0296
23596W        W43876  11.714   1.872   3.474 -0.2038 -0.1559  0.4343
23597W        W43877  14.158   2.062   0.146 -0.1742  0.0307 -0.0729
23598W        W43878  14.011   9.253  11.156 -0.0843  0.0486 -0.0987
23599W        W43879  13.114  12.011   2.154 -0.0805  0.0454  0.2825
23600W        W43880  14.067   2.245  13.545 -0.1316  0.1151  0.2074
23601W        W43881  16.254  12.402   3.413  0.3771 -0.2020 -0.1011
23602W        W43882  15.816   1.033  12.401 -0.0716 -0.1463 -0.1332
23603W        W43883  16.887   0.400  10.836 -0.2481  0.4453  0.1025
23604W        W43884   5.514   9.588   0.300 -0.0118 -0.0370  0.1607
23605W        W43885  19.386  12.355  10.203 -0.0988 -0.0382  0.2638
23606W        W43886   0.438   8.763   2.238  0.1002 -0.2504  0.0234
23607W        W43887   8.864   7.920   2.339  0.2403  0.2057 -0.4227
23608W        W43888   6.653  19.103   3.612  0.0872 -0.3993 -0.2526
23609W        W43889  12.952   3.364   1.352  0.1661 -0.2643 -0.2785
23610W        W43890  11.609   9.662   1.302 -0.2261  0.2372 -0.0301
23611W        W43891   3.884   6.641   2.541 -0.0811 -0.1087  0.1586
23612W        W43892   8.201   4.553   3.489  0.1190  0.0293  0.1963
23613W        W43893   7.112   8.394  13.305  0.0844  0.2306  0.0053
23614W        W43894  14.655   0.136   0.184  0.0957  0.0123  0.2450
23615W        W43895  19.554   7.193   1.589  0.0433  0.2364  0.5285
23616W        W43896   0.056   0.902   1.445 -0.0493 -0.4316  0.1259
23617W        W43897  13.519   7.119   2.968 -0.6949 -0.3439 -0.0131
23618W        W43898   0.108   3.016  12.029  0.2158  0.0842 -0.0867
23619W        W43899  12.039  17.764   1.524  0.0653  0.0554  0.0711
23620W        W43900  13.870   0.054  10.210 -0.2891  0.1127  0.0438
23621W        W43901  13.734   3.000   2.557  0.0627  0.1260  0.2481
23622W        W43902   3.371   7.621  10.116  0.2157  0.1482  0.2091
23623W        W43903  19.773  13.969  12.749 -0.1720 -0.1090 -0.0148
23624W        W43904   0.210  12.755   1.131 -0.1817  0.3150  0.3895
23625W        W43905   0.658  13.422  13.790 -0.3914  0.0190 -0.1339
23626W        W43906  15.380  14.955  10.886  0.3126 -0.0695  0.0773
23627W        W43907  11.565  12.324   3.034 -0.2127 -0.1165  0.0909
23628W        W43908  12.986   7.791   0.684 -0.0090  0.0107  0.3778
23629W        W43909  12.688  17.122  10.505  0.0703 -0.4735  0.0267
23630W        W43910   3.582  19.778   1.445  0.2560  0.1833 -0.3686
23631W        W43911  16.337   3.772   2.707  0.4001 -0.1762 -0.3472
23632W        W43912  18.600  13.265  10.020  0.3719  0.0435  0.0285
23633W        W43913  19.835  12.890   0.083  0.3265  0.1887 -0.1791
23634W        W43914  14.577   3.880   1.489 -0.3223 -0.2308  0.0488
23635W        W43915   7.631  19.140  10.804 -0.1768 -0.0339 -0.2533
23636W        W43916  13.262   8.685   2.338 -0.0733  0.2243  0.1664
23637W        W43917  12.523  18.593  11.603 -0.2842 -0.1945  0.1671
23638W        W43918   8.828   6.098  10.823 -0.1236  0.0907  0.1559
23639W        W43919  12.094   4.486  11.454 -0.0034 -0.2132  0.5825
23640W        W43920   6.544  15.767   3.335 -0.0511 -0.0114 -0.0614
23641W        W43921  19.668  13.682   2.141  0.0924  0.1359  0.1580
23642W        W43922   1.030   2.928   0.439  0.1595  0.4181  0.1103
23643W        W43923   4.333   2.896   0.464 -0.0513 -0.1688 -0.0238
23644W        W43924   5.194  18.415   3.458  0.5182 -0.1935 -0.1116
23645W        W43925   4.997  10.579   2.392  0.3550  0.1873  0.2010
23646W        W43926  10.620   5.771   0.032 -0.2476  0.0408 -0.6211
23647W        W43927   9.027  15.938   1.624 -0.0088  0.1656 -0.2135
23648W        W43928  19.134   0.232  11.170 -0.1161 -0.2477 -0.1419
23649W        W43929  17.042  15.570  11.333 -0.0163 -0.2331 -0.0070
23650W        W43930  12.517  14.707  10.715  0.0387 -0.2235 -0.0933
23651W        W43931  11.166  12.854  12.612 -0.1830  0.1196 -0.2040
23652W        W43932  14.173   8.821   2.992  0.1840 -0.2870  0.1256
23653W        W43933   4.014   2.460  11.002  0.2240 -0.0858 -0.0139
23654W        W43934  15.222  12.919  11.655 -0.0854  0.4541  0.1283
23655W        W43935   4.623  16.245   4.410  0.0956 -0.0708 -0.0403
23656W        W43936   4.405  12.509   1.933 -0.0578  0.1043  0.0191
23657W        W43937   3.555   5.024  11.968 -0.3032 -0.1353 -0.0111
23658W        W43938   8.613   6.603  12.904 -0.1469 -0.1414 -0.2733
23659W        W43939  13.590   8.399   0.527  0.0074  0.2291 -0.0765
23660W        W43940  10.262  18.637   3.334  0.0951  0.1234  0.0298
23661W        W43941   2.811  11.270   3.910  0.0565  0.3909  0.1100
23662W        W43942   9.208   4.750   2.615  0.0423  0.2236 -0.4676
23663W        W43943  13.345   3.429   1.716  0.1683 -0.0277 -0.1708
23664W        W43944   2.661  13.619   3.977  0.1844  0.2220 -0.0759
23665W        W43945  18.395  10.457  13.038  0.0228  0.1742  0.2394
23666W        W43946   1.800  16.051  13.047 -0.0076  0.0724 -0.1013
23667W        W43947  16.893  17.910  10.034 -0.0816  0.4699  0.3497
23668W        W43948  13.226  13.058   0.552  0.2118  0.1419  0.2282
23669W        W43949  12.315   8.784  10.439  0.0238 -0.0122 -0.1429
23670W        W43950  16.500   0.450   1.581  0.3550 -0.1074  0.1578
23671W        W43951   7.154   7.946  13.066  0.1927  0.1192 -0.0131
23672W        W43952   9.900  10.731  13.516  0.1719 -0.0654  0.3400
23673W        W43953   8.091   7.485   3.959  0.0392 -0.1976  0.3277
23674W        W43954   2.230  15.971  12.365 -0.2862  0.4021  0.0646
23675W        W43955  13.122  15.036   4.701 -0.0981 -0.1700  0.1610
23676W        W43956  14.444  16.998   9.686  0.2255  0.2322 -0.1628
23677W        W43957   9.218   8.219   2.963  0.0431  0.3453 -0.0017
23678W        W43958  13.014  11.479  13.535  0.1411  0.1080 -0.1177
23679W        W43959  12.897   4.442  13.690 -0.0808 -0.1488  0.1491
23680W        W43960  10.824   8.063  11.495 -0.1003 -0.4126 -0.2894
23681W        W43961   2.950  17.752   4.014 -0.0591  0.0826  0.0719
23682W        W43962  10.867   6.739   0.167 -0.0038  0.2465 -0.1351
23683W        W43963  16.561   0.081   3.427  0.1778  0.2507  0.0169
23684W        W43964  11.928  13.736   0.200  0.0754  0.0196  0.2926
23685W        W43965  13.246  19.549   0.240  0.0012 -0.2670 -0.0034
23686W        W43966  11.726   2.066  12.399  0.3098  0.1619  0.0841
23687W        W43967  11.542  17.887  12.152  0.0478 -0.2857 -0.0060
23688W        W43968  18.875   8.445  12.540 -0.0038  0.2467  0.0396
23689W        W43969  14.926   2.248   1.090  0.0274 -0.2091  0.0052
23690W        W43970   8.210  11.291   0.109 -0.0683 -0.0912 -0.0121
23691W        W43971   6.775   5.823   0.976  0.2625 -0.1340  0.3034
23692W        W43972  17.486  15.631   1.959  0.0291  0.1418  0.0336
23693W        W43973  16.218   8.384  12.178 -0.1634  0.0624 -0.3350
23694W        W43974  14.004  12.843   1.533  0.2086 -0.0314  0.1143
23695W        W43975   9.581  18.158  11.840 -0.1781 -0.1491  0.3576
23696W        W43976   8.805  17.810   1.522  0.3195  0.2690 -0.0996
23697W        W43977  12.482   0.726  11.834 -0.1142  0.0489 -0.0694
23698W        W43978   5.475  10.538  11.569  0.1393 -0.2088  0.1623
23699W        W43979   2.405   8.442  11.835 -0.5035  0.0224 -0.2145
23700W        W43980  12.559   6.017   2.201  0.0348  0.1599 -0.0226
23701W        W43981  17.052  11.101  11.524 -0.0633  0.0553  0.0794
23702W        W43982   6.597  14.960   5.090  0.4915 -0.1431 -0.3799
23703W        W43983   1.125   3.264  11.786  0.1465  0.0667  0.0268
23704W        W43984  10.584   6.917   3.434 -0.0325 -0.0972 -0.0592
23705W        W43985   6.384   5.831   3.573 -0.1263 -0.0541  0.0948
23706W        W43986   2.763   6.358   1.441 -0.0828 -0.0540  0.2682
23707W        W43987  17.691  16.368   1.295  0.0084  0.1895 -0.0468
23708W        W43988  13.113   1.170  12.501 -0.2054 -0.0564 -0.0711
23709W        W43989   4.225  19.101   4.072 -0.3425 -0.0341  0.2800
23710W        W43990  18.884  11.809  12.857 -0.1501  0.2780 -0.3813
23711W        W43991   8.286   1.280  12.541 -0.1972  0.0189 -0.2781
23712W        W43992   4.196   1.595  13.665  0.1106 -0.1573  0.2426
23713W        W43993   9.371  13.636   2.006 -0.0878  0.0579  0.0778
23714W        W43994   8.047   0.984   3.462  0.0564  0.1230  0.3411
23715W        W43995  16.205   3.141   2.528  0.2459 -0.1757 -0.0187
23716W        W43996  19.363  12.111  11.919 -0.0878  0.0631 -0.0872
23717W        W43997  14.229   4.106  11.672  0.1455 -0.0620 -0.1034
23718W        W43998   3.807   9.705   0.598 -0.0405 -0.0352  0.3686
23719W        W43999  15.386  19.900  11.859  0.0520 -0.0818  0.0891
23720W        W44000  16.426   1.801  11.714 -0.5277 -0.2340  0.1327
23721W        W44001   9.016   4.242   1.485  0.1533  0.3461 -0.4577
23722W        W44002  15.442  18.228   1.337 -0.1319 -0.1000 -0.2100
23723W        W44003   8.800  14.567   1.718  0.3129 -0.3425  0.0240
23724W        W44004   8.474  14.893  11.322 -0.2357  0.1225  0.0217
23725W        W44005  16.271  19.308  12.969  0.3791 -0.1951 -0.0197
23726W        W44006   9.112  12.723   0.531  0.4029  0.2334 -0.0153
23727W        W44007  10.744   2.947   3.518  0.2298  0.1178 -0.0920
23728W        W44008  11.643   6.393   1.979  0.0148  0.3365  0.2649
23729W        W44009   5.891   2.364  11.422 -0.1498  0.3301 -0.1375
23730W        W44010  15.824   4.696   4.010  0.0664 -0.1745 -0.1203
23731W        W44011  14.334   6.681  11.004  0.0036 -0.1768  0.0640
23732W        W44012  13.125   5.763   3.686 -0.0603  0.3040  0.3619
23733W        W44013   2.270  17.190   3.724 -0.0306 -0.0947 -0.0731
23734W        W44014   0.590  17.902   1.383 -0.3116  0.1027  0.0804
23735W        W44015  15.832   0.191   1.864 -0.0242  0.3690  0.0485
23736W        W44016   1.680   7.212  13.603  0.1848  0.1974  0.0639
23737W        W44017   5.426   1.143   2.960  0.2321  0.1963 -0.1235
23738W        W44018   0.221  15.137   9.104 -0.1294  0.1505  0.1798
23739W        W44019   5.164   2.312  13.285  0.2252 -0.2576  0.4409
23740W        W44020  12.255  13.914   2.048  0.4324  0.2378  0.1686
23741W        W44021   1.435   6.252   1.881  0.1183 -0.1387  0.0172
23742W        W44022   2.064   6.953  13.800  0.0418 -0.0830 -0.1128
23743W        W44023  12.241   5.210  10.859  0.1732 -0.3018  0.1228
23744W        W44024  17.357  14.077  13.641 -0.1405  0.2571  0.3534
23745W        W44025   5.775  18.162   1.127  0.0773 -0.1371  0.1362
23746W        W44026   0.364   1.186   2.510 -0.3633 -0.0951  0.5443
23747W        W44027  13.451  10.509   1.646 -0.2983  0.1378  0.0130
23748W        W44028  18.086   8.123  13.484  0.0136  0.1838 -0.1972
23749W        W44029  19.565   2.330   3.767  0.0235  0.0220 -0.5202
23750W        W44030   4.606   0.734  13.622  0.0294 -0.2874  0.0226
23751W        W44031   7.323   2.882   3.286 -0.2527 -0.0163  0.0718
23752W        W44032   5.224   9.184   2.930 -0.1226 -0.2862 -0.1144
23753W        W44033   6.347  11.052  11.206  0.0455  0.1012  0.0863
23754W        W44034   2.320  15.099  13.101 -0.0394 -0.0066 -0.1122
23755W        W44035  14.890   3.067  12.977  0.4019  0.2231  0.1657
23756W        W44036   3.604   3.363   3.133  0.0251  0.0542 -0.1844
23757W        W44037   1.465  13.166  13.818 -0.1093  0.2591 -0.3989
23758W        W44038  16.817   5.879   0.371 -0.1111  0.1758  0.0975
23759W        W44039   7.087   7.970   0.165 -0.1402 -0.1182 -0.0363
23760W        W44040  14.650  19.641  12.160  0.1936  0.0493  0.3126
23761W        W44041  14.636  17.026  12.166 -0.1656  0.2115  0.0832
23762W        W44042   6.136  15.807   0.456  0.1984 -0.1987  0.0039
23763W        W44043   3.606   2.172   0.489  0.1292  0.0619 -0.2443
23764W        W44044   9.559   9.715   2.933  0.0434 -0.0332 -0.2104
23765W        W44045   1.931   5.404  11.225 -0.0733  0.1192  0.2074
23766W        W44046  12.634   1.876   1.739  0.0807 -0.2625  0.0739
23767W        W44047  11.341   3.106  12.828 -0.1804 -0.1988  0.1565
23768W        W44048   7.021  15.362   9.384 -0.0049 -0.1321  0.0067
23769W        W44049   0.451   3.524   3.016  0.0450 -0.0942  0.1886
23770W        W44050  14.020  16.444   2.824 -0.0759  0.2181  0.1719
23771W        W44051   7.884  17.025  13.708  0.1209  0.3721  0.2517
23772W        W44052  17.866   8.599  10.544 -0.1326 -0.2089  0.1707
23773W        W44053   9.156  14.168   0.797 -0.0894 -0.1587  0.0404
23774W        W44054   5.767  10.098   9.952 -0.0166  0.1161  0.6376
23775W        W44055  19.606   1.509  11.568 -0.0767 -0.1527 -0.2107
23776W        W44056  14.130  19.208   0.798 -0.1263  0.1698  0.1632
23777W        W44057   3.071  14.439  13.611  0.1083  0.1033  0.1112
23778W        W44058  13.107   3.745  12.984  0.1960  0.1612 -0.2420
23779W        W44059  11.188   7.753  12.835  0.0819 -0.0428  0.1060
23780W        W44060  17.793  15.967  11.717  0.2155  0.0388  0.2148
23781W        W44061   4.825  15.601  13.292  0.1903 -0.1128 -0.0060
23782W        W44062   0.873  10.820   2.668  0.0585  0.2152  0.0374
23783W        W44063   8.759   6.895   4.255  0.1711 -0.2007  0.0732
23784W        W44064   7.180  13.192   3.199 -0.0510 -0.1863  0.0630
23785W        W44065  17.819   4.321  10.217  0.0180 -0.0082  0.1318
23786W        W44066  17.726  19.397  12.031 -0.0349  0.4373  0.1472
23787W        W44067  10.102   4.553  11.804 -0.0736 -0.1334  0.1455
23788W        W44068  13.415   5.835   0.244 -0.0343  0.1434 -0.2930
23789W        W44069   7.430  14.620  11.509 -0.0366 -0.0115 -0.1558
23790W        W44070   2.942   8.627   3.234  0.3573 -0.0036 -0.0721
23791W        W44071  19.840  16.719  10.052 -0.1117  0.1325  0.1532
23792W        W44072   0.062  11.290   0.551 -0.1672 -0.1106  0.3232
23793W        W44073   4.267  12.223  12.644 -0.3865  0.3476  0.1439
23794W        W44074   7.162   1.595  11.606  0.1250 -0.1008  0.1490
23795W        W44075   2.169   5.135  13.305 -0.1287 -0.3363  0.2655
23796W        W44076   8.023   3.168  10.733  0.1113 -0.3504 -0.0238
23797W        W44077  16.753  16.140  13.510  0.0924 -0.2575  0.0515
23798W        W44078   2.141   0.992  10.702 -0.0458 -0.0227  0.0638
23799W        W44079   5.494  11.528   0.583  0.2969 -0.4802  0.2412
23800W        W44080  10.354  18.131   1.665  0.2011  0.2663 -0.2519
23801W        W44081  11.647  15.368  11.113  0.0079  0.1398 -0.2336
23802W        W44082  14.182  11.223   1.671 -0.2584 -0.1745  0.0747
23803W        W44083   0.188  12.028   2.659  0.0177 -0.1218 -0.0030
23804W        W44084  11.375   5.381   0.235  0.1576 -0.2739 -0.0701
23805W        W44085  10.630  13.733   3.416  0.2623  0.0700 -0.1469
23806W        W44086  18.233   9.359  12.318 -0.3266  0.0978 -0.0891
23807W        W44087  11.859   0.391   3.005  0.0709  0.0902 -0.0013
23808W        W44088   6.407  15.679  12.902  0.1879 -0.2147 -0.1922
23809W        W44089   7.536  10.946  10.536 -0.1111 -0.1171  0.0400
23810W        W44090  11.837   9.368   2.815 -0.1523  0.0717  0.2602
23811W        W44091   1.957  13.744  11.234 -0.0381 -0.0755  0.0467
23812W        W44092   2.563   1.084   0.418 -0.0824 -0.3677  0.2104
23813W        W44093   5.317  13.527  12.269 -0.0380  0.1662  0.1343
23814W        W44094  19.834   9.675  11.042 -0.1729  0.1809  0.0689
23815W        W44095   3.502  17.344   0.249  0.1994  0.0960  0.2197
23816W        W44096  13.982  15.227  10.139  0.0619  0.0017  0.0159
23817W        W44097   9.595   5.257   2.227 -0.2555  0.1043 -0.0703
23818W        W44098   2.744   1.917   0.218 -0.2373 -0.3068 -0.0459
23819W        W44099   5.169  14.354   0.267  0.1984 -0.1112 -0.0909
23820W        W44100  10.646  12.729   4.200  0.2024  0.0448  0.1450
23821W        W44101  11.258   6.089   0.993  0.0866  0.0567  0.2912
23822W        W44102  17.105   2.580   4.076  0.2615  0.0133  0.0674
23823W        W44103  11.338  18.121   1.716 -0.0312  0.1030  0.1808
23824W        W44104   2.422  10.327  13.445  0.1456 -0.0446  0.1744
23825W        W44105   3.166  13.446   4.042  0.0765 -0.0330 -0.1076
23826W        W44106  10.688   4.058   0.914 -0.1205 -0.1103  0.0037
23827W        W44107  13.849  14.996   2.238  0.1209 -0.1770 -0.0446
23828W        W44108   2.885  11.107   1.996 -0.0590 -0.0725  0.3918
23829W        W44109  11.232   7.242   1.467  0.0316 -0.2711 -0.0546
23830W        W44110  14.604  11.219  13.336 -0.0068 -0.2665  0.2518
23831W        W44111  14.541   4.480  13.506  0.0411 -0.2637  0.2419
23832W        W44112   3.032   9.623  12.711  0.4215  0.2961  0.1499
23833W        W44113  10.767   3.036  10.414 -0.0626 -0.1054 -0.4514
23834W        W44114  14.494  12.238   1.520 -0.0271 -0.1522 -0.2256
23835W        W44115   9.857  10.445   0.061 -0.0525  0.0593 -0.0622
23836W        W44116   1.301   8.309   1.233  0.0640 -0.2117  0.1464
23837W        W44117  10.386  13.542  10.322 -0.2076 -0.0106 -0.1873
23838W        W44118  10.820  10.472   3.050  0.1661  0.0880 -0.0178
23839W        W44119   9.075   2.080   9.724 -0.0340 -0.1247  0.2324
23840W        W44120  11.246   2.896  10.367 -0.1519 -0.3037 -0.4069
23841W        W44121   7.912  10.782   2.860 -0.0125  0.2487  0.0555
23842W        W44122   4.704  18.836   2.723 -0.2083 -0.0031  0.1652
23843W        W44123  19.464   7.134   3.030  0.0365 -0.0197  0.1476
23844W        W44124  12.955   7.179   3.251  0.2640  0.2312 -0.1564
23845W        W44125   5.875   6.801  13.683 -0.3125  0.2434 -0.0757
23846W        W44126   8.245   4.683  11.190  0.0238 -0.0173 -0.0855
23847W        W44127   6.478   5.200  10.962  0.0473  0.0930 -0.0820
23848W        W44128   4.337   5.720  13.362 -0.1708 -0.0970  0.0310
23849W        W44129  13.145   8.210   0.325  0.1438 -0.2216 -0.1778
23850W        W44130   4.568   7.403  12.462 -0.1883  0.1124 -0.0693
23851W        W44131  19.556   2.710  12.082 -0.0195  0.0437  0.0510
23852W        W44132   0.857  17.292  10.716 -0.0289  0.2596 -0.2261
23853W        W44133   3.531  15.839  13.249 -0.2499  0.1871  0.0928
23854W        W44134   6.460   1.564   9.784  0.1358  0.0457  0.4070
23855W        W44135  15.839  10.504  13.532  0.1603  0.1471  0.1645
23856W        W44136   4.703  14.614   1.491 -0.0979 -0.1633 -0.2489
23857W        W44137   0.464  15.954  10.974  0.0902 -0.2505 -0.2068
23858W        W44138  16.506  15.056  11.015  0.0460 -0.1398 -0.2238
23859W        W44139   5.272  16.253   0.727 -0.0487 -0.0222  0.3176
23860W        W44140   2.438  16.830   2.071  0.1746  0.2552 -0.1638
23861W        W44141   0.146  11.502  13.612  0.0061  0.0220  0.0534
23862W        W44142  10.915   5.450  12.032 -0.0397  0.1145  0.1023
23863W        W44143  14.483   2.160  11.924  0.2134 -0.0402  0.3125
23864W        W44144   5.085   6.897  11.040 -0.2001 -0.2094 -0.0266
23865W        W44145   8.312   9.648   3.725 -0.3136  0.1002 -0.0350
23866W        W44146  14.195  13.845   2.428 -0.0684 -0.1698 -0.2387
23867W        W44147  17.230  16.204  11.224 -0.5367  0.2836  0.0452
23868W        W44148   7.746  10.943  11.768  0.2571 -0.0139 -0.0396
23869W        W44149   2.040   0.679   1.367  0.2934 -0.3176 -0.1386
23870W        W44150   7.943   7.630  11.094 -0.1219  0.1120 -0.2164
23871W        W44151  18.802   9.541   3.198  0.2085 -0.3815  0.4552
23872W        W44152  18.651   4.737   1.827  0.0612 -0.1807  0.1410
23873W        W44153   6.876   7.422   0.307 -0.0196 -0.4183  0.0677
23874W        W44154  13.439   2.874  10.941 -0.1369 -0.1203  0.2342
23875W        W44155  10.353  15.367   0.175 -0.1408 -0.1900  0.0622
23876W        W44156  17.955  10.958   9.462 -0.1738  0.1056 -0.0729
23877W        W44157   3.471  10.056   3.478 -0.0017 -0.1384  0.1283
23878W        W44158   8.503   8.499  10.912  0.0334  0.0588 -0.2166
23879W        W44159  11.008   5.523   3.974 -0.2688 -0.0996  0.0830
23880W        W44160   3.221  13.582   1.386 -0.0306 -0.0199 -0.2099
23881W        W44161  19.365   3.680  10.541  0.4875 -0.0160 -0.3325
23882W        W44162   7.162   6.774   2.808  0.0148  0.1795 -0.3239
23883W        W44163  10.651  11.207   9.492  0.3595  0.1738  0.2440
23884W        W44164   4.442   6.893  12.343 -0.1490 -0.5402 -0.0874
23885W        W44165  11.340  18.413  11.282  0.4293 -0.1602 -0.3112
23886W        W44166  13.104   2.744  13.089 -0.1728 -0.0513 -0.0914
23887W        W44167  19.290   3.503   3.277  0.1808  0.0459  0.1851
23888W        W44168  11.389  19.488   5.163 -0.4882 -0.0658  0.0441
23889W        W44169   1.589   2.452   1.043  0.4228 -0.3562 -0.1721
23890W        W44170   9.503   2.715  12.963  0.1083  0.0940  0.0958
23891W        W44171   8.451   7.744  10.791 -0.2450 -0.1679 -0.0171
23892W        W44172   8.367  17.401   0.435 -0.0169 -0.0153 -0.1455
23893W        W44173  16.949  10.992  10.637 -0.0715  0.0197 -0.0110
23894W        W44174   5.031  10.336   0.570 -0.1124 -0.2901 -0.0138
23895W        W44175   7.983  13.704  12.505 -0.3779  0.1062 -0.3737
23896W        W44176   4.591   6.860   2.947 -0.1393 -0.0535 -0.1440
23897W        W44177  19.326   0.595   0.633  0.1806  0.0705 -0.0398
23898W        W44178  13.232   5.576  10.863  0.0332  0.1441  0.1508
23899W        W44179   6.904   0.421   1.938  0.2148 -0.1872 -0.2374
23900W        W44180  18.510  13.650   2.901  0.0667  0.0510 -0.1430
23901W        W44181  14.503   2.433  13.830  0.0539  0.1808  0.1205
23902W        W44182   7.143   3.264  13.455  0.0232  0.3724  0.0830
23903W        W44183  15.461   4.079   0.031  0.0622 -0.0294  0.2716
23904W        W44184   4.721   3.849   2.843 -0.0569  0.1009  0.0799
23905W        W44185   5.153  12.993   2.855 -0.0030  0.1218  0.2834
23906W        W44186   2.846   4.214   1.988 -0.0105 -0.1504  0.0715
23907W        W44187   2.861  10.096  13.310  0.1877  0.4367  0.1135
23908W        W44188   1.308  15.200  13.088  0.2597  0.2552 -0.2250
23909W        W44189   6.590  16.993   4.192  0.1829 -0.0625  0.0196
23910W        W44190   0.574  18.725   3.158 -0.1858 -0.1030 -0.1987
23911W        W44191  10.585   5.732   4.255 -0.1322  0.0736 -0.0714
23912W        W44192   0.394   7.017  10.400  0.1199 -0.0285 -0.3882
23913W        W44193  10.635   8.850   3.174 -0.0981 -0.2540 -0.2456
23914W        W44194  16.419   1.532   2.416 -0.2904  0.0804 -0.1885
23915W        W44195  11.964   9.203  12.420  0.1334  0.4697 -0.1756
23916W        W44196  15.751  13.676   8.820  0.1606 -0.1083  0.2312
23917W        W44197   9.420   1.616  11.694 -0.1595 -0.0059 -0.3791
23918W        W44198   5.353   7.694  10.870  0.0939 -0.1000  0.0621
23919W        W44199  16.834  19.850  12.657 -0.1995  0.2539  0.1774
23920W        W44200  14.304  17.458  11.351 -0.2066  0.0737  0.1684
23921W        W44201  19.463  10.334  10.969  0.0142  0.2468  0.0748
23922W        W44202  10.316   7.558   0.507  0.1998  0.0964  0.2415
23923W        W44203   4.529   5.998   2.409 -0.2224  0.1127 -0.0079
23924W        W44204  19.953  13.505  12.679  0.1143  0.0848 -0.0777
23925W        W44205   4.634  15.885  11.963  0.1430  0.0888  0.2549
23926W        W44206   5.078  18.171   1.873  0.0465 -0.1049 -0.1309
23927W        W44207   0.695  16.473   2.221  0.0133 -0.3312  0.1501
23928W        W44208  15.555  13.292  12.553  0.0204 -0.3736 -0.0352
23929W        W44209  10.220  18.354  12.704  0.1015 -0.0962 -0.1689
23930W        W44210  10.113   9.008  11.509  0.0330  0.1740 -0.0807
23931W        W44211  16.254  19.594  12.049 -0.1690  0.0365  0.0208
23932W        W44212  16.116  10.123   1.862  0.3347 -0.2124 -0.0538
23933W        W44213   4.528  16.532   4.801  0.2775 -0.1005  0.1658
23934W        W44214   5.179   1.025   4.993  0.0341  0.0786  0.1445
23935W        W44215   3.238  11.017   3.364 -0.0819  0.0434  0.0382
23936W        W44216   4.038   5.314  11.976  0.3332  0.2020  0.2992
23937W        W44217  13.171  15.117  11.611 -0.1394  0.2225 -0.2265
23938W        W44218   5.631  11.769   3.407 -0.0867  0.0373 -0.0631
23939W        W44219  13.538   8.928  12.326 -0.1699 -0.0818 -0.0195
23940W        W44220  13.508  13.295   9.903 -0.5299 -0.1614  0.2394
23941W        W44221  18.015   1.820  12.295  0.0280 -0.1107  0.2975
23942W        W44222  15.380  19.423   0.276  0.1719 -0.2284  0.0595
23943W        W44223   1.439  10.194   0.537 -0.0410  0.1066  0.1529
23944W        W44224   0.316  17.521   3.811 -0.0013 -0.0943  0.2479
23945W        W44225  15.558  14.126  12.376  0.1100 -0.1237 -0.0415
23946W        W44226   0.527  11.500   2.111  0.0798  0.0750  0.1887
23947W        W44227  10.439  12.816   2.459  0.2407  0.0757  0.3406
23948W        W44228  16.701  15.131  11.964 -0.3338  0.2168 -0.2714
23949W        W44229   8.806  18.123   0.173 -0.2232  0.0537 -0.1119
23950W        W44230   6.292  12.559  13.653  0.3083 -0.2815 -0.0275
23951W        W44231  15.525   4.451   3.452 -0.0252  0.0058  0.1478
23952W        W44232   9.244  17.113  11.937 -0.3446  0.3988  0.3661
23953W        W44233  10.132   2.610   2.996 -0.2322 -0.0490 -0.0735
23954W        W44234  13.539   4.012   2.628 -0.3042 -0.0642  0.4512
23955W        W44235   6.665   6.967   3.638 -0.0320  0.3567 -0.0305
23956W        W44236   5.107   8.375  13.558  0.4947 -0.1599  0.2103
23957W        W44237  16.653   1.585  12.399  0.1125  0.0657 -0.1877
23958W        W44238   8.653   5.246   2.830  0.3642 -0.2129  0.0291
23959W        W44239  19.861  18.581   1.632  0.0833  0.1690  0.0543
23960W        W44240   2.474  10.797  13.657  0.3674 -0.0810  0.0462
23961W        W44241  17.913   7.720  12.230 -0.0913 -0.0773  0.2428
23962W        W44242  19.854  18.242  10.775 -0.4510  0.2367 -0.0079
23963W        W44243   0.266   1.849   9.845  0.0695  0.0765 -0.0356
23964W        W44244   7.396   9.586   0.827 -0.1146  0.2087  0.4427
23965W        W44245   6.906  12.809   2.971  0.1392 -0.1323 -0.2562
23966W        W44246   8.253  17.348  10.327 -0.0576 -0.2003 -0.0104
23967W        W44247  13.562   2.536  12.844  0.0202 -0.1113 -0.2031
23968W        W44248   6.646   6.023   3.163 -0.1038 -0.1507 -0.3117
23969W        W44249  16.189   8.120   0.280 -0.1300 -0.2363  0.1321
23970W        W44250   4.612  13.193  10.197  0.0561  0.5271  0.0926
23971W        W44251   0.276   3.910   2.024  0.0012  0.0963  0.0493
23972W        W44252  13.156  12.281   3.492 -0.2415 -0.1592 -0.0308
23973W        W44253  19.781  10.285  10.145 -0.0570  0.2403  0.1483
23974W        W44254  17.278  12.711   3.176 -0.1244  0.0075 -0.0807
23975W        W44255   6.795  15.221   3.963 -0.2412 -0.0421 -0.0220
23976W        W44256  11.985   2.801  11.138  0.0853  0.5089  0.1200
23977W        W44257  15.911  15.635  13.264 -0.2368 -0.1287 -0.3008
23978W        W44258   6.692   4.454   1.163  0.0480 -0.3042 -0.1377
23979W        W44259   9.386  18.260  12.670 -0.1564  0.4342 -0.0536
23980W        W44260   2.614  10.425  12.000 -0.2573  0.1765  0.2578
23981W        W44261  18.949  11.888   9.442 -0.0923 -0.2421  0.0572
23982W        W44262  19.604   7.506   0.691  0.1619 -0.3268 -0.1418
23983W        W44263   0.820   0.212   1.575 -0.0546 -0.1743 -0.2758
23984W        W44264  15.667   0.732  12.841 -0.0585 -0.1665 -0.0796
23985W        W44265   1.065   6.578  11.639  0.0916  0.0846 -0.1012
23986W        W44266   5.155   0.017   3.289 -0.0265 -0.1203 -0.3255
23987W        W44267   3.042  15.391  12.161  0.3142  0.1278 -0.1079
23988W        W44268  17.637   6.977   2.976 -0.4389 -0.1661 -0.2758
23989W        W44269  16.623   0.036   1.249 -0.1886  0.1961 -0.2750
23990W        W44270  16.705  14.007   2.702 -0.0228  0.0843 -0.1267
23991W        W44271  11.722   1.695  13.206 -0.0079  0.1735  0.2541
23992W        W44272   5.988   2.166  10.399  0.2103 -0.1155 -0.1047
23993W        W44273   6.146   6.787   3.399  0.4776  0.0011 -0.4188
23994W        W44274   6.177  10.051  11.266  0.1685  0.0904 -0.0442
23995W        W44275   2.853  18.172  11.409 -0.1300  0.0264  0.1606
23996W        W44276  17.047  10.444  12.900 -0.0715  0.0391 -0.1413
23997W        W44277   8.849   8.531   5.105  0.0956 -0.2088  0.0462
23998W        W44278  16.535  18.671   1.728 -0.1056  0.2100  0.1418
23999W        W44279  12.743   7.006   2.304 -0.2733  0.2541 -0.1554
24000W        W44280   9.799  10.741   1.333  0.1263  0.4306 -0.2890
24001W        W44281   0.189  15.956   0.856  0.0977  0.1257 -0.0248
24002W        W44282  11.891  17.057  12.140  0.1216  0.1818 -0.1396
24003W        W44283  15.849  13.862  10.902  0.0581  0.0207  0.0913
24004W        W44284  11.890   3.977   2.736  0.0054  0.0553  0.1768
24005W        W44285  19.343   6.029  13.711  0.1877 -0.1601 -0.2899
24006W        W44286  10.136  19.117   4.700 -0.1113 -0.0790  0.1380
24007W        W44287  15.004  12.184  11.085  0.3234 -0.5572  0.2017
24008W        W44288  14.144   8.585   3.889  0.1266  0.2301 -0.0065
24009W        W44289  11.555  18.747  13.851  0.0510 -0.4414  0.2382
24010W        W44290   9.049  12.484   1.434  0.1108  0.2083 -0.1071
24011W        W44291  18.331   8.110   0.695  0.1180  0.0982  0.2222
24012W        W44292  14.909   1.735  13.602  0.0807  0.1793  0.2145
24013W        W44293   8.527   6.037  12.291  0.1833 -0.1552  0.1646
24014W        W44294  10.081   5.195  12.192  0.0468 -0.1481 -0.0479
24015W        W44295   3.269  16.388  12.298 -0.2831 -0.0230 -0.1057
24016W        W44296  12.609  14.941   1.074  0.0805  0.0638 -0.1063
24017W        W44297  15.962  14.612   8.933 -0.2437  0.2922  0.0683
24018W        W44298   2.002  17.194  13.667 -0.0502  0.1245 -0.2818
24019W        W44299  10.712  13.758  11.907  0.0502  0.2978 -0.1417
24020W        W44300   2.252   9.338   1.061  0.0646  0.0468 -0.0422
24021W        W44301  17.591  15.314   3.592  0.3492 -0.1949  0.1316
24022W        W44302   3.957   7.277   9.012 -0.1410  0.1694  0.0105
24023W        W44303  16.414   7.338   9.766 -0.0640 -0.0485 -0.4233
24024W        W44304  14.048   2.836   3.884 -0.0700  0.4043 -0.0682
24025W        W44305  19.916  16.234  12.679  0.0863  0.0513  0.1962
24026W        W44306  12.235   5.358   2.218  0.0933 -0.4825  0.2635
24027W        W44307   7.126  16.190   1.085 -0.3602 -0.1523  0.2055
24028W        W44308   2.173  12.460   1.680 -0.0357 -0.2222 -0.0068
24029W        W44309  10.335   4.594   5.118 -0.1472  0.0059  0.1824
24030W        W44310  12.378  19.887   2.364 -0.0842  0.0606  0.0589
24031W        W44311   9.051  15.280   2.457 -0.1025  0.0006 -0.2483
24032W        W44312   0.502   0.717   2.307 -0.0425 -0.0691  0.3234
24033W        W44313   5.104   4.175   0.590 -0.1241  0.0353  0.1955
24034W        W44314  19.074  12.335   4.438  0.0045 -0.1251 -0.0362
24035W        W44315   4.457  17.869  13.586  0.1226  0.0789  0.2709
24036W        W44316  11.004  11.206  13.389  0.4171  0.2590 -0.0892
24037W        W44317  13.670   4.049  11.833 -0.1229 -0.1259  0.2910
24038W        W44318   4.898  13.537   0.937 -0.0658  0.1054 -0.1450
24039W        W44319  10.490   2.562   1.020 -0.0243 -0.4201 -0.2343
24040W        W44320  13.048  18.477  13.408  0.3712 -0.2521 -0.0240
24041W        W44321  12.356   6.192  10.711  0.0974  0.1338 -0.0664
24042W        W44322  12.707  18.195  13.059  0.2017  0.0548 -0.3018
24043W        W44323   0.357  19.666   0.473 -0.1325 -0.0019 -0.1087
24044W        W44324  11.216  19.208  12.327  0.1867 -0.0325 -0.2829
24045W        W44325  18.121   9.056  13.254  0.0854  0.2784  0.7563
24046W        W44326   1.033  16.238   2.896  0.0775 -0.1513  0.0008
24047W        W44327   2.483  12.466   2.526  0.1093 -0.1670 -0.1681
24048W        W44328   5.087  18.025   0.144  0.3328 -0.1110 -0.1268
24049W        W44329   3.084   2.378   1.414  0.1279 -0.0812 -0.1333
24050W        W44330   0.011   4.709  12.077  0.0187 -0.1039 -0.0110
24051W        W44331  10.943   0.027  12.795 -0.1761 -0.0575 -0.1423
24052W        W44332   5.228   4.990  11.868  0.1284  0.2878  0.2347
24053W        W44333   6.193  16.274  13.349 -0.2551 -0.2057  0.0774
24054W        W44334   9.580   7.078   4.867  0.1623  0.2314  0.2374
24055W        W44335   8.862   3.580   2.558  0.3231  0.2425 -0.1287
24056W        W44336  13.155  18.683   3.178  0.1368 -0.0585  0.0547
24057W        W44337  14.264   0.549   0.571  0.2531 -0.1983  0.3516
24058W        W44338   6.458  19.445   0.097  0.1360 -0.1823 -0.0493
24059W        W44339  17.283  18.751  12.609 -0.1091  0.1710  0.2263
24060W        W44340   7.079   9.056  11.640 -0.2496  0.1488 -0.2362
24061W        W44341   8.401   7.624  10.220 -0.2039  0.4759 -0.0908
24062W        W44342  17.864   8.808   2.416 -0.0573  0.1804  0.1029
24063W        W44343  15.139   0.419  11.913 -0.3521  0.0389  0.1798
24064W        W44344  19.796  15.107  10.915  0.1486  0.3848 -0.1487
24065W        W44345   8.629  14.864  12.237  0.0099 -0.1545  0.1259
24066W        W44346   4.932   5.457  10.777 -0.0815  0.0537  0.0755
24067W        W44347  16.215  15.913  10.237 -0.1461  0.1169 -0.3427
24068W        W44348   7.862   0.757  10.230 -0.0790 -0.1138  0.1941
24069W        W44349   3.417   2.930  13.656  0.1368 -0.0256  0.1132
24070W        W44350  18.798  12.431  10.522  0.2075  0.1481  0.1248
24071W        W44351   6.670   1.633  10.244 -0.0033  0.3542 -0.2932
24072W        W44352   1.373   9.001   1.521 -0.0285  0.1498  0.0854
24073W        W44353   7.263  15.836  12.715 -0.1074 -0.1639 -0.1300
24074W        W44354   6.690   1.243  12.468 -0.1671 -0.0348  0.0639
24075W        W44355   8.516  14.968   3.870  0.1179  0.1119 -0.1482
24076W        W44356   4.435  17.590  12.057  0.0656 -0.1990 -0.3195
24077W        W44357  13.598  12.392   0.766  0.0099 -0.3015 -0.2057
24078W        W44358  18.165  13.112  10.372  0.2413 -0.0465 -0.1700
24079W        W44359  13.094   6.682   2.538 -0.2276  0.0955  0.1216
24080W        W44360  18.939  12.327  12.055 -0.0337  0.0520  0.0484
24081W        W44361  12.367  19.104   0.504  0.0943  0.0673  0.0708
24082W        W44362  16.349  18.633   3.440  0.0887  0.2806  0.0905
24083W        W44363   8.969   6.560  13.740  0.0831  0.3132  0.0526
24084W        W44364   8.947  15.003  12.581  0.2650 -0.3212  0.2397
24085W        W44365  11.175   0.937   0.825  0.2002  0.0106  0.0810
24086W        W44366  19.659   1.065  11.310  0.1461  0.3336 -0.0379
24087W        W44367   3.913   0.190   1.195  0.2870  0.1567 -0.2542
24088W        W44368   7.997  19.853   3.407 -0.0031 -0.1732 -0.3023
24089W        W44369  15.208  14.679  10.498 -0.1777 -0.0330  0.1936
24090W        W44370   4.679   6.212   3.587  0.0845  0.1042  0.0860
24091W        W44371   7.355  18.056  13.237  0.0454  0.1025 -0.0834
24092W        W44372   1.696  13.553   3.511 -0.0571  0.0296 -0.2323
24093W        W44373  14.677   0.314  11.152  0.1507 -0.4535 -0.1516
24094W        W44374   6.432  10.423  11.051  0.1353 -0.0348 -0.1849
24095W        W44375   8.588   4.091   0.306 -0.0572 -0.0055 -0.2599
24096W        W44376   2.747   6.844   1.298 -0.1279  0.0086  0.1924
24097W        W44377  15.723   2.750  11.782 -0.2212  0.4037  0.1121
24098W        W44378   5.157   5.244   0.736  0.1884 -0.0038  0.3624
24099W        W44379  17.529  14.439  12.752  0.0203  0.0676  0.0741
24100W        W44380  17.286   4.072  12.104  0.3048  0.1050 -0.0221
24101W        W44381  13.523  12.189  12.697 -0.0919  0.4659  0.0188
24102W        W44382   7.822   1.799   3.232  0.0051 -0.0260 -0.2018
24103W        W44383   4.743  11.594   0.004  0.2818 -0.3143 -0.4392
24104W        W44384   5.495   4.359   0.280 -0.0309 -0.1998  0.1377
24105W        W44385  16.745   4.598  11.481 -0.1705 -0.0151  0.0655
24106W        W44386   1.061   6.726   2.842  0.1815 -0.1413  0.0312
24107W        W44387  15.388  14.623  12.437  0.1816 -0.1652 -0.0788
24108W        W44388   5.634  17.709  12.698 -0.0269 -0.1763  0.0790
24109W        W44389   9.155   5.951   0.472  0.2616 -0.3599 -0.3355
24110W        W44390   1.585  16.411  12.158 -0.1377  0.1798  0.0812
24111W        W44391   1.669   7.577  12.232 -0.0723  0.0409 -0.0212
24112W        W44392  14.714  14.573   1.203 -0.0604 -0.1225 -0.0827
24113W        W44393  18.292  11.858   2.567  0.0481 -0.4120 -0.0537
24114W        W44394   1.346   9.759   2.291 -0.0670  0.1432 -0.2180
24115W        W44395   2.356   9.769   2.614 -0.0710  0.0650  0.0231
24116W        W44396   7.481  19.133   1.849  0.2597 -0.3464  0.2132
24117W        W44397   0.841  15.688  10.098 -0.3118 -0.2705 -0.0477
24118W        W44398   1.324   4.498   3.268 -0.1615  0.3701  0.0262
24119W        W44399  10.262   5.576  10.496  0.1052 -0.1308 -0.0727
24120W        W44400   8.378  11.724  13.160 -0.1734 -0.3608  0.0802
24121W        W44401   3.364   0.121   3.937 -0.0015 -0.0619 -0.0188
24122W        W44402  10.078  17.867  12.950  0.2066  0.0086 -0.1689
24123W        W44403   9.650  15.750  12.511 -0.1050 -0.3235  0.0596
24124W        W44404   3.394  16.627  11.090 -0.0876  0.0968 -0.0327
24125W        W44405   0.652  19.050   0.489  0.0392 -0.0066  0.0738
24126W        W44406   3.965   3.230  11.734 -0.0894 -0.1499  0.0664
24127W        W44407   2.233  18.890   1.013 -0.1044 -0.3589  0.0977
24128W        W44408   1.852   4.742  10.369 -0.0544 -0.2924  0.1811
24129W        W44409   0.066  17.673  10.844  0.0128 -0.2297 -0.2514
24130W        W44410   0.708  19.507   2.461 -0.1078 -0.0263  0.1407
24131W        W44411  17.339   1.312   0.856  0.0478  0.3010 -0.0754
24132W        W44412   5.369   7.044  11.941  0.0605  0.0469  0.2852
24133W        W44413  19.722  16.374  10.395 -0.1371  0.2385  0.2334
24134W        W44414   1.805  19.290   2.830  0.1486  0.5546 -0.0369
24135W        W44415  17.085   7.373   1.557  0.1010 -0.2596 -0.0299
24136W        W44416  14.807  10.087   4.667  0.3549 -0.0205 -0.2253
24137W        W44417   8.677  12.074   1.554 -0.2871  0.0471  0.3135
24138W        W44418  12.718  17.234   0.434  0.0251  0.0978  0.2557
24139W        W44419   9.258   3.160  13.739  0.0191 -0.0923  0.2357
24140W        W44420  10.195   4.211   3.327 -0.0393 -0.0085 -0.0370
24141W        W44421  16.392  16.749  12.460  0.0057  0.0548 -0.2383
24142W        W44422  13.342  13.085   3.025 -0.0304 -0.1113 -0.1201
24143W        W44423   2.518   5.074   2.474  0.0503 -0.1662 -0.1259
24144W        W44424  12.381   5.334  11.374 -0.2206  0.3181  0.0825
24145W        W44425   7.632  10.249   4.594 -0.1424  0.1840  0.0374
24146W        W44426  19.235  10.654  12.066 -0.0036  0.1130  0.1603
24147W        W44427  19.449  11.282   3.396 -0.0376 -0.1554  0.1074
24148W        W44428  19.757  10.733  11.387  0.0667  0.1696  0.3573
24149W        W44429   7.146  19.476   2.276  0.0747  0.1099  0.0231
24150W        W44430  12.187  14.578  12.310  0.1065 -0.0545 -0.1349
24151W        W44431  12.912  11.435  13.011  0.1762  0.0612 -0.0590
24152W        W44432  13.335   5.709   9.869 -0.0612 -0.0511  0.0041
24153W        W44433   7.623   9.616  13.652 -0.4091  0.2685  0.1198
24154W        W44434   5.733  14.720   2.400  0.1219 -0.1411 -0.1270
24155W        W44435   8.680  15.811  11.368  0.0558  0.1497 -0.0285
24156W        W44436  19.691  14.454  13.052  0.2226  0.0821  0.0890
24157W        W44437   5.122  14.902   3.302  0.1922 -0.1088 -0.0667
24158W        W44438   1.844  16.713  10.828 -0.0043 -0.1939 -0.1105
24159W        W44439  15.806   6.986  13.401  0.0662 -0.2928  0.0701
24160W        W44440   6.981  13.886  12.807  0.1208 -0.1008  0.1896
24161W        W44441   2.653  15.862   0.236 -0.3172  0.2374  0.2717
24162W        W44442  12.847   7.862  10.221  0.0292 -0.2279 -0.1541
24163W        W44443   8.232   8.991  11.526 -0.1115  0.2166 -0.2240
24164W        W44444  16.148  10.625   2.378 -0.2386  0.0745 -0.1146
24165W        W44445  16.387   8.779   2.449 -0.1194 -0.1425  0.3781
24166W        W44446   0.201  13.993  10.003  0.0150 -0.0746  0.3590
24167W        W44447  12.919  18.471  11.069 -0.1320 -0.0711 -0.0135
24168W        W44448  10.200  19.775   4.772 -0.2026  0.0156  0.0941
24169W        W44449  11.537  17.495   0.032 -0.4886  0.1210  0.1786
24170W        W44450  10.410  16.398  12.665  0.1248 -0.1151  0.3734
24171W        W44451  17.370   7.659   0.665 -0.0605  0.1543  0.0824
24172W        W44452   0.574  14.530  13.696 -0.1994 -0.2344 -0.3476
24173W        W44453   3.293  16.819   1.710 -0.0197  0.1835  0.0972
24174W        W44454   3.054   7.305  12.716  0.1713  0.3522  0.1580
24175W        W44455   2.293  17.450  13.354 -0.0265 -0.0659 -0.2910
24176W        W44456   7.740  11.285  12.456  0.0037 -0.1265 -0.0770
24177W        W44457  15.427   3.023  12.924 -0.0542 -0.1011 -0.0488
24178W        W44458  19.341  10.930  13.753  0.1137  0.2874  0.1297
24179W        W44459  18.691   7.858   2.104 -0.0240 -0.0647 -0.1246
24180W        W44460  15.663  11.391   0.556  0.1939  0.1068  0.1292
24181W        W44461  11.603   4.271   3.125  0.0368  0.3754 -0.1059
24182W        W44462  19.307  11.465  13.588  0.1383  0.2974 -0.2249
24183W        W44463  15.597  17.464  12.999  0.0417 -0.2772  0.1702
24184W        W44464   6.389  14.519   3.457  0.0301 -0.2215  0.3951
24185W        W44465   9.208  15.285  13.754  0.1626  0.2189 -0.0719
24186W        W44466  17.853  17.694  10.537  0.1634  0.2017 -0.0302
24187W        W44467   1.556   6.373  13.452 -0.2639  0.2987 -0.1015
24188W        W44468   3.909   1.697   2.678 -0.1617 -0.0004  0.3620
24189W        W44469   1.543   3.237  12.999 -0.0212 -0.2522 -0.0143
24190W        W44470   5.378   4.193  11.032  0.5363  0.2431  0.1334
24191W        W44471   9.897  17.777   1.963 -0.1043  0.0121  0.0654
24192W        W44472  11.991  18.181  10.896  0.0233  0.0532  0.1932
24193W        W44473   6.820  18.623   3.719 -0.2134 -0.2861  0.2893
24194W        W44474  15.459  16.564   1.592  0.2279 -0.1328  0.0160
24195W        W44475  10.867   6.899   0.681 -0.3380  0.2650  0.1422
24196W        W44476  10.263  18.414  13.226  0.1268  0.2096  0.0804
24197W        W44477  17.059  15.591   2.680 -0.1506  0.2226  0.1752
24198W        W44478   6.797   3.664   4.973 -0.0388 -0.0993  0.0976
24199W        W44479   9.859   3.411   2.392  0.1207 -0.0598  0.2374
24200W        W44480   3.484  15.777   2.442  0.0990  0.1513  0.0289
24201W        W44481  15.489   2.625   3.195  0.0665 -0.1572  0.3269
24202W        W44482  12.479  12.555   0.085  0.2073 -0.1759  0.2057
24203W        W44483   7.434  19.711  11.598 -0.1026 -0.1629  0.2227
24204W        W44484  17.855   3.670   3.218 -0.2334  0.0351  0.0391
24205W        W44485  14.023   1.093   1.149  0.3375  0.0065 -0.1196
24206W        W44486   1.030   7.815  13.413  0.0312  0.0613 -0.1536
24207W        W44487  12.146  19.611   0.279  0.0104 -0.1358  0.1294
24208W        W44488   0.673   1.501   3.192 -0.1410  0.1463  0.0304
24209W        W44489  15.910  18.066  10.246  0.1606  0.2725  0.4335
24210W        W44490  12.735   5.399   3.719  0.2090 -0.1540  0.2596
24211W        W44491  12.918   6.705  13.787 -0.3875 -0.1924  0.1490
24212W        W44492  11.512  11.222   2.142 -0.0200 -0.2617  0.0534
24213W        W44493   2.461  18.806  10.658 -0.0043  0.5326  0.0349
24214W        W44494   5.279  18.285   1.066  0.0967  0.4271 -0.0455
24215W        W44495  18.169  17.417  10.213  0.1459  0.2549  0.2905
24216W        W44496  11.261  12.074  12.314  0.0811 -0.1449 -0.2801
24217W        W44497   0.142   3.464   1.802  0.0883  0.0280  0.2389
24218W        W44498  16.117  14.395  11.493  0.1078  0.1175  0.3401
24219W        W44499   2.692   5.081   3.534  0.3009 -0.1874 -0.1437
24220W        W44500   6.733  11.852   3.783 -0.0781  0.1017  0.2600
24221W        W44501  19.915   3.087  11.548 -0.0437 -0.0956  0.1367
24222W        W44502  12.018  13.992  13.117  0.2895  0.0313 -0.0125
24223W        W44503   6.766  12.421  10.522  0.3375  0.3658  0.0446
24224W        W44504  10.933   8.367  13.302 -0.0978 -0.1010 -0.0395
24225W        W44505  11.507   5.242   4.736 -0.1117 -0.0484 -0.1075
24226W        W44506   9.890  18.030   9.256  0.2339  0.1490 -0.0490
24227W        W44507   7.853  17.802  13.083  0.1924  0.0916  0.1110
24228W        W44508  11.104   9.648   9.859  0.0305  0.2268 -0.3717
24229W        W44509  18.311  13.900  13.312 -0.2618 -0.0454 -0.2403
24230W        W44510   3.648   7.532  10.641 -0.1094 -0.2938 -0.1085
24231W        W44511  15.157   9.408  13.656  0.0055 -0.0695 -0.0779
24232W        W44512   8.195  16.670   1.863 -0.2424  0.3988 -0.2677
24233W        W44513   0.933   1.252  10.425  0.1270 -0.0637  0.0238
24234W        W44514   8.641   9.870  11.355  0.1921  0.1952 -0.0267
24235W        W44515   0.640  19.025   2.301  0.0387  0.0023 -0.0725
24236W        W44516  14.341   6.437   2.987 -0.0837  0.0533 -0.0677
24237W        W44517   9.038  16.547  13.413  0.0572 -0.0327  0.2038
24238W        W44518   0.528   7.386  11.782 -0.0490 -0.1972 -0.1493
24239W        W44519   7.337   9.084   0.776 -0.1565 -0.4073  0.1102
24240W        W44520   0.722   5.165   2.029 -0.1900  0.0545  0.1316
24241W        W44521   3.290  16.462   4.423 -0.0083  0.1041  0.0376
24242W        W44522   7.930   7.798  10.586 -0.3695  0.0476  0.3420
24243W        W44523   0.822   2.817   2.132 -0.0077  0.0559  0.1450
24244W        W44524  11.165   1.442   0.935  0.3212 -0.1259  0.1708
24245W        W44525  18.936   0.294   0.840 -0.1062 -0.3706 -0.0724
24246W        W44526  19.595   8.526  11.043  0.1366 -0.1595  0.2486
24247W        W44527  15.230   3.067  13.345 -0.0130  0.2862 -0.0900
24248W        W44528   7.016   0.096   2.416  0.0388  0.0052 -0.1239
24249W        W44529   8.816   9.116  13.079  0.2500  0.3012 -0.0331
24250W        W44530   8.501   0.234   4.023 -0.1583 -0.0897 -0.0049
24251W        W44531   3.690   4.413   0.242  0.1196  0.2893 -0.1664
24252W        W44532  15.279   5.861   9.346  0.0195 -0.1313 -0.0032
24253W        W44533  10.117  17.461   0.680 -0.0397 -0.0001 -0.3982
24254W        W44534   5.245  12.690   1.700 -0.3346  0.1724 -0.0236
24255W        W44535  12.787  10.094   0.360 -0.1066 -0.1095 -0.0070
24256W        W44536   5.807  15.989  11.377  0.1784 -0.0209 -0.1015
24257W        W44537  14.253   6.788  12.578  0.0246  0.0993  0.1033
24258W        W44538   4.215   1.502   0.373 -0.0906  0.3621  0.0931
24259W        W44539  14.739   6.690   2.827 -0.3192  0.1351  0.0040
24260W        W44540  13.334  19.000   4.043 -0.0247 -0.0264 -0.0425
24261W        W44541  16.664   6.439  12.255  0.0218  0.3586 -0.4942
24262W        W44542  11.019  15.495   1.709  0.0189 -0.0059 -0.0904
24263W        W44543  10.469   6.600   0.575  0.1216 -0.0920 -0.0846
24264W        W44544  16.273   1.131   2.066  0.0136  0.2345  0.1702
24265W        W44545   1.521  18.409  10.833 -0.2610  0.2661 -0.3342
24266W        W44546   9.898   7.183   3.155 -0.1063  0.1384 -0.1131
24267W        W44547  13.811   1.343   2.862  0.2226 -0.1138 -0.0881
24268W        W44548   9.228  10.849   0.936  0.0035 -0.4788 -0.1963
24269W        W44549   8.481   8.626   2.222 -0.0279 -0.3783  0.0566
24270W        W44550   9.523  12.434   0.528 -0.0628  0.1383  0.0622
24271W        W44551   5.328  12.668  12.474 -0.4102 -0.2851 -0.0790
24272W        W44552   9.003   1.430  11.915  0.3987  0.1074  0.0971
24273W        W44553   8.346  12.813  12.375  0.0080  0.0383  0.0928
24274W        W44554  10.896  17.243   1.222  0.1813  0.0930 -0.0232
24275W        W44555   7.136  17.361   0.283 -0.1344 -0.2319  0.1727
24276W        W44556   3.096   3.276   2.954  0.2354 -0.0939  0.1121
24277W        W44557  12.687   1.899  13.227  0.0352 -0.0819  0.2289
24278W        W44558   4.772   9.459   0.930 -0.0578  0.2034  0.0680
24279W        W44559   6.211  14.294   0.043  0.0842 -0.1106 -0.0630
24280W        W44560  12.146  14.878  10.437 -0.1051 -0.1681  0.0122
24281W        W44561  17.969  17.916  13.693  0.0675  0.1709  0.1098
24282W        W44562   4.565  16.747   1.370  0.0958 -0.1220 -0.0694
24283W        W44563  13.058   5.921  13.474  0.1259 -0.1321 -0.0707
24284W        W44564   0.938   0.794   4.669 -0.0092 -0.1809 -0.0639
24285W        W44565  14.511   6.060  11.233 -0.0201  0.1261 -0.0571
24286W        W44566   9.369  16.106   1.989  0.2058 -0.2727  0.1068
24287W        W44567  19.803   5.703   2.537 -0.2599 -0.0204  0.0548
24288W        W44568   1.103  11.670   3.747 -0.3963 -0.0839  0.2173
24289W        W44569  15.744   3.233   0.446  0.0577 -0.1800 -0.2835
24290W        W44570  18.493  18.880  13.362  0.1685 -0.1055  0.1498
24291W        W44571  18.043   4.631  13.472  0.1965  0.1227  0.0034
24292W        W44572   4.569  11.793  11.480 -0.2491 -0.0234 -0.0274
24293W        W44573  16.148  17.583  11.599  0.1153 -0.1615 -0.0117
24294W        W44574   0.996   5.779  12.461 -0.3264 -0.3530 -0.0834
24295W        W44575   2.739   4.378   4.192 -0.1298 -0.1288 -0.2401
24296W        W44576   5.631   5.032   2.056 -0.4834  0.2129  0.0715
24297W        W44577  13.618   9.151  11.842  0.0104  0.1071 -0.2534
24298W        W44578  13.108  14.716   2.355 -0.0794  0.0121  0.1753
24299W        W44579  19.227  13.478  13.454  0.0360  0.1805 -0.5594
24300W        W44580   3.663  12.233   2.580 -0.0915 -0.0434  0.1253
24301W        W44581  15.797  16.179   2.073 -0.0977  0.0008 -0.3021
24302W        W44582   2.406   3.275  12.347 -0.0879 -0.1941  0.0743
24303W        W44583   4.028   3.496   3.343  0.5201 -0.1299  0.0074
24304W        W44584  12.549  10.525   2.532 -0.1232 -0.2449  0.0434
24305W        W44585   5.873   8.412  11.533 -0.2229  0.2092 -0.1369
24306W        W44586   0.313  13.213  10.172  0.2569  0.1750 -0.0704
24307W        W44587   1.676  11.303   4.842 -0.0383 -0.0631  0.3294
24308W        W44588  16.530   2.146  13.061 -0.1350 -0.0900  0.0824
24309W        W44589  10.614   1.615   1.066 -0.0170 -0.1539 -0.1946
24310W        W44590  10.971   2.082  13.606 -0.2401 -0.0811 -0.2799
24311W        W44591   4.072  13.108  12.095  0.0459  0.3143  0.3142
24312W        W44592  14.454   3.595   2.397 -0.1263  0.1394 -0.2711
24313W        W44593  14.414  18.122  13.530 -0.0133 -0.0025 -0.0611
24314W        W44594  19.111   2.658   2.704  0.2615  0.0340  0.0615
24315W        W44595  11.122   1.642  13.148  0.3654  0.0118 -0.1701
24316W        W44596  17.528   5.193  11.002 -0.0530 -0.0533 -0.1660
24317W        W44597  16.422  11.578  12.408 -0.1633  0.0664 -0.1407
24318W        W44598  11.327  18.881   8.956  0.1477  0.0627 -0.0247
24319W        W44599  18.652  10.456   1.045  0.1103 -0.3454  0.1838
24320W        W44600   0.141  18.766  12.768  0.0392  0.0544  0.0426
24321W        W44601   9.490   7.688   4.186  0.2158 -0.1621  0.1677
24322W        W44602  10.963  16.869   0.870 -0.2392 -0.0756 -0.1328
24323W        W44603   7.826   4.769  13.831  0.2672 -0.1546  0.0481
24324W        W44604  17.699   4.800   0.695 -0.0013  0.3575  0.0501
24325W        W44605   3.021   4.010  12.792 -0.0078 -0.1078 -0.0239
24326W        W44606   2.358  12.995  12.160 -0.1656  0.2305 -0.0311
24327W        W44607  13.557  19.744   0.590 -0.2569 -0.1796 -0.1055
24328W        W44608   7.378   7.802  12.672  0.2105  0.1194 -0.3001
24329W        W44609   6.259  16.455  11.619  0.0404 -0.2428 -0.2205
24330W        W44610  15.584  17.664  10.129 -0.3220  0.2940  0.1763
24331W        W44611  18.956  14.726  13.366 -0.0835  0.0935  0.2211
24332W        W44612  18.772  17.256   2.381  0.0964 -0.0641 -0.1895
24333W        W44613  14.088   4.740  13.557  0.0950 -0.0425 -0.1090
24334W        W44614  11.349   3.839  11.736  0.0602 -0.1717 -0.2040
24335W        W44615   4.421  17.232   2.837  0.0118 -0.1587  0.2036
24336W        W44616  13.590   0.901  12.650 -0.2290 -0.0369 -0.2373
24337W        W44617  18.245  17.052   0.715 -0.0666  0.0529  0.2706
24338W        W44618   1.289   0.692  13.138  0.1523 -0.2588  0.1147
24339W        W44619   8.774  17.392   2.342  0.0360  0.1131 -0.0367
24340W        W44620   2.884  14.454   0.731  0.0449 -0.3822  0.0171
24341W        W44621   1.736   2.956   2.515 -0.1679  0.3683  0.2641
24342W        W44622   7.611  13.254   1.140 -0.0925  0.1309 -0.3241
24343W        W44623   8.315  12.435   0.801 -0.1505  0.0346 -0.3135
24344W        W44624  11.959   0.847   1.360 -0.0639 -0.0468 -0.0994
24345W        W44625  13.810   8.395  11.562 -0.0086 -0.1747  0.0481
24346W        W44626   4.431   8.500   0.218  0.0770  0.0271 -0.0389
24347W        W44627  15.624  12.150  13.766 -0.3029 -0.0649  0.0281
24348W        W44628   6.703  15.644  12.130  0.1880  0.1862  0.0841
24349W        W44629   3.841  14.435   9.980 -0.2107  0.1369 -0.2076
24350W        W44630  18.259   7.016   2.588  0.0035 -0.1541 -0.1434
24351W        W44631   3.088   0.479  12.293 -0.0857 -0.3294  0.0603
24352W        W44632  11.154   6.912  10.145  0.1939  0.1858  0.1621
24353W        W44633  13.574  14.913   3.118 -0.0269  0.0710 -0.0796
24354W        W44634   3.405   8.866  13.556  0.1684  0.2194 -0.1133
24355W        W44635  11.842  14.591  11.887  0.2523  0.2532  0.0647
24356W        W44636  17.733   2.487  10.187  0.0858  0.1246 -0.1762
24357W        W44637   4.225  10.973  12.682  0.0817  0.0358 -0.1729
24358W        W44638  10.843   2.572  13.411  0.1912  0.1718 -0.1024
24359W        W44639   5.368   9.066  12.127 -0.1150 -0.0581  0.0581
24360W        W44640  14.811  17.968  12.358  0.1900  0.2700  0.0085
24361W        W44641  11.364  10.792  13.275 -0.4108 -0.2741  0.0073
24362W        W44642   8.361   5.062   1.504  0.2715  0.2552 -0.0666
24363W        W44643   2.148   6.803  12.797 -0.0170  0.0339 -0.4312
24364W        W44644   4.222   3.918   1.685 -0.0355  0.1144  0.1364
24365W        W44645   0.524   7.731  13.380  0.1570  0.1004 -0.0604
24366W        W44646   5.169   0.600  10.347  0.1890  0.0611 -0.0208
24367W        W44647   9.235   3.563   3.645 -0.0910  0.2980  0.1050
24368W        W44648  14.883  19.299  11.093 -0.2074 -0.2043 -0.2409
24369W        W44649  19.701  12.596   3.402 -0.0510 -0.1915  0.2283
24370W        W44650   1.301  11.804   3.326  0.3664  0.1256  0.1063
24371W        W44651  18.287  16.017  12.701  0.1288 -0.0542  0.0291
24372W        W44652   7.110   0.192  13.026 -0.0151  0.0050 -0.1811
24373W        W44653  12.754  18.064  12.547 -0.0595  0.4173 -0.0340
24374W        W44654   7.782  12.206  10.365  0.0512  0.1927 -0.0751
24375W        W44655   3.221  18.376   2.211  0.2331  0.1485  0.0356
24376W        W44656  17.740   0.004   2.950 -0.1715 -0.1743 -0.2493
24377W        W44657   1.129  18.979   2.140  0.0868 -0.0165  0.1502
24378W        W44658   4.832  14.493  11.380 -0.2351  0.2906 -0.2453
24379W        W44659   0.981   0.914  10.073 -0.2070  0.2367  0.0658
24380W        W44660   7.659  13.516  10.752  0.1121 -0.1545  0.1690
24381W        W44661   7.629   7.983   0.176  0.2983  0.0980 -0.2440
24382W        W44662   7.241  15.593   2.254 -0.1009  0.0617 -0.1005
24383W        W44663  16.000  12.831   2.470  0.0038 -0.2938  0.0082
24384W        W44664  17.867   4.263   3.113 -0.0290  0.1000  0.1749
24385W        W44665   4.657  13.618  13.272  0.3782  0.0648  0.1018
24386W        W44666  19.071   2.822   4.439 -0.1914  0.3849 -0.0386
24387W        W44667   0.633  15.567   3.203 -0.2246  0.1039  0.0387
24388W        W44668  11.963  11.493  13.345 -0.0400  0.1166  0.0761
24389W        W44669  17.093  17.950   2.197 -0.0909 -0.0893 -0.1658
24390W        W44670  14.093  13.268  10.295  0.1779  0.0976  0.4713
24391W        W44671   4.968  18.722   3.844 -0.3346  0.1586 -0.0974
24392W        W44672  19.579   0.692  10.282  0.0808 -0.5105 -0.0638
24393W        W44673  19.225   1.621   2.727 -0.0083 -0.0133 -0.0429
24394W        W44674  19.367  19.069   1.884 -0.1697 -0.2312  0.1714
24395W        W44675  16.740   2.840   0.745 -0.1774 -0.0190 -0.0044
24396W        W44676   5.414  18.202   1.519 -0.1061 -0.0742 -0.1377
24397W        W44677   9.068  10.416   3.795 -0.2711  0.0133  0.3367
24398W        W44678   1.481  15.158   0.590 -0.2880  0.3207  0.2162
24399W        W44679  16.939   5.181   1.875  0.2467  0.1428  0.0798
24400W        W44680   1.425   2.092   3.413  0.3541  0.2389  0.1603
24401W        W44681   7.840  10.750   3.751  0.1729 -0.1091  0.0976
24402W        W44682  12.460   3.739   9.119  0.1846  0.1918  0.1113
24403W        W44683   8.014   1.558   3.630 -0.0248  0.1539  0.1376
24404W        W44684   9.962  11.630   0.695 -0.0156  0.2276 -0.2373
24405W        W44685   7.702   4.006  13.696 -0.0476  0.0321 -0.0946
24406W        W44686  12.440  11.594  12.577  0.1455 -0.0797  0.3706
24407W        W44687  13.652  17.028   1.072  0.1392 -0.1275 -0.1811
24408W        W44688   0.101   1.153   5.035  0.6763  0.1138  0.3947
24409W        W44689  10.870   1.266   1.365  0.1096 -0.1046 -0.1788
24410W        W44690   7.878  14.065  10.891 -0.1202  0.0113 -0.1065
24411W        W44691  18.965  14.543  12.605 -0.4586 -0.1146 -0.0861
24412W        W44692   2.034   3.375  11.641 -0.1370  0.0887  0.3071
24413W        W44693   6.464  18.056   0.198 -0.1091  0.2338 -0.2359
24414W        W44694   6.770   5.535   0.051 -0.1308  0.0201 -0.1100
24415W        W44695   0.232  15.262   9.970 -0.2819 -0.0404  0.2535
24416W        W44696   6.059  18.846  13.767 -0.3225 -0.3094  0.1596
24417W        W44697   5.680  15.413   9.379 -0.2662  0.2268  0.1589
24418W        W44698  13.839   1.495   1.449  0.3446  0.1620 -0.1641
24419W        W44699   3.947   6.944   3.490  0.3493  0.2749  0.3125
24420W        W44700  11.662   6.654   0.206  0.2999  0.0652  0.0449
24421W        W44701   1.695   4.303  10.268  0.2047  0.0944 -0.0339
24422W        W44702  16.691   1.226   0.130 -0.0707 -0.4497 -0.1587
24423W        W44703   4.883  18.518  11.824  0.0786  0.0527 -0.3633
24424W        W44704   0.918   5.279   9.064 -0.0964 -0.2515 -0.0349
24425W        W44705  12.987   6.612   1.546 -0.0324  0.1552 -0.2679
24426W        W44706  17.112   2.755   3.324 -0.2898 -0.0028  0.0213
24427W        W44707   8.218   6.104   2.401 -0.0537 -0.2457 -0.0650
24428W        W44708   2.225  13.710  12.872 -0.0458 -0.1671  0.2305
24429W        W44709  11.765  19.077  11.630  0.2620  0.3299 -0.1154
24430W        W44710  17.043  16.225   4.371  0.2493  0.1784 -0.2543
24431W        W44711  16.737   3.512   2.972  0.1361 -0.3006  0.0221
24432W        W44712  14.921   9.111   2.695 -0.0978  0.1090  0.0410
24433W        W44713   3.020  15.408   1.233  0.1536 -0.0696  0.1281
24434W        W44714   1.348  16.472   1.657 -0.0410 -0.2786  0.3170
24435W        W44715  11.102  17.018  11.071  0.0033 -0.0159  0.0317
24436W        W44716  19.621   3.100   1.366 -0.1881  0.0492  0.3473
24437W        W44717  15.270  15.763   1.351  0.0661 -0.0082 -0.0388
24438W        W44718  13.541   0.545  10.904 -0.0092 -0.0175 -0.0082
24439W        W44719   1.568   6.442  10.333  0.3174 -0.2231  0.3326
24440W        W44720  13.006  16.539   0.492 -0.2083  0.1384  0.0509
24441W        W44721   5.425  13.776   2.920  0.1369  0.0606 -0.2761
24442W        W44722   3.650  18.189  10.373 -0.0417 -0.1772  0.0935
24443W        W44723   3.236  11.964  11.417  0.0129  0.1381 -0.1547
24444W        W44724  16.499   8.322   9.754 -0.0364 -0.0575  0.2383
24445W        W44725   6.727  16.472   2.784  0.0713 -0.1019  0.2855
24446W        W44726  18.068  11.118   2.983  0.0477 -0.0760 -0.1081
24447W        W44727   5.373   7.509  13.809 -0.3219  0.0574  0.3709
24448W        W44728  17.977   9.291   1.102  0.0537 -0.4181 -0.3880
24449W        W44729  10.096  19.270   3.032  0.0396 -0.2028 -0.0117
24450W        W44730   0.278   9.921   1.351  0.1792  0.0909 -0.1612
24451W        W44731   7.409  18.992   0.375  0.0720 -0.3464 -0.1832
24452W        W44732  15.126  14.455   2.121 -0.1438 -0.1595  0.0623
24453W        W44733   0.373  13.213   2.681 -0.0364 -0.1666  0.2654
24454W        W44734   9.288  15.071   3.144  0.2229 -0.2977  0.1120
24455W        W44735   3.667  18.204   3.021 -0.0996  0.1825 -0.2552
24456W        W44736   5.458  17.942  13.633 -0.4718 -0.1357 -0.3706
24457W        W44737  16.857  13.274  12.914  0.0163 -0.0959 -0.0314
24458W        W44738   2.305  13.964   3.540 -0.2455  0.0150 -0.2214
24459W        W44739  11.872   4.472  10.406  0.1337  0.1075 -0.0516
24460W        W44740   6.674   0.738  11.696  0.0868 -0.3764  0.1086
24461W        W44741   2.477   4.179   0.712  0.2495  0.2627 -0.0148
24462W        W44742   2.547   7.528  12.012 -0.1515  0.4483  0.1231
24463W        W44743  18.075  13.614  12.875  0.2010 -0.2653  0.1666
24464W        W44744   4.926   2.155  13.684  0.1938  0.4237  0.3930
24465W        W44745   2.710  17.708  11.224  0.2127  0.0080  0.0295
24466W        W44746  15.660  12.443   3.588  0.2029 -0.1074 -0.2361
24467W        W44747  14.795  13.686  13.522  0.2703 -0.2495 -0.2441
24468W        W44748   9.444   5.147  11.427  0.0783  0.1216  0.3068
24469W        W44749  19.617  17.889   1.310 -0.1533 -0.0263  0.1456
24470W        W44750   3.991   5.556   3.756 -0.1313  0.0241 -0.3145
24471W        W44751   5.716  17.360   0.515 -0.2292 -0.1466  0.0945
24472W        W44752  12.592   4.755  13.204 -0.1434 -0.3014  0.0252
24473W        W44753  14.158   3.969   3.277 -0.0210  0.1808  0.2817
24474W        W44754  10.538  18.544   0.096 -0.0124 -0.0928 -0.0716
24475W        W44755  11.751  18.788   2.210 -0.2218 -0.1156  0.2684
24476W        W44756   8.370  19.105   2.099 -0.0711 -0.1165  0.2413
24477W        W44757  10.787   3.520   0.282 -0.2765  0.0890  0.1629
24478W        W44758   3.151  13.473  11.148  0.1090  0.1220 -0.2084
24479W        W44759  10.689  18.686   1.100 -0.1441  0.2416 -0.0208
24480W        W44760   5.029   3.157   2.132 -0.0609 -0.0492  0.0422
24481W        W44761  11.188   5.091   5.209  0.1053  0.0234 -0.3218
24482W        W44762   7.893  17.244   2.613 -0.2931  0.0053 -0.1679
24483W        W44763  11.585   6.349  12.559 -0.1797  0.0095  0.0716
24484W        W44764   8.044  14.440  12.810 -0.1280  0.0314  0.0737
24485W        W44765   6.210   2.521  10.617 -0.2362 -0.1742 -0.2283
24486W        W44766  16.427   1.251  10.885  0.0200 -0.1428 -0.0099
24487W        W44767  16.090   1.514   1.796  0.2818  0.2084 -0.0930
24488W        W44768   0.603  11.182   0.481 -0.0654  0.0631  0.0133
24489W        W44769  11.565  18.893  12.555  0.1562 -0.1077 -0.3421
24490W        W44770  12.138  10.794  12.712  0.1254  0.1435 -0.3413
24491W        W44771  14.847   8.699   0.291  0.0059 -0.0692 -0.0068
24492W        W44772  11.694   2.484  11.575  0.1665 -0.0007 -0.1136
24493W        W44773  12.616  19.743  12.012 -0.1896 -0.1365 -0.4133
24494W        W44774   6.410   5.015   1.212 -0.2446 -0.0972  0.0790
24495W        W44775   6.790  13.709  11.780 -0.1894 -0.0577  0.0115
24496W        W44776  13.871   9.900  13.497  0.2960 -0.1951  0.0064
24497W        W44777  12.760  13.758   1.634  0.0514  0.2632 -0.1302
24498W        W44778   2.137  15.459  12.315 -0.1267  0.0378 -0.1276
24499W        W44779   1.780   8.828  10.324  0.1739  0.1721 -0.0694
24500W        W44780   2.933   9.004   1.668 -0.0048  0.2098  0.1869
24501W        W44781   8.215   9.188   5.066  0.1834  0.0973 -0.4735
24502W        W44782   8.433   1.351   3.424 -0.0084  0.4740  0.0825
24503W        W44783   6.224   2.489  11.749  0.0237  0.1947 -0.0026
24504W        W44784   7.257  19.667   2.789 -0.0073 -0.0731  0.0113
24505W        W44785   9.362   8.422   3.500 -0.0065 -0.0005 -0.0011
24506W        W44786   9.175   5.049   1.994 -0.2379 -0.0498  0.0607
24507W        W44787   9.335   6.821   0.121 -0.3076 -0.0765  0.1659
24508W        W44788  10.413   3.685   3.509  0.2411 -0.2452 -0.0967
24509W        W44789  19.663   0.482   2.605  0.1934 -0.1179  0.0419
24510W        W44790  18.146   1.800   9.762  0.2747  0.0868  0.2112
24511W        W44791  11.167   9.829   1.227 -0.1089  0.1503  0.1005
24512W        W44792   1.287  15.069   3.558 -0.2068  0.1732 -0.3155
24513W        W44793   1.197   7.126  13.847  0.0109  0.1317  0.4153
24514W        W44794   2.902   7.223  11.755 -0.1711  0.0750  0.2760
24515W        W44795  13.114   2.631  10.646  0.0256  0.1018 -0.1942
24516W        W44796  12.803   7.519   1.109 -0.2300  0.1763 -0.1829
24517W        W44797  14.942   7.428  10.649  0.3749  0.0312 -0.0842
24518W        W44798   5.247  18.387   0.532  0.1935 -0.2113 -0.1394
24519W        W44799   7.408   5.890  13.146 -0.0958  0.3137 -0.2331
24520W        W44800   8.863   8.289   3.708  0.4763 -0.0802 -0.0350
24521W        W44801  12.646  17.464  11.878 -0.0197 -0.0583  0.0301
24522W        W44802   2.295   7.917   1.085  0.2042  0.0348  0.2982
24523W        W44803  17.327  14.113   9.555  0.1512 -0.2531  0.1249
24524W        W44804  13.944  19.397  13.624  0.2651  0.3348  0.0847
24525W        W44805   6.246  19.001   3.162  0.1301  0.0999 -0.0412
24526W        W44806   2.367  17.824   1.616  0.1644  0.0893 -0.1141
24527W        W44807  11.221   4.151   0.819  0.2208  0.1203 -0.2539
24528W        W44808  11.714  10.877  12.137  0.1248 -0.0519 -0.1475
24529W        W44809  17.401  12.257   2.473 -0.0821  0.4986  0.4212
24530W        W44810  12.979   2.211   0.775  0.1205  0.0272  0.0270
24531W        W44811  13.451  13.373   2.475  0.2371  0.0025 -0.1162
24532W        W44812  14.544   7.585  11.232 -0.1758  0.4501 -0.1420
24533W        W44813  18.575   1.284  13.189  0.0798  0.0747 -0.1069
24534W        W44814  14.086  19.193   1.294 -0.2111  0.1246 -0.0486
24535W        W44815   4.953   3.421   1.593 -0.1890 -0.2941 -0.1536
24536W        W44816   7.352  14.901  11.882 -0.1883  0.0377  0.0167
24537W        W44817  11.190  10.056   2.274  0.1456 -0.3032  0.1257
24538W        W44818   1.448   9.656  11.815 -0.1444 -0.0621 -0.0581
24539W        W44819  13.444   7.466  11.758  0.0733 -0.1526 -0.1896
24540W        W44820  19.508   9.566   1.892  0.2289  0.1654 -0.0040
24541W        W44821   2.421  19.217  12.563 -0.0436 -0.0500  0.2838
24542W        W44822   7.365  17.578   1.510 -0.2038 -0.0637  0.0254
24543W        W44823  11.562   3.350  11.179  0.0340  0.0862  0.0719
24544W        W44824   8.470  14.402  10.594 -0.1823  0.0317 -0.0967
24545W        W44825  14.399  16.169  13.157 -0.0897 -0.1934  0.2697
24546W        W44826  14.872  18.629  12.990  0.3156  0.0220 -0.0555
24547W        W44827   1.508   1.540  11.855  0.0615  0.1882 -0.0230
24548W        W44828  15.283   3.428   1.529 -0.1981  0.2034 -0.1185
24549W        W44829  19.703   0.684  12.623  0.0402 -0.1808 -0.2507
24550W        W44830  14.003   6.115  13.433 -0.0418 -0.0130 -0.1785
24551W        W44831   0.383  16.303   3.794 -0.0329  0.1234 -0.0485
24552W        W44832  19.540   9.245   0.155  0.2920  0.0200 -0.2941
24553W        W44833   4.012  13.479  12.482  0.1363  0.1055  0.0801
24554W        W44834  12.823  19.463  11.563 -0.1785  0.0370  0.0791
24555W        W44835   2.768   1.876  11.144  0.2869 -0.1354  0.0412
24556W        W44836  19.876   2.877   1.675 -0.1783  0.1317  0.0130
24557W        W44837   2.677  13.903   2.265  0.1553 -0.0753 -0.0143
24558W        W44838  18.205   2.292  10.528  0.0194  0.0062  0.1024
24559W        W44839  14.760  11.609   0.961 -0.2619  0.3081  0.1358
24560W        W44840   6.044   2.429   3.686 -0.1161 -0.1300 -0.1144
24561W        W44841  15.306   7.529  10.346  0.0360  0.0977 -0.1112
24562W        W44842   4.658   4.063  12.295  0.3536 -0.2140 -0.0927
24563W        W44843  16.826  14.534   0.141  0.5030 -0.3220  0.0556
24564W        W44844   3.661  11.746  10.652  0.1817  0.4924  0.3775
24565W        W44845  14.332   1.847  11.568  0.2341  0.1059  0.1097
24566W        W44846  14.086   5.299   3.998 -0.1341 -0.0829  0.0593
24567W        W44847   2.292   4.194  11.749  0.3618  0.0724 -0.3247
24568W        W44848  19.703   1.539   0.802 -0.1899  0.0364 -0.1798
24569W        W44849  16.819   0.437   9.169 -0.3618  0.1204 -0.2790
24570W        W44850  13.723  19.122  12.019 -0.5309  0.0031 -0.1189
24571W        W44851   8.309   2.317  12.424  0.1606  0.1235  0.1846
24572W        W44852   9.533  14.427  13.748  0.1785 -0.0159  0.0920
24573W        W44853  13.338  16.065   0.322  0.3877  0.3014  0.1670
24574W        W44854   1.860   2.048   3.145 -0.1356  0.1248  0.0565
24575W        W44855  17.402  10.774  11.364  0.0479  0.0725 -0.1750
24576W        W44856   4.769  11.277   0.743 -0.3288  0.0573  0.0126
24577W        W44857  18.118  14.929   1.594  0.2065  0.1909 -0.0215
24578W        W44858   7.152   3.979  13.779  0.2796  0.3389 -0.1103
24579W        W44859   8.641  18.690   1.459  0.0387  0.0669  0.0371
24580W        W44860   8.913   2.186  11.758  0.3576  0.1252 -0.0820
24581W        W44861   7.556  12.168   4.886  0.2407  0.0077  0.1004
24582W        W44862  14.100   0.610  12.944 -0.0044 -0.0260  0.1761
24583W        W44863   4.753  11.398  12.872 -0.1235 -0.1681 -0.4045
24584W        W44864   8.570  16.818   1.575  0.1289 -0.1147  0.0969
24585W        W44865  16.351   4.944   2.838 -0.0172  0.2182 -0.1340
24586W        W44866   9.409   2.139   3.216  0.0274 -0.2695  0.0279
24587W        W44867   1.472  19.654   0.572  0.1439  0.0577 -0.1913
24588W        W44868  14.102   4.105   1.980  0.0668 -0.0873 -0.1396
24589W        W44869   6.380   1.894   1.438 -0.3121 -0.2074 -0.2279
24590W        W44870  17.167   7.355  13.125 -0.0962  0.0004  0.4027
24591W        W44871  18.828  14.200   9.751  0.0448  0.0347 -0.1036
24592W        W44872   0.079  13.732   1.459  0.0193  0.0666 -0.2584
24593W        W44873   3.018  15.674   2.705  0.1276  0.0442 -0.0911
24594W        W44874   0.767  14.780  10.003 -0.2247  0.2444  0.0391
24595W        W44875   4.580   0.200   0.052 -0.1190 -0.1761 -0.2367
24596W        W44876  15.613   0.254  12.777 -0.0178  0.1705 -0.2075
24597W        W44877  11.768   1.295  11.044  0.2439  0.1801 -0.1390
24598W        W44878  12.742   3.750   0.973 -0.0184  0.0853  0.0173
24599W        W44879  18.486   9.464  11.119 -0.0207  0.3459  0.1675
24600W        W44880  10.775  14.215   3.069 -0.0285  0.0840 -0.1468
24601W        W44881  13.717  16.210  13.623 -0.2237 -0.0846 -0.1293
24602W        W44882   3.296  17.969  12.749  0.2060  0.1379  0.2698
24603W        W44883   1.368   6.996   1.418  0.1090  0.0654  0.1513
24604W        W44884   0.066  18.316  12.551 -0.0042 -0.2277 -0.0124
24605W        W44885  11.901   6.195   4.823  0.1190  0.1131  0.0631
24606W        W44886   0.969  14.130  11.197 -0.2524  0.0999 -0.4349
24607W        W44887  19.565   6.182   3.518 -0.2090  0.4342  0.0647
24608W        W44888  13.020   0.155   1.452  0.0478  0.0527  0.1008
24609W        W44889  15.207   7.402   8.642  0.1101 -0.0113  0.0581
24610W        W44890   8.284  12.560   2.753 -0.1034 -0.2277  0.1608
24611W        W44891   1.585   2.923   1.778 -0.0656  0.0844  0.0273
24612W        W44892   9.504  10.901  10.887  0.0858 -0.3880  0.3316
24613W        W44893   8.338   5.723   2.040  0.5136  0.2777 -0.1229
24614W        W44894  14.314   1.050  10.484 -0.1934 -0.1177 -0.2571
24615W        W44895   4.782   8.159   0.514 -0.1275 -0.2559 -0.0306
24616W        W44896   0.937   0.631  13.464 -0.0827 -0.1595 -0.1638
24617W        W44897  16.919  11.472  12.824  0.1602 -0.0789 -0.0325
24618W        W44898   3.348  19.240   2.134  0.1614  0.0074 -0.4008
24619W        W44899  13.880   4.982  11.753 -0.1617  0.2138 -0.2847
24620W        W44900   4.190  15.521   1.225 -0.2055 -0.0748 -0.0299
24621W        W44901  16.328  19.420   0.518 -0.1942 -0.0142 -0.0789
24622W        W44902  11.005   7.475  12.013 -0.0791 -0.4983  0.0425
24623W        W44903   1.017   4.673   0.666  0.0256 -0.1618  0.1244
24624W        W44904   8.871   2.148   2.557 -0.1761 -0.0915 -0.0069
24625W        W44905  10.783  13.096   0.867  0.2734 -0.2809  0.1688
24626W        W44906   7.068  17.702   2.829 -0.1803 -0.2281 -0.0190
24627W        W44907   2.527   5.903  12.612  0.1068 -0.0252 -0.0766
24628W        W44908   7.545   1.131  10.711 -0.0099 -0.2296 -0.1558
24629W        W44909   3.302  13.318  12.761  0.0208 -0.1693  0.1216
24630W        W44910   0.784   1.301  12.303 -0.1080  0.0771  0.0180
24631W        W44911  18.491  17.242   3.070 -0.0136 -0.3627 -0.2234
24632W        W44912   3.898  15.345  13.546  0.0407 -0.1966  0.1958
24633W        W44913  10.241  16.027   1.282 -0.0121  0.0393 -0.3320
24634W        W44914  10.574   6.567  12.773  0.1613  0.1970 -0.1306
24635W        W44915  19.036   7.518  12.244  0.0079 -0.3823  0.2278
24636W        W44916   0.510  15.604  10.629  0.0307 -0.1251 -0.1160
24637W        W44917   2.105   2.406   2.859 -0.0575  0.2358 -0.0126
24638W        W44918  17.171  10.323  11.145  0.2564 -0.0074  0.0332
24639W        W44919   0.352   0.433  13.825 -0.0792  0.0643  0.1683
24640W        W44920  16.665  15.755   2.238  0.1965  0.1517 -0.1587
24641W        W44921  10.282  13.076  10.586  0.0362  0.0924 -0.1016
24642W        W44922  17.540  19.468  10.929  0.2984 -0.1501 -0.1036
24643W        W44923  17.103   2.618   1.991 -0.1438 -0.1123 -0.0339
24644W        W44924   9.464   2.455  12.103 -0.1720 -0.1267 -0.0991
24645W        W44925  10.464   1.883  13.673 -0.2031 -0.0454  0.0022
24646W        W44926  17.402  17.063  12.236 -0.0486 -0.4048  0.0866
24647W        W44927  13.438   3.955   0.607 -0.3768  0.0421  0.0262
24648W        W44928   8.043  19.405   1.009  0.1719  0.1049  0.0111
24649W        W44929   7.565  10.371  12.403  0.1322  0.1304 -0.3158
24650W        W44930   5.692   6.867   2.560 -0.0011  0.0829  0.2040
24651W        W44931  10.212   0.826  11.938 -0.4752  0.0440  0.1550
24652W        W44932   0.069  18.318  13.067  0.1748  0.4107 -0.1321
24653W        W44933   8.426  17.357  13.691 -0.0833  0.0664 -0.2407
24654W        W44934   2.338  12.028   1.906 -0.0659 -0.0803 -0.0543
24655W        W44935  10.517  10.983  12.203 -0.0244 -0.1291 -0.1069
24656W        W44936  17.043  10.120   9.972  0.1882 -0.1850 -0.0920
24657W        W44937   8.863  10.909   2.454  0.2899  0.1741  0.1296
24658W        W44938  12.714  11.094  13.301  0.2431 -0.0593 -0.0061
24659W        W44939   1.791  15.989   1.005 -0.0655 -0.2648 -0.1340
24660W        W44940  11.796   0.023  13.520 -0.1226 -0.0175 -0.0088
24661W        W44941   3.573  11.750   2.474 -0.0336  0.0306 -0.1694
24662W        W44942   9.510   9.018  11.980  0.1475  0.1176  0.0522
24663W        W44943  17.587   4.240   0.668 -0.3149 -0.5316 -0.1468
24664W        W44944   7.206   0.334   1.044  0.2899  0.2222  0.3230
24665W        W44945  10.550   3.472  12.182  0.1930 -0.0372  0.3310
24666W        W44946   5.075  13.967   0.698  0.0994  0.0139 -0.1618
24667W        W44947   7.004   5.589   0.572 -0.2426  0.1428 -0.0193
24668W        W44948   8.226   5.315  11.961 -0.1219  0.0048 -0.1798
24669W        W44949   9.187   2.555  11.741  0.2477 -0.2110 -0.1141
24670W        W44950  10.504  15.993   3.623 -0.0416 -0.0317  0.0592
24671W        W44951   6.396  18.299  11.695 -0.1800 -0.0310 -0.0131
24672W        W44952   2.668  14.788   2.043  0.4568  0.0484 -0.0429
24673W        W44953  18.187   2.520  10.019 -0.0421  0.1761 -0.0566
24674W        W44954   6.245   7.780  13.015  0.2206 -0.0472 -0.0387
24675W        W44955   8.996   5.840  12.236  0.5087 -0.2352 -0.0664
24676W        W44956  10.524   7.172   0.087  0.0589 -0.1164 -0.1521
24677W        W44957  12.527  19.827   0.049 -0.0451  0.0366  0.1275
24678W        W44958  12.934   2.815   9.846 -0.0912  0.1648  0.0207
24679W        W44959  13.271  13.913   0.398  0.1482 -0.1635 -0.0575
24680W        W44960  11.110   3.466  13.802  0.1278  0.0288  0.0612
24681W        W44961   5.401  18.825   2.719  0.0241  0.2088 -0.0624
24682W        W44962   3.687   2.846  11.062  0.1752 -0.0350 -0.2234
24683W        W44963   7.427  14.687   1.943  0.0198 -0.0144  0.0224
24684W        W44964   8.711  16.380   1.300 -0.2054 -0.0449  0.2421
24685W        W44965   2.518   2.898   0.070  0.2551  0.2386  0.0394
24686W        W44966   0.465   5.893   0.822  0.0318 -0.0553 -0.2556
24687W        W44967   6.190  17.041  12.636 -0.0969  0.1668 -0.0343
24688W        W44968   1.801  14.043  10.385 -0.2974  0.0221  0.0476
24689W        W44969  13.806  19.017   1.845  0.0347  0.0781 -0.0402
24690W        W44970   7.076  11.552   1.727 -0.0528  0.0692  0.1075
24691W        W44971  12.095   9.820  13.087  0.3387 -0.1345  0.2390
24692W        W44972  19.110  15.455   1.697  0.1242  0.0163 -0.1557
24693W        W44973  16.677   2.760   1.675  0.2320 -0.2145  0.1294
24694W        W44974  16.879  13.083   2.915  0.3543  0.1285  0.2471
24695W        W44975  14.525  18.436  11.048 -0.2196 -0.0929  0.0699
24696W        W44976   0.998  14.647   3.138 -0.0462  0.2511 -0.0843
24697W        W44977  18.493  12.728   0.613  0.0069 -0.0175 -0.3371
24698W        W44978  16.836   6.304  11.831 -0.0271 -0.0209 -0.0194
24699W        W44979  13.387   6.512   4.695  0.1424 -0.2673  0.0144
24700W        W44980  19.014   9.045  12.671 -0.0311 -0.0584  0.0165
24701W        W44981  14.483  16.618   0.078 -0.1832 -0.1651 -0.0661
24702W        W44982  16.071   5.516   1.483  0.1069  0.0013 -0.2513
24703W        W44983  13.801   4.666  11.135  0.1865 -0.3776  0.2308
24704W        W44984   4.256  18.314   2.236  0.2034  0.1625 -0.0935
24705W        W44985  10.322  19.595   2.131 -0.1394  0.1701  0.3154
24706W        W44986   6.244  12.313  10.615 -0.1408  0.0462 -0.0762
24707W        W44987   4.676   4.279   3.086  0.0927  0.3077 -0.1240
24708W        W44988  13.608  16.443  10.478 -0.0915  0.1020  0.2480
24709W        W44989   9.477  10.806  13.757 -0.0381 -0.1890 -0.0982
24710W        W44990  12.039  18.625  11.734  0.1364  0.2595 -0.0741
24711W        W44991  10.646  15.371  12.387 -0.2186 -0.1267 -0.0600
24712W        W44992  13.859   4.730  10.233  0.2058  0.1297  0.0963
24713W        W44993  10.483   6.636  13.266 -0.0021 -0.0597  0.1156
24714W        W44994   1.831  11.647  12.648  0.0291 -0.1754  0.1841
24715W        W44995   8.175   7.108  13.670 -0.1454 -0.0505  0.1743
24716W        W44996   5.918  11.720  11.339  0.0186 -0.1296  0.2600
24717W        W44997   9.271   6.882   0.625 -0.0099  0.2701 -0.3157
24718W        W44998   6.386  13.090  12.926 -0.0175  0.1799  0.0017
24719W        W44999   6.316  19.846  13.681 -0.0723 -0.0381  0.0107
24720W        W45000  13.436  17.435   3.666  0.2591 -0.1339 -0.1288
24721W        W45001  19.504  10.182  11.947  0.0750  0.1536 -0.0805
24722W        W45002   2.772  13.413   0.002  0.1805 -0.2733  0.0245
24723W        W45003  16.899  19.174  10.752 -0.0774  0.3103 -0.1911
24724W        W45004  17.718  14.531  13.690  0.0203  0.1730 -0.0195
24725W        W45005   4.517   4.212   0.650  0.1800  0.2144  0.3449
24726W        W45006   4.085   7.186  10.882  0.0822 -0.5032  0.2572
24727W        W45007   1.386   6.142  12.391  0.0887 -0.0733 -0.1312
24728W        W45008  14.434  13.404   2.348  0.3955 -0.3794  0.2867
24729W        W45009  12.182   9.130   0.601  0.1571  0.0859  0.1454
24730W        W45010  18.250  13.504  11.951 -0.2348 -0.0102 -0.2780
24731W        W45011   6.196   0.232   0.607 -0.2267  0.2909 -0.1295
24732W        W45012   8.591   7.137   4.754 -0.1845 -0.2473 -0.0137
24733W        W45013   0.300  11.937   9.842  0.0645  0.0475  0.6709
24734W        W45014  17.954   4.793  12.243  0.1021  0.1231  0.0489
24735W        W45015   5.699   5.084   0.750  0.3007  0.4834  0.1370
24736W        W45016  10.271  18.475   9.395 -0.2047  0.0322  0.2269
24737W        W45017   7.835  17.824   0.493  0.1108 -0.2694  0.1861
24738W        W45018  12.279   7.283   1.330 -0.3440 -0.0049 -0.1498
24739W        W45019  13.720   7.626   2.647  0.0763  0.2757 -0.1565
24740W        W45020   2.964  12.476  12.703  0.1458  0.0732 -0.2157
24741W        W45021  17.729  17.886   3.560  0.1677 -0.0599 -0.2925
24742W        W45022   8.626  10.803  10.473 -0.2185  0.1750  0.2682
24743W        W45023  17.516   8.165  10.075 -0.2999  0.0403  0.2446
24744W        W45024  17.839  16.876  13.450 -0.2034  0.1152 -0.3139
24745W        W45025  18.508  15.166   1.047 -0.2983 -0.0290 -0.0413
24746W        W45026  18.392   9.567   0.044 -0.0452 -0.1443 -0.1908
24747W        W45027  13.144   5.173  12.478  0.2128 -0.1703 -0.0578
24748W        W45028  16.798   7.801  13.441  0.4429 -0.1284 -0.0268
24749W        W45029  11.355   6.104   9.836  0.1825  0.2704 -0.0739
24750W        W45030  10.168   4.902  11.292  0.0562 -0.0170  0.1212
24751W        W45031   8.606  15.956  12.857  0.0717  0.1620 -0.1213
24752W        W45032  11.196  15.422  11.207  0.2908 -0.0906 -0.1763
24753W        W45033  13.399   7.903   0.046  0.0099 -0.0362 -0.2294
24754W        W45034  17.570  17.866   2.029 -0.0627  0.3510 -0.0472
24755W        W45035  19.424   5.383  13.009  0.0740 -0.0689 -0.0250
24756W        W45036   4.227   5.980   2.868  0.1907  0.3656 -0.2211
24757W        W45037  18.801  19.660   2.058  0.1477  0.0585 -0.0862
24758W        W45038  19.814   7.449   0.040  0.0870  0.1414  0.2616
24759W        W45039   5.881  15.428  12.120  0.2973  0.2558 -0.2231
24760W        W45040   5.742  13.218  13.043  0.3748 -0.3501  0.0321
24761W        W45041   2.493   1.334  10.862  0.0434 -0.0514  0.0030
24762W        W45042  14.755  11.334  13.854  0.1945  0.2688 -0.2263
24763W        W45043  18.731   0.591   4.532  0.3279 -0.0651  0.0149
24764W        W45044   1.329   2.676  10.248  0.1817  0.2375 -0.0080
24765W        W45045  11.176  17.931  11.687 -0.0070 -0.2714  0.1286
24766W        W45046  10.493   0.428   0.448 -0.2586  0.0484  0.0486
24767W        W45047   1.761   3.923   0.496 -0.0044 -0.0641 -0.0749
24768W        W45048   7.709   1.335   3.331 -0.1215  0.1270  0.0756
24769W        W45049  10.438  17.773   3.155 -0.1598 -0.3446  0.4475
24770W        W45050  18.533   1.508   3.120 -0.0407 -0.0952 -0.2181
24771W        W45051   8.878   0.195  10.244  0.1092 -0.1415 -0.2063
24772W        W45052   3.469   0.441   2.195  0.0915 -0.2849 -0.0362
24773W        W45053  19.566   3.575   3.974  0.1449  0.3126  0.1085
24774W        W45054   2.171  10.040   3.005 -0.0524  0.4849  0.0100
24775W        W45055  12.478  16.857   2.146  0.2715 -0.0381  0.0860
24776W        W45056  13.956   3.214   0.489 -0.1988  0.0578  0.3503
24777W        W45057   7.999   8.326   2.099 -0.2526 -0.2684 -0.2360
24778W        W45058   7.472   3.720   2.636 -0.0690 -0.1756  0.1507
24779W        W45059   9.188   2.860   2.112 -0.4514 -0.1087  0.2256
24780W        W45060  19.417  16.233   0.397 -0.3127 -0.3040  0.0150
24781W        W45061  18.857  12.495   2.562  0.1119 -0.2463  0.2573
24782W        W45062  15.270   8.717   3.310 -0.0480  0.1222 -0.1311
24783W        W45063  10.213   1.752  13.277 -0.0036 -0.0631 -0.0908
24784W        W45064  13.159   2.732   0.871 -0.4859  0.2214 -0.0471
24785W        W45065   7.143  18.595   0.726  0.1269  0.0702 -0.1350
24786W        W45066  19.554  11.970  10.944 -0.2241 -0.0487  0.0707
24787W        W45067   4.294   4.901  10.786  0.2387 -0.1559  0.0466
24788W        W45068   2.663   9.284  11.099 -0.0725 -0.0940 -0.2652
24789W        W45069   3.899   4.100  13.761  0.1228  0.3426 -0.1328
24790W        W45070  15.380  19.360   9.869 -0.0455  0.1599  0.1397
24791W        W45071   0.873   7.136   2.555  0.0311  0.0036  0.0544
24792W        W45072   6.509   3.495  12.066 -0.1018  0.1031 -0.0315
24793W        W45073  12.023   7.405  11.919 -0.2631  0.0275 -0.0317
24794W        W45074  12.584   9.072  10.089  0.1306  0.1424 -0.3144
24795W        W45075  17.651  10.108   1.380 -0.1073 -0.0508 -0.3083
24796W        W45076  12.910   1.382  13.205 -0.1052  0.2537 -0.1069
24797W        W45077  10.137   5.932  12.574  0.0622  0.3329  0.3890
24798W        W45078   4.142   9.883   0.201  0.0894 -0.0717 -0.2895
24799W        W45079  19.857   6.361   1.019  0.2437 -0.1141 -0.2405
24800W        W45080  14.875   3.028  12.043 -0.1208 -0.6793  0.0234
24801W        W45081   3.383   1.236   2.600 -0.0835  0.0326 -0.2888
24802W        W45082  11.837  14.677   2.498 -0.0321 -0.0571  0.3118
24803W        W45083   1.496  16.231  13.425  0.1158 -0.1297  0.2616
24804W        W45084   9.930   2.198   1.700 -0.0105 -0.0078 -0.2337
24805W        W45085   3.645  13.660   3.095 -0.5199  0.1737  0.0527
24806W        W45086  13.486   0.580   0.068  0.0120  0.1819  0.1701
24807W        W45087  19.788  17.911  11.257  0.1991  0.3005  0.0395
24808W        W45088   6.865   3.488   3.318 -0.1382  0.0912  0.2627
24809W        W45089  14.398   6.260  12.002  0.0017 -0.0611  0.0134
24810W        W45090   2.264   2.055   0.048  0.2317  0.2435 -0.3267
24811W        W45091  10.840  11.111   0.122  0.0700  0.0489  0.0310
24812W        W45092   0.608   3.819   2.593 -0.3782  0.0373  0.1047
24813W        W45093   1.185  16.472  12.935 -0.1927  0.1602  0.1111
24814W        W45094   0.064  15.972   4.058 -0.1323 -0.1944 -0.0861
24815W        W45095   8.924   4.817  10.891 -0.0241 -0.1568 -0.2564
24816W        W45096   6.272   1.047   3.507  0.0285  0.0381 -0.1726
24817W        W45097  15.273   3.232   9.863  0.2498  0.1496 -0.0591
24818W        W45098   2.148   3.119   3.234  0.0055 -0.0156 -0.0093
24819W        W45099  14.248   4.201   2.454  0.0573 -0.2598 -0.0429
24820W        W45100  17.775   9.800   1.040  0.4473  0.2686  0.0350
24821W        W45101  11.762   5.698  11.878  0.0583  0.0441  0.0303
24822W        W45102  11.105  18.579   2.813 -0.0560 -0.1362  0.1494
24823W        W45103  17.846  19.271   8.589  0.0435 -0.1302  0.0277
24824W        W45104   2.100  19.685  12.482 -0.0148  0.1615 -0.0326
24825W        W45105  16.318  13.561   3.269 -0.1894 -0.0965  0.3342
24826W        W45106   4.040   0.018  11.001 -0.0347 -0.1539 -0.0394
24827W        W45107   7.700   9.106   2.334  0.1963 -0.3269  0.1179
24828W        W45108  14.150   1.828  12.055 -0.0397  0.1061  0.0984
24829W        W45109   9.316  18.468  10.422  0.3602 -0.0044  0.4194
24830W        W45110  19.693   5.158  13.402 -0.0226 -0.1152 -0.2292
24831W        W45111  18.690   4.073   3.587 -0.0554 -0.0200 -0.2048
24832W        W45112  18.184  16.423   1.513 -0.1972 -0.3077  0.2096
24833W        W45113   3.124   2.230  13.838  0.2045  0.2152  0.3004
24834W        W45114  15.603   0.421   9.871 -0.2131  0.1905  0.1122
24835W        W45115   7.533   1.466   3.910 -0.0667  0.0444 -0.2232
24836W        W45116   3.585   0.817  11.036 -0.0971  0.0539  0.0592
24837W        W45117  14.148   1.606   2.679  0.3816 -0.0951  0.4715
24838W        W45118  19.005   0.452  10.716  0.0251 -0.1370 -0.4629
24839W        W45119  17.298   8.441   1.968 -0.3499 -0.2787 -0.2356
24840W        W45120  15.350  16.927   1.289 -0.1150 -0.1368  0.0819
24841W        W45121  19.493   6.514   2.610 -0.2772 -0.2114 -0.1940
24842W        W45122   8.524   3.060   2.392 -0.3120  0.1970  0.0883
24843W        W45123  19.059  12.395  13.694  0.1198  0.3589  0.0041
24844W        W45124  14.013   6.551   0.556 -0.0614 -0.2348  0.2792
24845W        W45125   0.692   7.245   3.470  0.0733  0.4796 -0.1255
24846W        W45126   6.433   0.901   1.246  0.3116 -0.0063 -0.1887
24847W        W45127   1.905  18.971   3.461  0.2937  0.2096  0.0045
24848W        W45128  15.270   0.359  13.282 -0.1451  0.1232  0.2239
24849W        W45129  11.508  10.197   1.209  0.2509 -0.0329  0.2663
24850W        W45130  16.684  19.438  13.609 -0.2286 -0.1372  0.0260
24851W        W45131   1.383  18.551   2.310  0.0196  0.1723  0.0353
24852W        W45132   2.903  19.130  13.794  0.0369 -0.3593  0.0708
24853W        W45133   9.511  15.402   2.752 -0.0115 -0.1837  0.0196
24854W        W45134  10.180  11.280   1.216 -0.0117  0.0661 -0.1690
24855W        W45135  15.647   0.419   3.082 -0.0415  0.3713  0.0068
24856W        W45136   6.456  19.593  10.424  0.0700 -0.5357 -0.0524
24857W        W45137  13.676  19.501   2.107  0.1337  0.1254 -0.1017
24858W        W45138  11.928   5.645   3.472  0.0670  0.3200 -0.0751
24859W        W45139   0.743   5.487   2.950  0.2003 -0.0813 -0.3302
24860W        W45140  16.947  16.874   0.245 -0.0129  0.0323 -0.1090
24861W        W45141   8.251  19.773   3.799 -0.0606 -0.0445 -0.2711
24862W        W45142   8.918   1.516   0.400 -0.1407  0.0829  0.0301
24863W        W45143   3.918  16.907   3.567 -0.1752 -0.0770 -0.0972
24864W        W45144  14.900  17.798  10.560 -0.3145  0.1334  0.0161
24865W        W45145  11.785   0.953   0.123  0.2046  0.0424 -0.0363
24866W        W45146  14.275   5.857   3.956 -0.3073  0.1670  0.1488
24867W        W45147  10.341   3.725  10.719  0.2129  0.0281 -0.1851
24868W        W45148  18.567  16.304   3.393  0.0460  0.0669 -0.0344
24869W        W45149  14.442  17.779  10.300 -0.2399 -0.0090  0.1284
24870W        W45150  17.335   5.746   2.049  0.2155 -0.3106 -0.4428
24871W        W45151  15.701  14.162   3.232 -0.4868  0.0205  0.0298
24872W        W45152  18.741   0.277  12.885 -0.1195 -0.2622  0.1830
24873W        W45153   3.726  19.582   2.034  0.2354 -0.1703 -0.1138
24874W        W45154  18.652  15.835  10.380 -0.3125  0.4086 -0.1292
24875W        W45155   2.321   5.991   1.462  0.1426  0.1596  0.0888
24876W        W45156  19.234  18.950   3.398  0.4595  0.1988  0.1411
24877W        W45157   5.214  17.803  12.966  0.0103  0.0387 -0.0775
24878W        W45158   9.048   0.270   0.339  0.5414  0.1326  0.1837
24879W        W45159   0.884   7.819   1.228 -0.0114 -0.2322  0.1353
24880W        W45160  18.410  14.595  10.590  0.3538 -0.1391 -0.1780
24881W        W45161   9.739   1.827  13.141  0.0955  0.0070  0.0464
24882W        W45162  14.823  13.391   0.292  0.0816  0.0785  0.2078
24883W        W45163  11.649  12.786   3.396  0.1283  0.1146 -0.3273
24884W        W45164   9.208  15.635  13.456  0.1578 -0.0631  0.2146
24885W        W45165  12.047  19.519  10.843  0.0396  0.0956  0.2983
24886W        W45166  18.933  10.295  10.236  0.2420  0.0668  0.0262
24887W        W45167   7.563  13.389  11.627 -0.1488 -0.2440  0.1019
24888W        W45168   3.332  14.949  12.392 -0.1654  0.3429 -0.2659
24889W        W45169   1.166  13.889   0.609 -0.1429  0.0146 -0.2492
24890W        W45170   0.159   5.507   0.658 -0.1982 -0.0283 -0.3370
24891W        W45171   5.845  12.057  10.992 -0.1169  0.1862 -0.0068
24892W        W45172  10.268  15.146  11.651 -0.0676  0.0809 -0.1543
24893W        W45173  11.872  15.631  11.802 -0.1043 -0.1708  0.0351
24894W        W45174   8.714   5.920   2.297  0.2574  0.0792 -0.0838
24895W        W45175   8.094   2.403  10.609 -0.0773 -0.1215 -0.0939
24896W        W45176  18.762   3.846  13.370 -0.0238 -0.1766 -0.1601
24897W        W45177  13.781  10.507  12.638  0.2071 -0.0850 -0.0917
24898W        W45178   1.657  13.559  12.256 -0.1179 -0.0693 -0.0290
24899W        W45179  11.840   7.594   0.298 -0.1537  0.2015 -0.1700
24900W        W45180  13.605  19.102   2.530 -0.2326  0.3167  0.0474
24901W        W45181   4.386  11.461   3.000  0.1616  0.0082  0.0078
24902W        W45182  17.465   2.391   1.139 -0.0482  0.3554 -0.2454
24903W        W45183  19.021  12.268  11.159 -0.1043 -0.2136  0.2435
24904W        W45184   8.984   1.341  13.244  0.2310 -0.0846 -0.2346
24905W        W45185  14.258   9.654  13.728  0.2807 -0.4371 -0.0358
24906W        W45186  13.626  13.317  10.494 -0.2212  0.1776  0.2421
24907W        W45187   2.716   5.178  10.075  0.1745 -0.0944  0.1425
24908W        W45188  13.823  14.284  13.121  0.0381  0.2496 -0.1518
24909W        W45189  16.954  19.229  11.641  0.1946  0.1138 -0.0279
24910W        W45190   0.946  15.846  10.990 -0.1874 -0.1033  0.1065
24911W        W45191   8.386   4.790  13.752 -0.1228 -0.1174 -0.2281
24912W        W45192   9.626   2.840  12.468  0.0713  0.4738 -0.0698
24913W        W45193   3.323  19.798  13.177  0.0043 -0.0261 -0.1571
24914W        W45194   6.235   4.970  13.561  0.2847 -0.0063  0.2163
24915W        W45195  10.520  13.211   2.755  0.2482  0.2158 -0.1401
24916W        W45196  18.302  15.694  11.876 -0.4480 -0.1656  0.0489
24917W        W45197   8.808   1.680  13.562  0.0117 -0.2138  0.1264
24918W        W45198   7.905   5.653  11.756  0.2072 -0.1319 -0.0771
24919W        W45199  16.352   1.950  13.483  0.1881 -0.1121  0.1734
24920W        W45200  17.352   8.086  11.688 -0.0741  0.2577 -0.3007
24921W        W45201   2.363   3.531  12.947 -0.2545  0.1081  0.0803
24922W        W45202   4.743   0.163   3.975 -0.2770  0.0625  0.3207
24923W        W45203  18.589   2.916  13.530 -0.1039  0.1667 -0.0737
24924W        W45204  14.801  11.924  12.725  0.4457 -0.5088  0.0594
24925W        W45205  12.636   4.207   9.949  0.1921  0.0936  0.0674
24926W        W45206   1.231  12.416  12.771  0.0074 -0.2058 -0.1629
24927W        W45207  11.001  17.834   0.618  0.1068  0.0073  0.1513
24928W        W45208   8.106  18.118   2.574  0.2524 -0.3655  0.3056
24929W        W45209   7.890   8.958   0.663 -0.0437 -0.0480  0.4351
24930W        W45210   5.441   5.616   3.932  0.1645  0.1795  0.1384
24931W        W45211  10.289   1.228   1.002 -0.0755  0.1284 -0.0357
24932W        W45212  14.051   5.922  12.147  0.2137 -0.2440  0.1299
24933W        W45213  16.032   7.088   0.109 -0.0323  0.2632  0.0912
24934W        W45214  19.290   7.601   1.396  0.2836  0.1372 -0.0645
24935W        W45215   2.125   7.788   1.541  0.2935  0.2181  0.2110
24936W        W45216  12.892  11.257  11.722 -0.1069 -0.0187  0.6072
24937W        W45217  14.433  10.288   1.319 -0.1142 -0.0969 -0.0227
24938W        W45218  18.805  17.106  12.032 -0.4125  0.2053 -0.1555
24939W        W45219   1.806   8.634   1.597 -0.1704  0.0918  0.0769
24940W        W45220   3.025  11.252  13.239  0.1106  0.0999  0.1529
24941W        W45221  11.031   2.538   4.405 -0.1754  0.0452  0.2059
24942W        W45222   9.414   7.294   0.957 -0.1425 -0.1806 -0.1405
24943W        W45223  19.792  18.589   0.122  0.2090  0.0777 -0.1402
24944W        W45224   7.420  19.352  13.405 -0.4385 -0.3228  0.1264
24945W        W45225  16.408   6.534  13.380 -0.0454  0.0109 -0.2564
24946W        W45226   4.728  12.081   1.949 -0.0620 -0.2604 -0.1734
24947W        W45227   7.037  19.836  12.573  0.0696  0.0566  0.3440
24948W        W45228   5.241   5.280   2.177  0.2839 -0.1608 -0.0041
24949W        W45229   0.934   2.027   1.590 -0.2030 -0.0601 -0.2431
24950W        W45230   4.561  11.307  11.196  0.0146  0.0976 -0.0968
24951W        W45231  19.853   9.430   2.645  0.0051 -0.1995 -0.0117
24952W        W45232  12.208   7.245  10.574 -0.0864 -0.1751  0.1008
24953W        W45233  16.299   9.795   3.021  0.2327  0.0257 -0.0059
24954W        W45234   9.586  19.197   2.800 -0.0477  0.0291 -0.1630
24955W        W45235  10.166   1.164   9.385 -0.2859 -0.0579  0.1521
24956W        W45236   4.732   9.619   1.365  0.2519  0.0185 -0.1304
24957W        W45237  10.416   1.556   0.174 -0.0067 -0.1086  0.0013
24958W        W45238  16.547   8.170   2.285 -0.3870 -0.3299 -0.1503
24959W        W45239  16.300  14.341   2.583  0.1474 -0.2758 -0.0108
24960W        W45240  14.711  10.617  12.863  0.0111  0.3342  0.1544
24961W        W45241  13.267  18.169   2.996 -0.1754  0.1012 -0.1168
24962W        W45242   4.486  11.779   2.638  0.0463  0.0422  0.0705
24963W        W45243  19.280  12.333  10.710 -0.2628  0.3441 -0.0452
24964W        W45244  19.858   9.520  12.535 -0.1133 -0.1308  0.2516
24965W        W45245   8.479   1.832   1.644 -0.1436  0.0882 -0.3665
24966W        W45246  15.071  15.935   2.720 -0.1336  0.3662 -0.0586
24967W        W45247   2.734  14.144   1.763  0.1067  0.0186 -0.0597
24968W        W45248   3.844   2.776   0.761 -0.1174 -0.0943  0.3450
24969W        W45249  19.458  14.028   8.499  0.0915 -0.4492  0.3186
24970W        W45250   4.331  19.750   1.203  0.0016  0.0745 -0.2211
24971W        W45251  17.152   8.525   3.265  0.1622  0.2868 -0.1294
24972W        W45252  17.739   9.398  12.216  0.0561 -0.0366  0.0256
24973W        W45253  10.128   7.662  13.491  0.3599  0.0165 -0.0787
24974W        W45254  14.707  14.026   2.360 -0.1502 -0.1567  0.1439
24975W        W45255  11.976  14.883  12.834  0.2472 -0.0430 -0.0013
24976W        W45256  18.913   3.235   2.004  0.1157 -0.3863  0.0974
24977W        W45257  19.453  12.976   3.706 -0.0607  0.1148  0.0445
24978W        W45258   2.435  13.856  11.424 -0.2414 -0.2525 -0.1226
24979W        W45259  19.499  14.562  10.220  0.2873 -0.0338  0.0652
24980W        W45260   3.755   4.807   2.958 -0.0280 -0.0321  0.0150
24981W        W45261  14.088  16.943  12.252  0.0782  0.1885  0.3209
24982W        W45262  11.582   3.192   3.060 -0.2049  0.2978 -0.2295
24983W        W45263  15.732  16.891  11.304  0.1237  0.1685 -0.1457
24984W        W45264   1.468  15.842   4.177 -0.1061  0.3623  0.2076
24985W        W45265  19.609   2.589   0.738  0.1027 -0.1695 -0.2620
24986W        W45266   2.623   0.072  12.235  0.2292 -0.2260 -0.0654
24987W        W45267  15.454  13.137  12.091 -0.0472  0.1585  0.0993
24988W        W45268   7.356   2.433   2.302 -0.1578  0.0049  0.2056
24989W        W45269   5.381  18.108  10.771  0.0584 -0.1532  0.3817
24990W        W45270   1.016  14.776  13.799 -0.3595 -0.0565 -0.5683
24991W        W45271  13.864   2.779  13.620 -0.1189 -0.1008  0.1510
24992W        W45272   7.630   3.564  11.385  0.0793  0.1096 -0.1772
24993W        W45273   7.260  17.513  10.949 -0.0594 -0.1281  0.1324
24994W        W45274   6.090  19.007  12.236  0.2912  0.3501 -0.1244
24995W        W45275  14.587   1.798   2.307 -0.0436 -0.0697 -0.1314
24996W        W45276  14.908   8.032   9.557 -0.0949  0.1882  0.1793
24997W        W45277  18.033  15.921  13.194 -0.1751  0.0672 -0.1009
24998W        W45278  19.601  12.582  12.943  0.1529  0.1989  0.0811
24999W        W45279  14.507  11.336  10.846  0.0452  0.0207 -0.1094
25000W        W45280   3.737  15.354   0.265  0.1344  0.3992 -0.1468
25001W        W45281  11.643   2.603  10.378 -0.1587 -0.0801 -0.2021
25002W        W45282   0.029   4.615  10.992  0.1413 -0.0933  0.0769
25003W        W45283  13.740   7.400  13.172 -0.2793 -0.0798  0.2467
25004W        W45284   0.865  11.901   1.998 -0.0862 -0.1862  0.0665
25005W        W45285  18.984   9.503  10.901 -0.2606  0.1528  0.0745
25006W        W45286  15.469  14.443  13.408  0.0085  0.1645 -0.2581
25007W        W45287   4.549   7.943   2.165 -0.1780 -0.1806 -0.0470
25008W        W45288  18.776  14.171   1.215  0.3547  0.0255  0.0039
25009W        W45289   3.011   1.742  13.695  0.0865  0.1176  0.0702
25010W        W45290  17.682  11.890   2.742 -0.0390  0.2051  0.1236
25011W        W45291  17.844  19.587   1.615  0.1630 -0.2188  0.0786
25012W        W45292  18.620   9.806   1.874  0.2006 -0.2824  0.0321
25013W        W45293   6.847  14.608   2.753 -0.0915 -0.0097 -0.1178
25014W        W45294   9.973  16.894  10.672 -0.4439  0.2783  0.0593
25015W        W45295   9.889   0.452  11.961 -0.1605  0.1993  0.0877
25016W        W45296   5.960   6.217  11.922  0.0937  0.0535  0.0506
25017W        W45297  12.844  18.940   1.920 -0.0577  0.3244  0.0760
25018W        W45298   8.757  19.390  12.257  0.0001 -0.1577  0.0626
25019W        W45299   7.848  11.202   2.500  0.3905 -0.0648  0.1719
25020W        W45300  19.089  12.861  10.818  0.0190 -0.0592  0.3161
25021W        W45301   5.104   2.233   3.254  0.1249  0.2887  0.1913
25022W        W45302  18.503  12.058  12.062  0.1002  0.0588  0.1395
25023W        W45303   1.560   0.891   3.058  0.0486  0.0478  0.0097
25024W        W45304  18.414  15.304   0.541 -0.0012  0.0094 -0.0041
25025W        W45305  18.203  19.946  10.682  0.1771 -0.2537  0.1996
25026W        W45306  16.016   8.963  13.572 -0.1934  0.1498 -0.0483
25027W        W45307  12.848  17.388   3.546  0.4981  0.4784 -0.0493
25028W        W45308   7.135   2.108   3.433  0.1451 -0.0561 -0.0620
25029W        W45309   8.852  18.575   4.974  0.3005 -0.0628 -0.2164
25030W        W45310  17.391   5.616  10.702 -0.0773 -0.0358 -0.1333
25031W        W45311   4.691  19.298  11.140  0.1431 -0.0593 -0.1304
25032W        W45312  16.656  12.704   2.619  0.2742  0.2267 -0.1528
25033W        W45313   7.674  11.776   1.767  0.2509  0.1125  0.0554
25034W        W45314   5.123   1.636   4.191 -0.5318 -0.1039 -0.0846
25035W        W45315   4.022  10.670   1.167 -0.1885 -0.1467  0.1785
25036W        W45316  13.461  13.953   2.720  0.1484 -0.0799 -0.2049
25037W        W45317   7.168  16.353   0.589 -0.1702 -0.3855 -0.3806
25038W        W45318   9.926  11.737   4.801  0.1241  0.0986  0.1271
25039W        W45319   9.637   5.103   0.729  0.1007 -0.1442  0.2878
25040W        W45320   6.555  10.362  13.552 -0.0811 -0.2579  0.1322
25041W        W45321  15.624  17.281  10.859  0.2990  0.3103 -0.3133
25042W        W45322   0.960   7.664   8.923 -0.2963 -0.0969  0.2640
25043W        W45323   0.042   0.015   0.916 -0.2507  0.1158  0.2979
25044W        W45324   3.786   0.393  11.701 -0.2382  0.0741 -0.2340
25045W        W45325  15.715  18.877   2.372 -0.4860 -0.2510  0.1287
25046W        W45326  11.838   9.445  12.859  0.1659  0.0853  0.2071
25047W        W45327  18.359   8.639  10.377 -0.1890 -0.0789 -0.2843
25048W        W45328  12.079  11.311   2.979  0.1119  0.0291 -0.1421
25049W        W45329   2.154   7.452   1.038  0.0681  0.1426  0.0166
25050W        W45330   0.477  19.676   1.665  0.0292  0.1224 -0.0210
25051W        W45331  14.261  16.085  10.648  0.0374 -0.1413  0.0701
25052W        W45332  18.264  10.678   3.082 -0.1255 -0.5186  0.0600
25053W        W45333  11.020  15.400   1.153 -0.0490 -0.0347  0.0329
25054W        W45334  12.593   6.473  10.405  0.3528 -0.1468  0.1320
25055W        W45335   7.312  16.578   4.432  0.1267  0.1990 -0.0850
25056W        W45336   1.948   6.271  11.880  0.1793  0.2704 -0.2392
25057W        W45337  16.981  11.929   0.298  0.3488 -0.0581  0.0126
25058W        W45338  11.330   2.171   1.546 -0.3180 -0.1664 -0.1132
25059W        W45339  10.032   2.825   0.191 -0.3658  0.1843 -0.1502
25060W        W45340  12.952  17.019   2.195 -0.0043 -0.1973  0.0471
25061W        W45341  17.341  10.560  12.429 -0.0138 -0.0923  0.2848
25062W        W45342   1.279  10.196   1.436  0.2975 -0.0835 -0.1605
25063W        W45343   3.486  11.846   3.954 -0.4842 -0.0497  0.1541
25064W        W45344   9.877   3.587  12.728  0.0005  0.0172 -0.0768
25065W        W45345   3.420   3.302   2.043 -0.2025  0.2050  0.0937
25066W        W45346   2.025   0.162  13.664 -0.0163  0.1304  0.0082
25067W        W45347  14.157  12.368   3.065 -0.3134 -0.3679 -0.1318
25068W        W45348  13.857   1.051  13.145 -0.1049  0.0407 -0.2888
25069W        W45349  18.650  16.833   9.543 -0.1812  0.0653  0.1562
25070W        W45350   1.960   3.358  10.667 -0.1341  0.1738 -0.0467
25071W        W45351  11.434  16.813  10.670 -0.0341  0.2028  0.1044
25072W        W45352   9.239   3.365   1.768  0.0077  0.1450  0.1737
25073W        W45353  19.225  19.621   2.820  0.0800  0.1282  0.1514
25074W        W45354   5.365  17.905   3.714  0.1743 -0.2471  0.0813
25075W        W45355   2.042  16.619   2.276  0.0726  0.2037  0.1035
25076W        W45356  13.265  12.338   9.957  0.1449 -0.3085 -0.0163
25077W        W45357   9.357  10.613   5.005  0.0597  0.3279 -0.3452
25078W        W45358  13.379  11.161  11.619  0.0179  0.1006  0.0492
25079W        W45359   9.819   0.926  11.018 -0.3575  0.0414  0.0326
25080W        W45360   3.229   7.435   3.735  0.1037  0.1089 -0.0894
25081W        W45361   3.170  15.819  12.358  0.1110 -0.1799  0.1700
25082W        W45362  17.207  11.939  12.582 -0.1543  0.0980  0.1755
25083W        W45363  19.590  16.950  11.002  0.2820  0.0956  0.0799
25084W        W45364   9.326   6.983   3.501  0.0090  0.4131 -0.1229
25085W        W45365   2.788  19.770  13.359 -0.0384 -0.4392  0.1209
25086W        W45366  18.627  12.614  10.953  0.0281 -0.2104  0.0049
25087W        W45367   8.863  11.069   1.322 -0.3446  0.1360 -0.0342
25088W        W45368   7.833  12.439   3.066  0.3844 -0.2621 -0.3068
25089W        W45369   7.894   3.542   0.605 -0.0246 -0.0205  0.0342
25090W        W45370  13.740  15.809  11.854 -0.0996  0.1414 -0.0993
25091W        W45371  11.130  19.300   9.859  0.0401  0.2234 -0.2052
25092W        W45372   2.435  14.689  11.831  0.4187 -0.1850 -0.0913
25093W        W45373  12.999   7.446   2.160 -0.2737  0.1773 -0.0131
25094W        W45374   6.432  12.794   2.752  0.0452  0.1701  0.0437
25095W        W45375   3.181   0.856   2.318 -0.3457  0.0227  0.0745
25096W        W45376  11.083   3.565  11.231 -0.3333  0.0539  0.0507
25097W        W45377  16.868   1.542   2.639  0.4090  0.0384 -0.0458
25098W        W45378  19.118  13.410   2.910 -0.3820  0.0394 -0.1582
25099W        W45379   2.038  16.240   3.335  0.1795 -0.1197  0.0245
25100W        W45380  19.219   8.270   0.061 -0.1300 -0.0619 -0.2064
25101W        W45381   3.236  14.837   0.683  0.0604 -0.0908 -0.1327
25102W        W45382   2.779  19.537  12.446  0.0855  0.0158  0.2385
25103W        W45383  13.161   8.188   0.990  0.2913  0.5415  0.0357
25104W        W45384  10.640   2.053   0.793  0.0984  0.1077  0.1933
25105W        W45385   7.786   9.325   1.288 -0.2385 -0.0674 -0.0947
25106W        W45386  13.501  11.693   2.199 -0.1847 -0.0845 -0.1937
25107W        W45387   2.158   9.667  10.284 -0.0579  0.0074 -0.1734
25108W        W45388   4.506   3.041  12.937 -0.2129 -0.1540 -0.0167
25109W        W45389   4.638  17.439  10.961 -0.1850  0.1169  0.1548
25110W        W45390  10.660   9.099  11.027 -0.1713  0.2510 -0.0806
25111W        W45391   6.599   9.735  12.741  0.3258  0.0528 -0.2622
25112W        W45392  14.299  15.138  10.467  0.1658  0.0449  0.1163
25113W        W45393   1.953  14.986  12.016 -0.0572 -0.0659  0.2347
25114W        W45394  12.562   9.437   2.743  0.3307 -0.0450  0.1427
25115W        W45395   3.775  15.090   3.080  0.1960 -0.2114 -0.1288
25116W        W45396   1.139  13.483   3.753 -0.1113  0.4002 -0.0556
25117W        W45397   3.583   7.836  11.493 -0.2725  0.1703 -0.1257
25118W        W45398  11.853  18.753  10.690  0.1787 -0.2252 -0.4831
25119W        W45399  16.781  12.753  12.988 -0.2639  0.2148  0.0422
25120W        W45400   7.010  10.808   4.043  0.1998  0.1768 -0.1594
25121W        W45401   2.958  19.268   1.602  0.3224  0.0430 -0.1354
25122W        W45402  18.000   0.256   3.430  0.0618 -0.1588  0.0253
25123W        W45403  12.602   1.664   9.883  0.2682  0.0282  0.2428
25124W        W45404  14.641   5.562  13.507 -0.0676  0.1246 -0.0902
25125W        W45405  14.134   3.437   3.165  0.0131 -0.0240 -0.1151
25126W        W45406   3.645  12.264   4.199 -0.0431  0.1310  0.0440
25127W        W45407   4.608   4.546   1.894 -0.1237  0.0136  0.3770
25128W        W45408  16.603   9.557   2.690  0.0744 -0.1262 -0.0765
25129W        W45409  18.116   6.413  12.323  0.4434 -0.0122 -0.0285
25130W        W45410   5.375   4.820   2.935 -0.1325 -0.0733  0.1004
25131W        W45411  15.117  16.238  13.086 -0.1426  0.2333 -0.0481
25132W        W45412   9.361  14.942   4.009 -0.0475 -0.2160 -0.0975
25133W        W45413  11.144   1.318  13.588 -0.0904 -0.0264 -0.0764
25134W        W45414   0.451  12.358  11.750  0.2072 -0.0657  0.3864
25135W        W45415  16.914   2.086   9.972 -0.1282 -0.1772 -0.0288
25136W        W45416  13.081   6.251  11.950  0.0900  0.0736  0.0020
25137W        W45417   5.341   1.832   3.351 -0.0201  0.0082 -0.1957
25138W        W45418  17.193  12.392   1.989  0.0108  0.2426 -0.4209
25139W        W45419  10.764   0.057   0.698 -0.1210  0.1090 -0.1614
25140W        W45420  11.495  14.964   2.779  0.0241  0.2469  0.2247
25141W        W45421  19.103   2.503  12.988 -0.0954  0.1232  0.0182
25142W        W45422  17.146   8.274   3.693 -0.2824 -0.4980  0.0195
25143W        W45423   1.276  13.802   3.425 -0.0488 -0.0553 -0.2971
25144W        W45424   5.452  15.482  13.371 -0.0469  0.0032 -0.1560
25145W        W45425   3.285  12.726  10.148 -0.2780 -0.2690  0.1626
25146W        W45426   8.824   2.099   3.047 -0.0849 -0.2478 -0.2129
25147W        W45427   5.627   7.135   2.070 -0.2479  0.1015 -0.0649
25148W        W45428  17.041  12.809   0.772 -0.0023 -0.1435  0.1701
25149W        W45429  15.221   3.544   0.845  0.2520  0.2384 -0.0600
25150W        W45430  13.725  17.853   1.337 -0.0540 -0.0314  0.3034
25151W        W45431  17.452  18.880   4.727 -0.4707  0.0860 -0.0866
25152W        W45432   1.026   6.316   3.177 -0.0184  0.0642  0.1489
25153W        W45433   6.212   1.628   3.123 -0.3734 -0.1543 -0.2219
25154W        W45434   5.996   0.014   0.188 -0.1119 -0.0713 -0.2943
25155W        W45435  11.200   6.989   3.353  0.0043 -0.0298 -0.1119
25156W        W45436   8.998   2.804  13.430  0.1262  0.0735 -0.1516
25157W        W45437   1.493   6.281   0.103 -0.1100 -0.0551  0.4490
25158W        W45438  17.404   9.070  12.525 -0.0382 -0.1743  0.0692
25159W        W45439  14.018  15.174  12.130  0.0560 -0.0103 -0.2417
25160W        W45440   8.984   7.730  13.768 -0.1489 -0.2243 -0.0516
25161W        W45441   2.593  15.654  10.808  0.0366  0.2228  0.0392
25162W        W45442  10.855   4.881   3.913 -0.0455  0.1077 -0.1058
25163W        W45443  10.403  17.477   4.459 -0.2222  0.2832 -0.0627
25164W        W45444   7.068   4.338   3.527  0.2898  0.0659  0.0787
25165W        W45445   4.088  15.780  13.332 -0.0061 -0.1488  0.0959
25166W        W45446   4.480  18.718   3.832  0.0738  0.1748  0.1898
25167W        W45447  16.979  10.318   2.369 -0.0544 -0.0396  0.0320
25168W        W45448  13.077  11.230  10.701  0.2054 -0.1552  0.0081
25169W        W45449  16.335  18.211  11.182  0.0404 -0.1437 -0.0066
25170W        W45450  19.877  14.730  12.245 -0.4416  0.0018 -0.1418
25171W        W45451  19.128  15.846   0.939 -0.2371  0.1336  0.2924
25172W        W45452   6.059   3.386  10.291 -0.0303  0.1508  0.1633
25173W        W45453   6.817   9.685   2.691  0.3673  0.1695  0.0399
25174W        W45454  10.591   5.708  11.693 -0.1188  0.0005 -0.2659
25175W        W45455   5.779   6.530  12.344 -0.0123  0.0953  0.2152
25176W        W45456  11.754  16.467  10.925 -0.3020  0.1144  0.2462
25177W        W45457   5.638   7.634  10.444 -0.0500  0.1957  0.3247
25178W        W45458  16.575   7.082  13.558 -0.2842 -0.1180  0.0142
25179W        W45459  16.336   2.080   0.870  0.1403 -0.4452 -0.2540
25180W        W45460   2.873   0.438   1.950  0.1439 -0.1820  0.1400
25181W        W45461  17.010   3.096   1.909 -0.0369  0.1858 -0.0811
25182W        W45462   7.835  12.154   2.008 -0.1633  0.0673  0.1980
25183W        W45463   8.118   2.692   1.087  0.0685 -0.0689 -0.0154
25184W        W45464  11.835   4.022  11.567 -0.0177  0.4036  0.0195
25185W        W45465  10.063  19.004  11.088 -0.4217  0.0252 -0.2122
25186W        W45466  12.013   4.694  10.928  0.0967 -0.1790  0.1739
25187W        W45467   1.400   0.159  11.563  0.1270 -0.0730  0.3355
25188W        W45468  12.905   7.719  10.924 -0.1545  0.1317 -0.1619
25189W        W45469  13.067  13.607  11.358  0.0338 -0.0962 -0.1204
25190W        W45470   2.165   7.745  12.740  0.1064 -0.3092 -0.1285
25191W        W45471  10.194  18.535   2.358  0.1568  0.2526 -0.1062
25192W        W45472  17.044  16.869   0.835  0.2270 -0.0421  0.4091
25193W        W45473   8.223  11.100   3.082 -0.0881 -0.1273  0.2727
25194W        W45474  17.594  18.700  11.477 -0.0279  0.2417 -0.0790
25195W        W45475   1.953  14.177   1.181  0.1039  0.0585 -0.0249
25196W        W45476   2.242  16.681   3.654  0.0819  0.3347 -0.2087
25197W        W45477  13.626   1.763   0.818 -0.0811 -0.0542 -0.0574
25198W        W45478   0.819  17.738  11.331  0.0360  0.2583  0.2691
25199W        W45479  17.463   2.998  10.156  0.0625 -0.2075 -0.0810
25200W        W45480  12.631  15.618  10.271 -0.0057  0.0538  0.1328
25201W        W45481  15.512  19.768   1.986 -0.1633  0.1939 -0.2136
25202W        W45482  15.065   2.306  10.086  0.4981  0.2450  0.0583
25203W        W45483   3.467   3.623   0.786  0.1109  0.3268 -0.2381
25204W        W45484  17.632  10.354   3.271  0.2016 -0.1286 -0.0374
25205W        W45485  19.555   2.056   0.191 -0.2244 -0.0937 -0.1465
25206W        W45486  10.285  11.423  12.289 -0.1898  0.0980 -0.0021
25207W        W45487   8.163  16.158   0.397 -0.0201 -0.1528  0.0872
25208W        W45488   1.204   1.411   2.298 -0.3989  0.1881  0.5480
25209W        W45489   3.820   6.516   3.742  0.0616  0.0807  0.1117
25210W        W45490   9.363   4.626   3.787  0.0388  0.3400 -0.0446
25211W        W45491   8.982  14.956  11.462 -0.3327  0.0422 -0.1013
25212W        W45492   1.478  15.054  13.723  0.5611 -0.2121 -0.0923
25213W        W45493   9.206   7.913   0.312 -0.0387 -0.4010 -0.0861
25214W        W45494   3.066  16.200   1.092 -0.1297 -0.1048  0.0074
25215W        W45495   5.042   7.799   0.812  0.2128 -0.0340  0.1826
25216W        W45496   2.254   4.192   3.368 -0.1264 -0.1285 -0.1833
25217W        W45497  12.280   3.142  10.412 -0.3069  0.3022 -0.1708
25218W        W45498   5.140  16.606  12.229  0.2566  0.1274 -0.0047
25219W        W45499  10.875   7.778  12.396 -0.3380 -0.0641 -0.0592
25220W        W45500  13.870   0.386  12.514  0.1077  0.2136  0.0731
25221W        W45501  12.674   6.994   0.321  0.1442  0.3895 -0.4080
25222W        W45502   4.723   9.456   3.756 -0.2273  0.1793  0.1949
25223W        W45503  10.655   8.209  12.456  0.1031  0.0236 -0.0294
25224W        W45504  10.749  13.386   0.413  0.1428  0.2878  0.1925
25225W        W45505   8.342   7.913   9.814 -0.0256  0.1387 -0.0758
25226W        W45506   3.459   4.888   2.447 -0.0434  0.3027  0.3549
25227W        W45507  12.207   8.263  12.497  0.1076 -0.1661 -0.3844
25228W        W45508   0.895   1.931   0.644  0.0750 -0.0623 -0.1774
25229W        W45509  14.404  13.301  11.361 -0.2525 -0.2072 -0.0814
25230W        W45510   3.752   0.479  12.791  0.0172  0.0195 -0.0127
25231W        W45511  15.575  14.362   3.661  0.2134  0.2103  0.0040
25232W        W45512  15.441  12.492  10.261 -0.1447  0.0833 -0.1708
25233W        W45513  14.534  15.815   2.465  0.0191 -0.2889 -0.0535
25234W        W45514  16.293  15.003   1.361 -0.0423  0.0545 -0.1385
25235W        W45515  15.627  11.372   2.069  0.0356  0.1034  0.3230
25236W        W45516  16.218  18.778   2.487  0.0633  0.0041 -0.2966
25237W        W45517  15.296  16.115   1.680 -0.2514  0.0594 -0.2495
25238W        W45518  15.560  10.473   9.502 -0.1119  0.0718 -0.2457
25239W        W45519   1.166   4.233   1.256 -0.0213 -0.0833  0.2963
25240W        W45520   6.231   2.904   2.963 -0.0028 -0.2489  0.4610
25241W        W45521   2.558   9.063   2.049 -0.1436  0.2705  0.3539
25242W        W45522   9.249  19.777   1.244  0.2126  0.0353 -0.2146
25243W        W45523  19.252   6.275  10.674  0.0816 -0.2255 -0.1760
25244W        W45524  14.317   7.062  11.350  0.1346 -0.2591  0.0434
25245W        W45525  16.244   7.549   1.781 -0.4166  0.1534  0.0432
25246W        W45526  19.551   4.180  11.678 -0.0109 -0.2017  0.1139
25247W        W45527   3.565  12.611  11.063 -0.0290 -0.0417  0.3612
25248W        W45528   3.312  14.919   3.416  0.0662  0.1594 -0.0997
25249W        W45529  11.496  12.031  10.771  0.0248  0.0443 -0.2501
25250W        W45530  10.509   6.117   1.999  0.0763 -0.2854 -0.1613
25251W        W45531  16.720  17.274  10.752  0.2061 -0.3619  0.2890
25252W        W45532   1.057  13.627   1.280  0.1000  0.0697  0.2147
25253W        W45533   3.427   6.765  11.328  0.3916  0.0084 -0.1004
25254W        W45534   3.142   1.668   2.241  0.0284 -0.1175  0.0912
25255W        W45535  15.691   5.567  12.449  0.0150 -0.1020  0.2877
25256W        W45536  19.782  13.731   0.969  0.0591 -0.0869  0.1109
25257W        W45537   9.330   9.610   0.281 -0.2379  0.1333 -0.0180
25258W        W45538   0.208   6.404  13.337  0.0781  0.3090 -0.0422
25259W        W45539   7.181  19.223  10.586 -0.2693 -0.1238 -0.0944
25260W        W45540   9.795   8.302  10.633 -0.0505 -0.0500  0.1474
25261W        W45541  19.649   7.891   0.307 -0.1795 -0.2947 -0.0191
25262W        W45542  12.330  12.661   2.422  0.2130  0.0473 -0.3862
25263W        W45543   5.294  14.528  13.189 -0.0186 -0.3306  0.0483
25264W        W45544  14.222  17.895   1.387  0.0486 -0.3151 -0.1420
25265W        W45545   1.630  16.136  11.726 -0.1872 -0.6519  0.2776
25266W        W45546  11.198   6.410   0.274 -0.1182 -0.0096 -0.1617
25267W        W45547  19.872   7.104   0.534  0.1578 -0.0785  0.2820
25268W        W45548  11.884   5.795   3.950 -0.0487 -0.1591 -0.2494
25269W        W45549   0.209   4.075  10.934  0.1567 -0.0639 -0.1207
25270W        W45550   1.730   0.621   2.168 -0.0245  0.4267 -0.0391
25271W        W45551   6.925   1.450   1.780  0.0408  0.0031 -0.0444
25272W        W45552   2.773  15.489  10.370  0.2150 -0.1189  0.3032
25273W        W45553  12.231  18.226  10.186 -0.0475  0.1947 -0.0529
25274W        W45554  14.617  14.126  13.695 -0.2266  0.0382  0.1367
25275W        W45555  10.566  14.016  11.002  0.3246  0.1315 -0.0986
25276W        W45556   6.088  17.829   2.664 -0.0251  0.0361 -0.0232
25277W        W45557   6.599   8.577   1.617  0.1643  0.0863 -0.3568
25278W        W45558   1.173  12.473   0.189  0.2061 -0.2051  0.0462
25279W        W45559   6.766  18.977  11.055  0.2023 -0.1855 -0.0723
25280W        W45560   1.907   5.095  10.731  0.0522  0.0741  0.1835
25281W        W45561   2.040  16.987   1.763 -0.3261  0.0882  0.4885
25282W        W45562  14.534   3.174   3.076 -0.0074 -0.0858  0.0306
25283W        W45563  14.621  12.155  13.710 -0.4669 -0.0397 -0.0115
25284W        W45564   3.821   4.289  10.383 -0.1721 -0.0644 -0.1085
25285W        W45565  14.264  18.739   0.372  0.0066  0.1544  0.0332
25286W        W45566  14.216  16.519   1.779  0.0904  0.0712 -0.0701
25287W        W45567   5.935  19.132  11.106 -0.0064  0.1836  0.0363
25288W        W45568   6.113  17.206   2.834 -0.0330 -0.0127  0.0449
25289W        W45569   1.715   5.301   2.135 -0.1474 -0.0640  0.0462
25290W        W45570   8.852  12.096   3.823  0.2499  0.0656  0.3261
25291W        W45571   1.359   7.079  10.608  0.0339  0.2235 -0.0159
25292W        W45572   5.827   6.379   0.089  0.0451 -0.0344 -0.3536
25293W        W45573   5.598  18.217  12.754 -0.2283 -0.1773 -0.2681
25294W        W45574   3.463  12.498   1.451 -0.2635 -0.2365  0.0445
25295W        W45575   5.648  16.989  13.450  0.3427 -0.0390 -0.3125
25296W        W45576   6.903  10.436  11.805 -0.2104  0.2930 -0.1126
25297W        W45577  14.854  13.693   1.592  0.1348  0.2969 -0.0680
25298W        W45578  18.485   2.740  11.330  0.3912 -0.0506  0.3789
25299W        W45579   8.907   8.351   2.094 -0.1189 -0.0409 -0.0064
25300W        W45580   9.726   2.456   1.148 -0.0190 -0.3782 -0.0489
25301W        W45581   2.315  10.587   1.542 -0.0585 -0.1885 -0.1192
25302W        W45582   0.461  13.325   4.461  0.0450  0.4074  0.1587
25303W        W45583  13.795   9.693   2.946 -0.0547 -0.0137  0.1198
25304W        W45584   0.151  12.741   0.554 -0.0587 -0.1693 -0.1020
25305W        W45585   3.216   5.815   2.616  0.1775 -0.0272 -0.1995
25306W        W45586   3.109  15.076   2.134  0.1561  0.0376  0.1569
25307W        W45587  16.545   4.175   2.565 -0.1271 -0.0215  0.1826
25308W        W45588  14.177  19.660   0.998  0.0059  0.3071  0.0336
25309W        W45589  10.567  13.116  13.861  0.0995  0.1112  0.3112
25310W        W45590  10.213   0.981   3.673  0.0591 -0.0075  0.1467
25311W        W45591   7.285   9.482   4.351 -0.0523  0.2098  0.0518
25312W        W45592   9.709   6.341  10.192  0.0262 -0.0996 -0.1174
25313W        W45593   1.275  10.914   3.631  0.2335  0.0289  0.0982
25314W        W45594  14.141   6.772   1.098 -0.2301  0.1440  0.1403
25315W        W45595   7.053   9.987  12.741  0.0402 -0.0799  0.5584
25316W        W45596   2.662   4.597  11.559 -0.0156  0.1724  0.0553
25317W        W45597  12.396   9.590  10.211 -0.2769  0.0770  0.1232
25318W        W45598   1.118   5.459  11.034 -0.0139 -0.2563 -0.0298
25319W        W45599  11.853  11.504   0.483 -0.1465 -0.0129  0.0240
25320W        W45600   9.288  19.231  10.976  0.0609  0.4058  0.4681
25321W        W45601  10.372   4.522  10.301 -0.2327 -0.0952  0.1037
25322W        W45602  19.416   4.538   3.027 -0.0103 -0.3532 -0.1224
25323W        W45603   6.078   6.030  11.445 -0.0861 -0.0006  0.2433
25324W        W45604  14.918  12.317  12.999  0.1631 -0.0567 -0.1161
25325W        W45605   0.712  10.660  11.497  0.0137 -0.0198  0.0142
25326W        W45606   5.787   9.887   2.251  0.1901 -0.0422 -0.1808
25327W        W45607  15.541   9.251   1.018 -0.1911 -0.0424 -0.0658
25328W        W45608  12.191  17.729   2.050  0.0965  0.0217  0.2692
25329W        W45609   9.995   2.825  10.922  0.2291 -0.0555  0.2979
25330W        W45610   1.106   5.502   3.414 -0.2223 -0.2280 -0.2579
25331W        W45611  18.276   8.780  11.282  0.1335  0.0197  0.0558
25332W        W45612   0.883  17.441  11.759 -0.1482 -0.2100 -0.0239
25333W        W45613  11.439  15.844   3.952 -0.2455 -0.0256 -0.0191
25334W        W45614   3.646  12.746   0.315  0.0043 -0.0959 -0.0642
25335W        W45615  16.050   3.002   0.054 -0.2439 -0.3260  0.1656
25336W        W45616   5.685  13.440   0.204 -0.0219 -0.1173  0.2271
25337W        W45617  16.204   3.396  10.164  0.1428  0.0641 -0.1715
25338W        W45618  12.353   4.730   0.931 -0.0767  0.2169  0.2511
25339W        W45619   4.607   8.914   1.934 -0.3059  0.2121 -0.2633
25340W        W45620   4.097  19.191   0.970 -0.0840 -0.1645 -0.3381
25341W        W45621   7.540  15.099  10.723  0.3244  0.0498 -0.0735
25342W        W45622   3.610  11.217   2.986  0.0783  0.1725 -0.1903
25343W        W45623  10.847  14.801   4.309  0.0308  0.3799  0.0379
25344W        W45624   3.600   4.351   3.573  0.2966 -0.0217  0.2376
25345W        W45625  10.256   7.215  10.458 -0.0940 -0.3475  0.1538
25346W        W45626  13.562   7.582  12.701  0.0783  0.2312  0.6732
25347W        W45627   5.267  11.404  13.018 -0.0987 -0.0821 -0.0143
25348W        W45628   8.012   8.674   3.621 -0.3877  0.0553  0.1777
25349W        W45629   4.437  17.407   0.061 -0.2585 -0.0537  0.0267
25350W        W45630  17.867   6.194   2.775 -0.0984 -0.1162  0.2251
25351W        W45631  16.608   9.042  10.748 -0.0210 -0.1424 -0.5016
25352W        W45632  15.886  14.894   1.696  0.1308  0.2960  0.0128
25353W        W45633  10.588   2.049  11.569  0.0017 -0.2256  0.1112
25354W        W45634  14.460   8.576   1.249  0.0867  0.3463  0.1726
25355W        W45635  14.494  11.909  11.753 -0.2188 -0.2419  0.1428
25356W        W45636  10.608   4.433  11.944  0.0976 -0.0410  0.0471
25357W        W45637  14.696   8.578   9.522  0.1371  0.1899 -0.3104
25358W        W45638   8.363   8.187  10.543  0.3198 -0.0540 -0.0773
25359W        W45639  19.263   4.352  13.077  0.0131 -0.1071  0.0031
25360W        W45640   7.791   1.054   2.789 -0.1304 -0.1019  0.2868
25361W        W45641   2.610   9.764   1.257 -0.1216 -0.0334 -0.1076
25362W        W45642  14.331  16.171  11.115 -0.0656 -0.0015  0.0544
25363W        W45643  16.468   7.682   3.589 -0.1254  0.1089 -0.0975
25364W        W45644   3.086   6.685   3.195 -0.0496  0.0235 -0.1041
25365W        W45645   2.113   5.092  12.091  0.1370 -0.4302  0.3721
25366W        W45646   0.319   8.520   0.103 -0.1494 -0.0157  0.1433
25367W        W45647   2.436  13.494   2.552  0.0072  0.0824 -0.3569
25368W        W45648  13.726  16.465   3.238  0.1030 -0.2251 -0.2187
25369W        W45649   7.629  11.265   3.032  0.0671  0.1200 -0.1412
25370W        W45650   8.857   0.226   2.520 -0.1797  0.2461 -0.1260
25371W        W45651  16.394   8.940   1.531 -0.0436 -0.0415 -0.1359
25372W        W45652  16.618  14.997  12.877 -0.0752 -0.1721 -0.0242
25373W        W45653   6.304   8.635  11.360  0.1867 -0.0274  0.1565
25374W        W45654   1.444  10.638   1.570 -0.1563  0.1527  0.2458
25375W        W45655   5.113  14.725   1.863  0.2251  0.1182 -0.0846
25376W        W45656   8.573   2.879  10.501  0.0990  0.1571  0.1751
25377W        W45657   9.848  17.398   1.170 -0.4856 -0.0952  0.1358
25378W        W45658  10.036   3.701  13.437 -0.2088  0.2639  0.0257
25379W        W45659   1.943  10.568  11.788 -0.1218 -0.0782 -0.0659
25380W        W45660   5.775  15.963   3.741 -0.1705 -0.0484 -0.0209
25381W        W45661   1.551   6.472   2.615 -0.0529 -0.1940 -0.0703
25382W        W45662   7.412  14.321  10.628 -0.2980  0.3369  0.1339
25383W        W45663   1.655  10.202  11.212 -0.0255  0.1971  0.1994
25384W        W45664   6.078   3.060  11.074 -0.1880 -0.2236 -0.1458
25385W        W45665  10.605  12.322   0.388  0.0627 -0.1027 -0.1690
25386W        W45666  13.513  10.181   0.958  0.2296 -0.1776  0.1680
25387W        W45667   9.360   1.158   3.215  0.1244  0.1672  0.0058
25388W        W45668  17.609  12.148   0.966  0.2569  0.0379  0.2391
25389W        W45669   3.257   8.116   1.707 -0.0094  0.0410  0.0714
25390W        W45670   4.843  17.126   3.932  0.2558 -0.1137 -0.2880
25391W        W45671   2.550   6.284   0.144 -0.0238  0.0188 -0.0043
25392W        W45672  12.282   6.475   2.031  0.0873  0.1835 -0.2442
25393W        W45673  10.168   0.751   0.976  0.1606 -0.1793 -0.0005
25394W        W45674   4.710  17.164   1.584 -0.1320 -0.0665 -0.2270
25395W        W45675   3.759   4.247  13.224  0.0095  0.2424  0.0963
25396W        W45676  17.585  13.686  12.930 -0.0901  0.0517 -0.1207
25397W        W45677  17.676  15.623  12.104 -0.0544 -0.2134  0.2528
25398W        W45678  15.421   1.571   2.652  0.0985 -0.1815 -0.2349
25399W        W45679  19.555  19.450  13.169 -0.0137 -0.1678 -0.1390
25400W        W45680   2.642  11.959   4.828  0.1855 -0.2836 -0.3077
25401W        W45681   9.140  15.462   0.356  0.2036  0.0024 -0.0710
25402W        W45682  19.709  17.673   2.757  0.0404 -0.0822 -0.1438
25403W        W45683   7.236  15.409   0.814 -0.1839 -0.0448  0.3440
25404W        W45684  11.950   4.417   4.591 -0.0526  0.2236 -0.2615
25405W        W45685   0.460  18.162  10.757 -0.0826 -0.0310  0.0277
25406W        W45686  11.083   2.631   3.563  0.1008  0.1035  0.1481
25407W        W45687   5.812  17.126   1.552 -0.0363 -0.2223  0.0675
25408W        W45688   1.647   7.199  11.004 -0.1677 -0.0541 -0.0074
25409W        W45689   0.539  14.849  11.668 -0.2183 -0.0741 -0.4507
25410W        W45690  13.309   0.748   2.997 -0.2104 -0.0778 -0.2636
25411W        W45691  12.215  12.137   2.397  0.0026 -0.1815  0.3227
25412W        W45692  13.384  11.456   3.027  0.2859 -0.2688  0.0394
25413W        W45693  14.364  19.639  12.666  0.0702  0.0910  0.1073
25414W        W45694   9.072   3.133   3.367 -0.0104 -0.3052 -0.0925
25415W        W45695  12.481  10.525  12.955 -0.1453 -0.0206 -0.1001
25416W        W45696  19.052   8.916   4.294 -0.0449  0.0551 -0.2733
25417W        W45697  10.511  14.689   3.575 -0.0966 -0.2863 -0.3040
25418W        W45698  19.174   7.514   9.974  0.1598 -0.0955 -0.1802
25419W        W45699   3.746   8.998   2.942  0.2307  0.0208  0.1885
25420W        W45700  14.515  15.030   3.300  0.1750  0.4271 -0.0468
25421W        W45701   1.718  11.244   1.442  0.0679  0.2979 -0.0408
25422W        W45702   6.366  10.817  13.600 -0.1613  0.3529 -0.2469
25423W        W45703   5.561  13.766  10.779 -0.0185  0.1393  0.1488
25424W        W45704   6.263   1.752  10.631  0.0246  0.2814 -0.0057
25425W        W45705   8.899   5.265   3.860 -0.1365 -0.0047  0.3034
25426W        W45706  18.688   6.093  10.194  0.3120 -0.0303 -0.0884
25427W        W45707  18.573   9.049   0.253  0.1232  0.2697 -0.0949
25428W        W45708   8.988   9.958   2.211 -0.0007  0.2754  0.0729
25429W        W45709  13.480   0.112   9.803 -0.4064  0.0895 -0.0634
25430W        W45710   7.108   6.380   1.049 -0.1903  0.2535  0.0800
25431W        W45711  11.868  13.996   1.664 -0.1246 -0.2328  0.2253
25432W        W45712  17.695   2.245   2.282  0.1475  0.1061 -0.1206
25433W        W45713   2.479  11.305   1.098 -0.2131 -0.2407 -0.0728
25434W        W45714  15.468  13.894   0.501  0.0529  0.1053 -0.2354
25435W        W45715   9.245   0.815  13.532  0.4293 -0.0735  0.0020
25436W        W45716  11.260  10.574  11.006  0.2756 -0.0892 -0.2475
25437W        W45717   4.991   4.467  12.302 -0.1596 -0.0045  0.1378
25438W        W45718  16.094  13.872  12.420  0.0504  0.1953  0.1586
25439W        W45719  10.110   4.408  11.138 -0.0059  0.1249 -0.1368
25440W        W45720   1.013  18.616   1.277  0.1799  0.0666 -0.0897
25441W        W45721   3.182  13.834  12.769 -0.0891 -0.0873  0.1508
25442W        W45722  17.061  18.917   0.763  0.0503  0.1394  0.1618
25443W        W45723   7.861  18.462  12.911 -0.0738 -0.1929  0.0609
25444W        W45724   8.534  15.139   0.489  0.0008  0.0256  0.1706
25445W        W45725   4.014   9.922   4.321 -0.1061 -0.0562  0.1036
25446W        W45726   5.147   4.776   2.007  0.3312 -0.0683  0.2522
25447W        W45727  19.765  18.804   3.585 -0.2886  0.1901  0.0116
25448W        W45728   9.265   2.096  10.285 -0.0865 -0.0316 -0.0218
25449W        W45729  15.171   2.088  10.610 -0.4470 -0.1697 -0.0404
25450W        W45730   2.508   0.707   1.151  0.1522  0.0691  0.0408
25451W        W45731  17.506   0.285   0.834  0.0370  0.0028  0.1263
25452W        W45732   2.361   2.590  12.939  0.0658  0.1566  0.1267
25453W        W45733   0.305  14.859   1.885 -0.2555 -0.0634  0.1022
25454W        W45734  14.825  14.031  10.522  0.0792 -0.2372  0.2473
25455W        W45735   0.386   8.687  10.152 -0.0013 -0.6226 -0.0464
25456W        W45736  18.912  17.095  12.513  0.0604  0.2660 -0.0538
25457W        W45737  12.712  19.029   9.933  0.1393 -0.0588 -0.2145
25458W        W45738  13.688   2.028   0.385 -0.0663  0.3005  0.0452
25459W        W45739   2.538   3.835   1.076 -0.1821 -0.1442  0.1377
25460W        W45740   4.549   5.490   1.736 -0.0437  0.0479  0.1229
25461W        W45741  14.585  14.766   0.739  0.0707  0.0693 -0.1330
25462W        W45742  10.267   5.634   0.378  0.1811  0.0463 -0.1502
25463W        W45743   9.299  11.448  10.643 -0.1560  0.3376  0.3139
25464W        W45744   1.372   7.484  11.831  0.2309  0.0663 -0.0329
25465W        W45745   0.132  19.340  12.487 -0.1711  0.0127  0.2367
25466W        W45746   1.375   7.261   1.869  0.0265 -0.1707 -0.0602
25467W        W45747   1.559   5.468  10.829  0.1038  0.0086 -0.2320
25468W        W45748  14.123   2.584  10.337  0.1152 -0.1811  0.0039
25469W        W45749   2.981   6.156   2.234  0.0176 -0.0750 -0.1142
25470W        W45750   1.444   7.041   0.769  0.2366  0.1359 -0.0190
25471W        W45751  11.520   0.165   1.179 -0.1846  0.0281  0.1093
25472W        W45752  11.019  18.644   0.213 -0.4232 -0.3548  0.0427
25473W        W45753   2.751   0.868   3.731  0.2185  0.2468  0.3833
25474W        W45754  12.804  14.552   1.478  0.0917  0.0476 -0.2546
25475W        W45755   5.188  17.652   1.632  0.0443 -0.1797  0.0880
25476W        W45756   9.239  17.117  10.980  0.2154  0.2128 -0.2165
25477W        W45757  15.240   1.500  11.208 -0.0768  0.1700  0.2286
25478W        W45758  17.310   6.854  13.408 -0.0803  0.1883  0.3132
25479W        W45759   1.030   2.707  12.051  0.2128 -0.1887  0.0136
25480W        W45760  13.695   8.723   1.849 -0.0908 -0.0548 -0.3643
25481W        W45761  17.278   5.580  11.715 -0.5391 -0.0106  0.1482
25482W        W45762   5.443  17.691   4.167  0.0935 -0.1077  0.1998
25483W        W45763  12.114   7.453  12.822  0.0697 -0.0530  0.0183
25484W        W45764  16.065  11.272   1.245 -0.0294  0.1405  0.2372
25485W        W45765  15.827   8.286  12.489  0.0623 -0.1787 -0.1035
25486W        W45766   6.490  15.851  13.399  0.3061  0.2268 -0.0763
25487W        W45767   4.566   2.786  10.272  0.0920 -0.1396 -0.0728
25488W        W45768   1.282  15.952  10.491  0.1809  0.1298 -0.0359
25489W        W45769  16.468   8.755   9.484  0.3524  0.0538  0.0688
25490W        W45770   4.023  15.894   0.900  0.1718  0.2709  0.0070
25491W        W45771  19.088   6.569   1.185 -0.0261  0.4079  0.2394
25492W        W45772  14.152   1.667  10.257  0.1281  0.0103 -0.1009
25493W        W45773  10.936  10.938  11.866 -0.3139  0.0087  0.2575
25494W        W45774   0.615   4.488   0.411 -0.1202  0.3219  0.0681
25495W        W45775   9.984   8.408   4.446  0.0409 -0.2063 -0.2139
25496W        W45776   3.494  14.998   9.310 -0.0568  0.0965 -0.1283
25497W        W45777   7.080  14.383  11.733  0.1004  0.0833  0.1359
25498W        W45778  11.612   0.158   4.288  0.1814 -0.3315 -0.2129
25499W        W45779  16.417   9.280  12.501  0.0933  0.0405 -0.3284
25500W        W45780  19.760  18.361   3.959 -0.0059  0.1271  0.2043
25501W        W45781   8.115   0.398  10.544 -0.1673 -0.0889  0.1842
25502W        W45782   1.764   1.876  11.397 -0.2295 -0.0418 -0.1602
25503W        W45783  11.047  14.712  11.945  0.2029  0.0874  0.2207
25504W        W45784   9.783  10.899   2.661 -0.1455 -0.3260  0.0386
25505W        W45785   5.444  16.911   4.663  0.0401 -0.2466  0.1522
25506W        W45786   9.978  13.533   3.085 -0.0837 -0.1007 -0.1010
25507W        W45787  18.230  12.989  10.899  0.1372 -0.4560 -0.2694
25508W        W45788   8.070   4.748  13.395  0.1795 -0.3313  0.0710
25509W        W45789   0.986  16.246  13.839 -0.4866 -0.3697  0.0284
25510W        W45790   9.341  10.602   1.370  0.2651 -0.1958 -0.1037
25511W        W45791  14.288  11.565   0.309 -0.0969  0.0610  0.0695
25512W        W45792  12.674   8.249   1.162 -0.0776 -0.0350  0.1510
25513W        W45793  13.547  18.228   9.971 -0.0073  0.1366  0.1667
25514W        W45794  12.251   8.919   9.526  0.2566  0.0595  0.0212
25515W        W45795  11.587   3.393   1.253 -0.2436 -0.0186  0.2637
25516W        W45796   7.041  12.025   0.196  0.1024  0.0801  0.0099
25517W        W45797   6.016   3.358  12.081 -0.0285 -0.1477  0.2316
25518W        W45798  19.834   1.931  10.090 -0.0243  0.0951 -0.1460
25519W        W45799  16.681  10.385  10.246  0.3063 -0.1773  0.0141
25520W        W45800   8.936  15.449  11.663  0.1285  0.3529 -0.0429
25521W        W45801  11.489  10.351  10.312 -0.1477 -0.4074 -0.2104
25522W        W45802  15.564   1.322  13.417  0.0317  0.0260  0.0473
25523W        W45803  13.194  13.598  10.431  0.0653  0.5258  0.0696
25524W        W45804  18.510   6.170  13.160 -0.0636  0.1497 -0.2708
25525W        W45805  14.282   9.366  13.193 -0.1449 -0.1586  0.0675
25526W        W45806  12.564  15.161  10.536 -0.3571  0.2358 -0.2166
25527W        W45807   5.914  19.700  11.719 -0.0520  0.3606 -0.2360
25528W        W45808  11.115  16.917   2.350 -0.1755  0.1689 -0.0770
25529W        W45809  10.448  18.152   2.160  0.2080 -0.1274 -0.3035
25530W        W45810   7.302  13.365  12.151 -0.1703  0.0631  0.1459
25531W        W45811  10.020   6.836  12.644 -0.0856  0.2349  0.0802
25532W        W45812  10.209  14.701   2.241 -0.0949  0.2617  0.5488
25533W        W45813   2.861   8.072   1.968  0.3939  0.1460 -0.0860
25534W        W45814   2.120  18.449   4.274 -0.1092  0.1009 -0.2500
25535W        W45815   4.151   1.924   3.027  0.1883  0.2438 -0.1082
25536W        W45816  16.686   7.304  11.036 -0.2644 -0.2828  0.2812
25537W        W45817  18.226   5.279   2.543 -0.2296  0.2188 -0.0583
25538W        W45818   2.270   4.414  13.323  0.1809 -0.1195 -0.0812
25539W        W45819   3.057  19.854  10.092 -0.0171  0.1616  0.0539
25540W        W45820  14.454   3.000   1.145 -0.0736 -0.1879  0.1745
25541W        W45821   9.016   8.009  11.479  0.2132 -0.1553 -0.0902
25542W        W45822   9.074   6.276   2.937 -0.2472 -0.0078  0.0229
25543W        W45823   5.075  11.178  13.738 -0.0847  0.2660  0.0376
25544W        W45824  12.147   3.046   1.944 -0.1687 -0.0704 -0.1063
25545W        W45825   2.856  15.941  10.238  0.1890  0.0006 -0.1038
25546W        W45826  11.449  15.824  11.952 -0.1164 -0.3775  0.3044
25547W        W45827  10.037   2.561  12.613 -0.1833 -0.8406 -0.0708
25548W        W45828  12.142  10.776   2.809  0.0158  0.0873 -0.3354
25549W        W45829  10.977  16.471  11.449  0.0935  0.0715 -0.1215
25550W        W45830   1.764   2.346  10.412  0.0665 -0.2313 -0.0855
25551W        W45831  16.714  19.526  13.028 -0.0099  0.1603  0.3488
25552W        W45832  10.564   5.526  12.954  0.1190 -0.0617 -0.2911
25553W        W45833   6.352   5.721  12.269  0.0757  0.0683 -0.1705
25554W        W45834  12.256   7.848   0.117 -0.0147 -0.1869  0.0901
25555W        W45835   7.889   3.375  10.222  0.3449 -0.1635 -0.1549
25556W        W45836  15.892  12.730   3.250  0.0347 -0.4889 -0.2073
25557W        W45837  17.009  10.170   1.499  0.2323 -0.0815 -0.2249
25558W        W45838   7.457   5.152   3.427 -0.0591  0.1473 -0.1266
25559W        W45839   8.897  16.498   2.294  0.0002  0.1610 -0.2324
25560W        W45840  13.643   0.567  10.414 -0.1596  0.0179  0.2655
25561W        W45841  17.063   1.674  12.649  0.0119 -0.0597 -0.2214
25562W        W45842  14.908  14.030  11.097 -0.6654  0.1165 -0.1977
25563W        W45843   3.535   5.378   1.044  0.1930  0.0171 -0.1682
25564W        W45844   2.671   2.429   0.154  0.0312 -0.5063  0.2760
25565W        W45845  16.980  13.519   1.134  0.0836 -0.2039  0.2378
25566W        W45846  10.557   8.390  10.225  0.0223  0.0521  0.1057
25567W        W45847   6.667  11.394   0.938 -0.2418  0.0653 -0.0453
25568W        W45848   5.388   6.085   0.105  0.1053  0.0051 -0.0775
25569W        W45849  10.208   2.316  11.444  0.3082  0.2411  0.1597
25570W        W45850   6.728  14.249   4.365 -0.3957 -0.3700  0.3216
25571W        W45851  17.978   1.194  12.611 -0.0454 -0.1002 -0.0980
25572W        W45852  15.620   6.417  12.342  0.0250  0.3018  0.2426
25573W        W45853   9.997  16.566   3.468  0.1634  0.3113  0.1543
25574W        W45854   0.727   3.333   0.286 -0.0897 -0.0473  0.2063
25575W        W45855  14.960  14.444   2.595 -0.0799 -0.0052  0.1161
25576W        W45856  18.750  12.025   2.502 -0.0662  0.2663  0.1023
25577W        W45857  12.699   7.253   3.683 -0.1655  0.0116 -0.0917
25578W        W45858  19.832   6.885   3.518 -0.2627 -0.0065  0.2994
25579W        W45859  17.680   2.046   1.468 -0.2062 -0.0057  0.3501
25580W        W45860   7.978  14.124   0.321  0.1975  0.0283 -0.1506
25581W        W45861  15.446  18.972   1.354 -0.1081  0.1769  0.1214
25582W        W45862  19.634   2.901  10.995  0.1356  0.1157  0.1687
25583W        W45863   5.589   3.859   2.455  0.2347 -0.0897 -0.1437
25584W        W45864  18.944  13.483  12.469 -0.1419 -0.1803 -0.0481
25585W        W45865  16.005  12.517  11.053  0.0789  0.0531  0.1072
25586W        W45866   3.648   2.528   3.208  0.2692 -0.0142  0.1101
25587W        W45867   0.692  16.938   2.400  0.0263  0.3130 -0.0542
25588W        W45868   2.526  12.176  13.817 -0.0805 -0.0829  0.2817
25589W        W45869   3.763   5.068  13.660  0.0914  0.1161  0.0702
25590W        W45870  13.141  12.041  12.284  0.1005  0.0637 -0.1762
25591W        W45871  11.633  13.504   9.922 -0.0917  0.1196 -0.1342
25592W        W45872  10.019  13.583  12.978  0.0754 -0.0716  0.0502
25593W        W45873   7.014  15.236  10.708 -0.0324  0.0662  0.2665
25594W        W45874   3.408   5.055  13.353  0.1437 -0.0559  0.1175
25595W        W45875  18.600  14.541   2.693  0.2911 -0.0698 -0.2476
25596W        W45876   3.621  14.220   2.455  0.3329  0.0890 -0.3996
25597W        W45877   6.096  16.361  12.092  0.1678  0.2053  0.0721
25598W        W45878   6.404  15.010  12.013  0.5424  0.1918  0.1827
25599W        W45879  10.628   8.038   0.417 -0.1475  0.0497  0.3474
25600W        W45880  15.559   5.739  13.593 -0.1937 -0.1056 -0.1786
25601W        W45881   3.317   0.737   1.811 -0.4270  0.1829  0.1215
25602W        W45882  15.547  19.333   0.704  0.2289 -0.2433  0.2362
25603W        W45883  16.634   8.429   2.764  0.1833 -0.3926 -0.1746
25604W        W45884  15.441  14.856  13.819 -0.1638  0.1149 -0.0815
25605W        W45885   5.328  14.344   4.601  0.0284  0.1987  0.0228
25606W        W45886  18.097  12.360   1.344  0.0320 -0.0211 -0.0042
25607W        W45887   6.976   3.436   1.048 -0.3574 -0.1654  0.1806
25608W        W45888   5.719   5.356   2.483  0.1078  0.1322  0.2176
25609W        W45889   3.520   2.431   1.645 -0.1952 -0.1770  0.3247
25610W        W45890   7.868  13.707  13.839  0.1115 -0.0198 -0.1750
25611W        W45891  19.330   7.133  12.275 -0.1400  0.2466  0.2204
25612W        W45892   5.489  14.981   1.537  0.0134  0.0671  0.1886
25613W        W45893  17.988  19.510   2.927 -0.2246  0.0515  0.0653
25614W        W45894   6.672  13.050   3.982 -0.0106  0.1376  0.0248
25615W        W45895   7.968   7.066   3.713 -0.2761  0.1277  0.3212
25616W        W45896   8.489   4.408   2.319  0.1663 -0.2534  0.0602
25617W        W45897  13.661   0.823   2.052  0.0778  0.2230  0.0788
25618W        W45898  15.961  12.528  10.086 -0.3409 -0.0710  0.0487
25619W        W45899   7.439  17.640  12.899  0.1452  0.0601 -0.1645
25620W        W45900  18.641  14.270   1.742 -0.0222  0.0380 -0.2325
25621W        W45901   5.343   7.281   3.258 -0.0767 -0.2908 -0.0943
25622W        W45902   1.552  16.746   0.931 -0.2007 -0.0606 -0.0777
25623W        W45903  18.662  12.663  11.813 -0.1812  0.1141  0.4509
25624W        W45904   1.633  14.092   3.525  0.1539  0.3343  0.1203
25625W        W45905  18.973  18.130   9.574  0.2445  0.0860  0.2392
25626W        W45906  18.166   3.218  13.705 -0.5603  0.4262  0.2792
25627W        W45907   4.403  12.381  13.745 -0.4831 -0.0065 -0.0106
25628W        W45908   7.815   4.561   0.866 -0.3111  0.1788 -0.0397
25629W        W45909   4.783   6.641  13.506  0.1432  0.0047  0.0985
25630W        W45910  19.105  16.879  11.649 -0.0130  0.2269  0.2398
25631W        W45911   7.783  13.252   3.391  0.2136  0.1114  0.0993
25632W        W45912   2.520   8.787   3.509 -0.0889  0.3714  0.2932
25633W        W45913  18.372  11.442  11.727  0.0328 -0.1057 -0.0581
25634W        W45914   9.477   4.224  11.624 -0.3152  0.1226 -0.2300
25635W        W45915  11.197   9.632  10.385 -0.2555 -0.1137 -0.0741
25636W        W45916  17.028   4.745  13.516 -0.0235 -0.0626 -0.4348
25637W        W45917  11.656  13.328  13.792  0.0688  0.1008 -0.2197
25638W        W45918  15.129  14.028  12.771 -0.0692  0.0023  0.0216
25639W        W45919   6.555   1.332   0.879 -0.2295 -0.0997 -0.4951
25640W        W45920   7.340   0.801   1.105  0.1192 -0.0670 -0.2434
25641W        W45921   0.632  16.552  11.509 -0.3078  0.2612  0.3552
25642W        W45922   7.620  18.611   0.792  0.0292  0.1867 -0.1401
25643W        W45923   0.450  18.996   4.637 -0.0577  0.0690  0.1354
25644W        W45924   0.080  17.608   0.487  0.2304 -0.0660  0.0401
25645W        W45925  15.771  15.154   0.657 -0.3066  0.0112 -0.1998
25646W        W45926   9.951  17.110   1.609 -0.0280 -0.3966 -0.1266
25647W        W45927  12.611  11.459  10.673 -0.1737  0.0786 -0.2766
25648W        W45928  16.792  10.303  12.481  0.4251  0.1620 -0.1574
25649W        W45929   1.537   0.813   1.216  0.1574 -0.0896 -0.1428
25650W        W45930   4.901  16.202   3.605 -0.0253  0.0757 -0.1428
25651W        W45931  13.398   3.184   1.218  0.0728 -0.2341  0.3001
25652W        W45932   7.842   7.946   3.226 -0.0478  0.0117  0.0612
25653W        W45933  17.221   0.936  12.801  0.0207  0.2253  0.1284
25654W        W45934   4.259   9.700   1.570 -0.2124 -0.0592  0.0164
25655W        W45935  12.886  14.608  12.567 -0.1994  0.0908 -0.1812
25656W        W45936  19.847   9.754   2.232  0.0255 -0.1603 -0.0879
25657W        W45937  19.535  11.988   0.559  0.3923  0.4073 -0.2577
25658W        W45938  15.796   0.175  10.796 -0.3107 -0.2695 -0.0654
25659W        W45939  14.236  17.303  13.579 -0.0953 -0.0548  0.0375
25660W        W45940  15.753   7.644   2.058 -0.1278 -0.0520  0.2676
25661W        W45941   1.695  18.882  10.954 -0.1415  0.0758  0.3156
25662W        W45942  14.559   2.312  10.306  0.1297 -0.0122  0.0643
25663W        W45943  16.448  13.852  13.414  0.0650  0.3164  0.1554
25664W        W45944   5.070  16.077  12.482 -0.2307  0.5898 -0.2715
25665W        W45945  15.445   8.173  13.003 -0.2127 -0.2423 -0.1019
25666W        W45946   8.654  16.587   0.418  0.1488 -0.1905  0.0623
25667W        W45947  12.708  16.342   0.901 -0.1258 -0.1879  0.1708
25668W        W45948  17.544   3.815   4.152 -0.0118  0.3259  0.0865
25669W        W45949  19.691  19.066  12.786 -0.0721 -0.0405 -0.3420
25670W        W45950  12.055   3.755   1.023  0.0685 -0.0080 -0.0445
25671W        W45951   0.370   3.426  12.084  0.0130  0.0116 -0.0443
25672W        W45952  14.671   3.434   0.931 -0.1017 -0.2775  0.2822
25673W        W45953   5.977  10.866   3.317 -0.1660  0.3983 -0.1768
25674W        W45954  13.919   2.357   0.671 -0.1595 -0.4275 -0.3555
25675W        W45955   6.193  15.783   5.265 -0.1567 -0.0651  0.0654
25676W        W45956   2.701  14.501  13.197 -0.1125 -0.1432 -0.0359
25677W        W45957   6.322   8.216  13.846  0.1931 -0.0726 -0.2581
25678W        W45958  14.401  18.595  10.534  0.2440  0.1357 -0.1505
25679W        W45959   0.186   8.265  11.452  0.0933 -0.2472 -0.1596
25680W        W45960   2.603  13.846   0.189 -0.2368 -0.2983  0.0368
25681W        W45961  18.943  11.471   9.967  0.0289  0.2440  0.0393
25682W        W45962   0.896  18.706  12.529 -0.4252  0.2670  0.1544
25683W        W45963   8.438  10.414   0.691  0.2260  0.0790 -0.0486
25684W        W45964  10.754  14.360   0.158  0.1137  0.4259 -0.1707
25685W        W45965  18.586  15.578   9.905 -0.2575 -0.0187  0.3500
25686W        W45966  13.942   6.470  11.959 -0.3166 -0.1108 -0.0331
25687W        W45967   7.567   1.878   3.616  0.2268 -0.2564 -0.2736
25688W        W45968  13.966  18.210   2.448 -0.0580 -0.0641  0.0291
25689W        W45969  19.306  14.774  12.952  0.1701  0.3375 -0.0357
25690W        W45970   6.110  15.815   2.898  0.3497  0.1957  0.0757
25691W        W45971  17.757  15.501  10.124 -0.3082  0.1820  0.0599
25692W        W45972   9.163   7.705   0.792  0.0390  0.2140  0.1048
25693W        W45973  12.852   0.550   4.289 -0.3021  0.2861  0.3356
25694W        W45974  13.380   3.137  11.427 -0.2319 -0.0020 -0.2228
25695W        W45975   7.245   1.666  13.231 -0.0664  0.0411 -0.1139
25696W        W45976   2.791   3.177  12.725 -0.1248 -0.0639  0.0520
25697W        W45977   0.868  16.510   0.925 -0.0361  0.0030 -0.1727
25698W        W45978  16.388  16.628   2.061  0.2112 -0.1457  0.0397
25699W        W45979   5.325   8.215   0.632  0.1713 -0.2357 -0.1684
25700W        W45980   2.789  10.936  12.812  0.2093  0.1321  0.1386
25701W        W45981  17.815   3.775  13.274 -0.1440 -0.0320  0.1918
25702W        W45982  13.573   9.683   1.923 -0.0507  0.0253 -0.1209
25703W        W45983   0.588  12.281  10.009  0.0499 -0.1617  0.2531
25704W        W45984  16.705   1.647   1.923  0.0716  0.0099  0.2607
25705W        W45985  10.513   6.072  10.317  0.2000  0.0358  0.1754
25706W        W45986  15.516  16.971  12.588  0.0418 -0.0753 -0.1400
25707W        W45987  10.602   4.692  11.542  0.2781  0.0889 -0.0431
25708W        W45988  15.371  13.548  10.771 -0.0121 -0.1178  0.1161
25709W        W45989  13.904  11.115   1.119 -0.0540  0.3543  0.0501
25710W        W45990   5.103   7.207   1.730  0.2497  0.0260  0.1403
25711W        W45991   5.893  18.968   1.269 -0.2481 -0.0524 -0.0596
25712W        W45992   8.060   8.745   2.500  0.0884  0.2016 -0.0732
25713W        W45993  10.227   7.516   1.782  0.1402 -0.0449  0.1410
25714W        W45994   9.143  19.773  12.501 -0.0588  0.2383  0.1823
25715W        W45995   9.310  12.140   0.023  0.0366 -0.0636 -0.1087
25716W        W45996  13.393  13.322  12.293 -0.1991  0.2903 -0.0066
25717W        W45997   3.241  12.336   1.911  0.2981  0.0714  0.1850
25718W        W45998   8.745  11.331   0.716 -0.1168  0.0269 -0.2067
25719W        W45999   1.294  19.081  12.331  0.3485 -0.3682 -0.0706
25720W        W46000  15.693  10.559   2.938  0.1664  0.1461 -0.0525
25721W        W46001  11.616   3.896   2.254 -0.2377 -0.0142  0.5366
25722W        W46002   2.193   6.681   2.114 -0.4023  0.0519  0.0002
25723W        W46003   6.278  16.300   2.750  0.1616  0.0404  0.3315
25724W        W46004   2.938  10.454  13.715  0.3339 -0.1517  0.1024
25725W        W46005   6.994   4.741  13.431 -0.3193 -0.1254 -0.1436
25726W        W46006  10.945  16.148  11.811 -0.1534  0.0789 -0.2716
25727W        W46007   4.049   9.734  11.922 -0.1831  0.1475 -0.0245
25728W        W46008   2.307  10.290   2.602  0.1553  0.0524  0.3334
25729W        W46009   5.748   8.423   3.525  0.2275  0.1881 -0.0719
25730W        W46010   6.092  10.900   2.569  0.0452  0.0360  0.0946
25731W        W46011   7.632   7.306  13.410 -0.0201  0.0081  0.2004
25732W        W46012  10.554   0.873   1.363  0.1480 -0.1827 -0.0888
25733W        W46013   0.770   5.713   2.086 -0.1547  0.2033  0.0006
25734W        W46014  17.576   1.879   0.060 -0.2765 -0.0024 -0.0158
25735W        W46015   1.718  14.623   2.769  0.1347  0.1635 -0.3346
25736W        W46016  13.835  14.323   2.765  0.1654 -0.0520  0.2812
25737W        W46017   9.811   6.401   1.286 -0.0100 -0.0989  0.2790
25738W        W46018   5.421  12.024  13.342 -0.0186 -0.1686 -0.0493
25739W        W46019  13.586  16.660  13.083 -0.2749 -0.1132 -0.2111
25740W        W46020  17.132  18.800   9.832  0.1093  0.1921  0.0128
25741W        W46021  18.447  16.909   2.670 -0.2655  0.2710 -0.0584
25742W        W46022   9.275   2.538   0.751 -0.0186  0.2918  0.0849
25743W        W46023   4.936   5.827   2.798  0.1945 -0.0334 -0.1662
25744W        W46024  12.502   7.508  11.903  0.4130 -0.2048 -0.1578
25745W        W46025   7.839   5.966  12.954 -0.2811 -0.4004 -0.1530
25746W        W46026   5.858  14.250   2.305  0.2574 -0.1609 -0.2306
25747W        W46027   8.671  15.603  13.254  0.1162  0.3601 -0.1037
25748W        W46028   5.524   2.953   1.937 -0.3063 -0.0645 -0.1287
25749W        W46029   9.123   6.746  11.201  0.1380  0.0104  0.2531
25750W        W46030   3.318  14.872  10.952  0.2431 -0.0181 -0.0810
25751W        W46031  11.316   4.628   0.842  0.1821  0.1834  0.0720
25752W        W46032   7.777   8.129  11.433 -0.1920 -0.0812 -0.0184
25753W        W46033  11.556   1.927  11.941  0.0735 -0.0301 -0.0116
25754W        W46034   7.877  15.385  13.183  0.0274 -0.0955 -0.0865
25755W        W46035  15.229   1.032   2.844  0.3263  0.1557  0.0066
25756W        W46036  17.997  11.731   1.917 -0.3845  0.2910  0.1328
25757W        W46037  18.804   9.578  11.486  0.1314  0.1422  0.0371
25758W        W46038  18.617  10.328   9.520 -0.0496 -0.4262  0.0948
25759W        W46039  13.756   5.493  13.093 -0.0304  0.0227 -0.1975
25760W        W46040   1.863   9.746  12.072  0.1694  0.3830 -0.2378
25761W        W46041   4.782   9.385  11.899  0.1691  0.1397  0.1975
25762W        W46042  12.687  10.066   3.501 -0.1658 -0.2202  0.2332
25763W        W46043   8.295   1.980  13.629 -0.0270  0.3198  0.0474
25764W        W46044  17.967  11.102   1.027  0.1384 -0.1627 -0.1234
25765W        W46045   6.994   3.999  12.318 -0.1929  0.2065 -0.2341
25766W        W46046  14.341  16.414   3.293 -0.0156  0.0381  0.1389
25767W        W46047   4.382  17.365  13.390 -0.0008  0.0196  0.2563
25768W        W46048  12.250  17.650   0.234 -0.2028 -0.0504 -0.1832
25769W        W46049   1.813   8.134  12.904 -0.0496  0.0400 -0.1229
25770W        W46050   9.002   4.343   0.313 -0.0341  0.0564  0.0222
25771W        W46051  11.710  14.537   2.992  0.0373 -0.0831 -0.1490
25772W        W46052  13.720  17.848   3.630 -0.0618 -0.0246  0.0044
25773W        W46053   0.855  10.693  10.979  0.0440  0.1416 -0.2755
25774W        W46054   0.770   4.691   3.121 -0.3883  0.0744 -0.1707
25775W        W46055  18.660  15.031   2.637 -0.1144  0.1815 -0.1412
25776W        W46056  11.774   6.243  10.085 -0.2959 -0.0036 -0.0143
25777W        W46057   0.811  11.957  12.878  0.3359 -0.0007  0.2141
25778W        W46058  14.336  11.883  12.916  0.0672 -0.1518  0.2342
25779W        W46059  16.344   2.430   3.717  0.1983 -0.0206  0.0535
25780W        W46060   8.263   2.966   3.227  0.1429  0.2972 -0.1453
25781W        W46061   7.041   5.650  13.460 -0.1318 -0.0443 -0.2338
25782W        W46062   7.272   5.671   1.646 -0.1859  0.3976 -0.0122
25783W        W46063  18.666   6.709  12.629  0.0075 -0.1418 -0.1953
25784W        W46064   8.029   8.013  13.504 -0.3315 -0.1288  0.1063
25785W        W46065  17.373  12.476  11.161 -0.2006  0.1513  0.3466
25786W        W46066  13.176  13.694   2.094 -0.1411 -0.4246 -0.1711
25787W        W46067   0.237  10.907  11.615  0.0636 -0.1039 -0.2830
25788W        W46068   7.934  15.882  10.913 -0.1215  0.1069 -0.1659
25789W        W46069   1.860   3.028   0.826  0.1349 -0.1333  0.1373
25790W        W46070   5.523  11.059   0.378 -0.0277  0.0856 -0.2705
25791W        W46071  13.605  19.007   1.325 -0.0771  0.0036 -0.0344
25792W        W46072  19.679   1.300  12.579 -0.0696 -0.2146  0.0560
25793W        W46073   0.683  12.578   3.538 -0.3198 -0.0243 -0.0084
25794W        W46074   5.784  19.796   1.943 -0.1478 -0.2129  0.0166
25795W        W46075  19.681  14.220   0.877 -0.1352 -0.1672  0.0263
25796W        W46076   1.937   7.271   9.959 -0.0931  0.0312 -0.2514
25797W        W46077   3.569   8.313   4.287 -0.0956  0.2654  0.1654
25798W        W46078  13.986  13.223  13.061  0.0342 -0.1509  0.0810
25799W        W46079  12.458   4.245   9.176 -0.3512  0.1697 -0.0192
25800W        W46080  16.746   3.309   2.492 -0.1460 -0.1527  0.1763
25801W        W46081   9.041  12.227   0.512 -0.2582 -0.1880 -0.2500
25802W        W46082   4.939  11.550  12.261  0.0464 -0.0342 -0.0056
25803W        W46083  11.036   5.358   3.497  0.0497 -0.0954 -0.0263
25804W        W46084   9.138   4.785  10.359  0.1902  0.0941 -0.3091
25805W        W46085   9.479  11.665  13.781 -0.0256  0.0256  0.1542
25806W        W46086  19.412  12.320   0.901  0.0950 -0.0777  0.0768
25807W        W46087   4.147  16.934  13.673  0.1893  0.0723  0.1440
25808W        W46088  18.056   2.677   2.274 -0.1780  0.1538  0.0106
25809W        W46089  10.435  16.902  12.871  0.3748  0.1929  0.1136
25810W        W46090  12.570  14.865   9.507 -0.0195 -0.0209 -0.0627
25811W        W46091  13.390   2.036  12.666 -0.0049 -0.1639 -0.1369
25812W        W46092  18.581  11.059   3.167  0.0588 -0.1772  0.0181
25813W        W46093  13.598  14.703   2.593 -0.0818 -0.0844  0.2084
25814W        W46094  17.771  15.207  13.710 -0.1866 -0.0638 -0.1933
25815W        W46095   9.294   5.908  12.639 -0.2204 -0.3705 -0.1302
25816W        W46096   1.992   1.231   3.162  0.0388  0.0318  0.0297
25817W        W46097   0.980  11.427   1.821 -0.0929 -0.1709 -0.0674
25818W        W46098   5.551  11.007   1.737 -0.0133 -0.0732 -0.1745
25819W        W46099  11.472   1.016  10.069 -0.0381  0.0574 -0.1520
25820W        W46100  19.283   8.785   0.056 -0.2758  0.0024  0.4042
25821W        W46101  19.055  16.189  12.234  0.2394 -0.1197  0.4077
25822W        W46102  12.288   8.436  13.208 -0.1136  0.0135 -0.1092
25823W        W46103   0.512  16.025   0.059 -0.3367  0.1651  0.3043
25824W        W46104   2.421  14.400   2.107  0.1382  0.4571 -0.1572
25825W        W46105  18.292   8.858  10.786 -0.1417 -0.1777 -0.1021
25826W        W46106  19.360  10.862  12.672  0.2967 -0.0414 -0.1156
25827W        W46107   8.373  14.291   1.508  0.0659 -0.0904 -0.0887
25828W        W46108  15.415   6.565  13.386  0.0780  0.2046  0.0350
25829W        W46109   0.384   5.567   3.326 -0.1525  0.0825 -0.0645
25830W        W46110  15.953   6.561  11.868 -0.2028 -0.4107 -0.2054
25831W        W46111  19.500   7.089  10.286 -0.0169  0.2213 -0.1380
25832W        W46112  11.509  12.988   1.891 -0.2866 -0.1863 -0.4006
25833W        W46113   6.915  18.026   0.944  0.2233  0.1136 -0.1238
25834W        W46114   7.667  11.714  11.631  0.0948  0.0868  0.1868
25835W        W46115  16.307  17.869   0.213 -0.2004  0.3376 -0.0288
25836W        W46116   4.352   3.191  11.431  0.2780  0.0364 -0.0292
25837W        W46117  11.982   6.308   2.397 -0.2286 -0.0273 -0.4014
25838W        W46118  19.921   5.997   1.967 -0.3324 -0.2229 -0.1350
25839W        W46119  13.439   2.381   3.489  0.1485 -0.2177 -0.0280
25840W        W46120   6.400  17.030  10.501  0.0925  0.0538  0.2442
25841W        W46121  12.239  15.996  12.086  0.1140 -0.1132 -0.0508
25842W        W46122   4.163  13.620   0.278 -0.4346 -0.0551  0.0150
25843W        W46123  12.686   5.545   2.363 -0.6325 -0.0619  0.2550
25844W        W46124  18.580  11.968   9.860  0.0772  0.1657  0.1130
25845W        W46125   8.838  11.528  13.104  0.0367 -0.2140 -0.0670
25846W        W46126   6.704  16.190   3.235 -0.2199 -0.0895  0.0436
25847W        W46127   8.461   0.357  12.451 -0.0361 -0.0275  0.2853
25848W        W46128  11.348  13.593   2.774  0.0124 -0.1153 -0.1152
25849W        W46129   1.158   8.893  10.297  0.2667  0.0903 -0.0004
25850W        W46130   4.169   7.655  12.684  0.2274 -0.3038 -0.0093
25851W        W46131   0.121  12.802   9.840 -0.1393 -0.0865 -0.1245
25852W        W46132   6.380  11.020  13.139 -0.2051  0.0544 -0.1077
25853W        W46133   3.919  16.718  12.996  0.1351 -0.1318  0.0595
25854W        W46134  19.597  14.688  10.700  0.0972  0.2186 -0.2598
25855W        W46135   6.748   8.467   3.175  0.1648 -0.0500  0.1823
25856W        W46136  12.721  11.279   0.057 -0.1083 -0.0352  0.3208
25857W        W46137  18.645  16.363   0.024  0.3109 -0.1569  0.0972
25858W        W46138   0.453  19.307   0.117  0.1258 -0.1654  0.1621
25859W        W46139   8.015   6.235  12.162  0.1349  0.1691 -0.0790
25860W        W46140   8.747  17.050   0.554  0.1983  0.1521 -0.2606
25861W        W46141  18.147   5.779  10.300  0.1648  0.1561 -0.0190
25862W        W46142   0.201  19.571  12.030 -0.0935  0.0817 -0.1031
25863W        W46143  19.339   7.445   0.111 -0.1436 -0.1221  0.2201
25864W        W46144  17.510  12.327   1.443 -0.1776 -0.0154 -0.0242
25865W        W46145   0.399   6.313  10.937  0.4420 -0.0001 -0.0578
25866W        W46146   4.819   6.648   3.901 -0.1058 -0.0040 -0.0890
25867W        W46147  10.122  11.803  11.962  0.0043  0.2965 -0.1481
25868W        W46148  16.136   0.204   0.418 -0.1115  0.0813  0.1718
25869W        W46149   4.368  14.153   2.373 -0.1818 -0.1242 -0.2019
25870W        W46150  13.603   9.969   3.305 -0.1056 -0.2346 -0.3021
25871W        W46151  16.644   7.612  10.130 -0.1656  0.1135 -0.0797
25872W        W46152  18.441  18.790   0.741 -0.6113 -0.1542 -0.1273
25873W        W46153  11.511  14.878   3.326 -0.2995  0.0697  0.1897
25874W        W46154   5.060  15.725  11.084  0.0371  0.2456 -0.1133
25875W        W46155  15.703  12.228  12.526  0.0417 -0.0995  0.0241
25876W        W46156   3.050   1.215   0.549 -0.1395  0.0759 -0.4796
25877W        W46157   6.150   4.184  10.123  0.1074  0.2596  0.2306
25878W        W46158  16.418   6.737   0.021 -0.1205  0.2381 -0.1031
25879W        W46159   8.965   0.037  11.607  0.0641 -0.3836 -0.0089
25880W        W46160   9.403   3.915   3.228 -0.1257  0.0627  0.2674
25881W        W46161   9.392   3.939   1.677 -0.2049  0.1164  0.3790
25882W        W46162  13.024   8.369   9.846 -0.0127 -0.1681 -0.3080
25883W        W46163  14.606   7.766   1.868  0.0000  0.2790 -0.0469
25884W        W46164   8.485  16.584   4.062  0.2109 -0.2436 -0.2282
25885W        W46165   1.221   8.046   9.175 -0.3335 -0.1198 -0.3196
25886W        W46166  14.862  12.629  10.215 -0.5393 -0.0240 -0.3618
25887W        W46167  18.769  12.737   0.074 -0.2368 -0.2282 -0.0645
25888W        W46168   3.648  10.746   3.135  0.2087 -0.0365 -0.5276
25889W        W46169   6.700   9.452  11.178  0.2751 -0.0353 -0.1416
25890W        W46170  16.626   4.551  13.781 -0.3048  0.2874  0.4769
25891W        W46171  12.390   0.508   3.128 -0.0072 -0.1156  0.0178
25892W        W46172  15.054   1.755  10.229  0.0081  0.1231 -0.3539
25893W        W46173   6.313   9.200   9.829 -0.2449  0.2745  0.1453
25894W        W46174  13.314  11.113   1.899 -0.1375  0.3138 -0.1022
25895W        W46175   7.963  10.479   0.396 -0.1453 -0.3852  0.1043
25896W        W46176  16.167   4.217  12.594  0.0492  0.0134  0.0173
25897W        W46177  19.945  10.491   0.292  0.2272 -0.0833 -0.0091
25898W        W46178   3.480   7.514  13.634 -0.2850 -0.1505 -0.1699
25899W        W46179   9.185   8.911   0.839 -0.1240 -0.0646 -0.0899
25900W        W46180  14.980  10.503  11.236  0.0474  0.1997 -0.1021
25901W        W46181  12.529   2.055  10.968  0.0231 -0.1365 -0.1762
25902W        W46182   0.355  19.759  13.031 -0.1144  0.1148  0.0627
25903W        W46183   0.252   6.455   0.110  0.1051 -0.0781 -0.3339
25904W        W46184  10.939   5.426   1.138  0.1537 -0.0982  0.0883
25905W        W46185  16.535   7.603   2.249  0.2107 -0.0140  0.1218
25906W        W46186   6.675   4.097   3.141 -0.1118 -0.0516  0.3958
25907W        W46187  17.544   1.316  13.608  0.3554 -0.0803  0.0269
25908W        W46188  16.422   3.450   3.476 -0.0097 -0.0623  0.2244
25909W        W46189   8.470  16.469  13.804  0.0103 -0.1846  0.0270
25910W        W46190  19.106  16.660  12.566 -0.3100 -0.1828 -0.0277
25911W        W46191  18.307   8.308  10.746  0.2535  0.3497  0.1550
25912W        W46192  10.324   6.504   4.676 -0.1843  0.1519  0.3340
25913W        W46193  19.673   4.306   0.343  0.0285  0.0472 -0.1311
25914W        W46194  13.305   5.801  10.393  0.0483  0.0657 -0.0119
25915W        W46195  10.192  15.394  11.057 -0.3499 -0.0521  0.3557
25916W        W46196  19.747  16.605   0.429  0.1483 -0.1177  0.1464
25917W        W46197  11.617   2.098  10.560  0.0591 -0.2319 -0.1442
25918W        W46198  14.517  10.803   2.985  0.2227 -0.3687 -0.0877
25919W        W46199  10.201   6.839   1.525 -0.0785  0.3767  0.1348
25920W        W46200  10.192  18.152  10.138 -0.0243  0.0218  0.3180
25921W        W46201   8.407  15.600  11.764  0.0767 -0.3334  0.0114
25922W        W46202  10.713  14.803   2.161  0.0241 -0.2675 -0.0740
25923W        W46203   7.057  16.984  10.996  0.2498  0.1894 -0.0996
25924W        W46204  12.928   0.286  10.881 -0.0578  0.1894 -0.1508
25925W        W46205  10.016  15.356  13.628  0.0625 -0.2514 -0.0672
25926W        W46206   1.159   8.589  13.365  0.3243  0.0220 -0.1916
25927W        W46207   9.208   1.941  12.108  0.0705 -0.0249 -0.1637
25928W        W46208   8.618   8.241  12.964 -0.0403 -0.1719 -0.0199
25929W        W46209  11.332   6.284   1.517 -0.1739 -0.0264  0.0807
25930W        W46210   6.222  10.154   3.200 -0.0428  0.0464 -0.1193
25931W        W46211  11.175  17.775  13.687  0.1685 -0.1293 -0.1896
25932W        W46212   0.354   4.186   0.015  0.1062 -0.1064 -0.1625
25933W        W46213   7.870  15.029  11.720 -0.2799  0.1509  0.3675
25934W        W46214  14.745  18.642   9.993  0.1783 -0.1692  0.1584
25935W        W46215   7.773   1.264  12.420 -0.0049 -0.1778  0.0014
25936W        W46216  19.585  10.620   1.183 -0.0747 -0.1573 -0.1038
25937W        W46217  12.544   0.511  12.561 -0.0607 -0.0627  0.1286
25938W        W46218   9.343  17.951   1.637  0.0542 -0.2143 -0.0680
25939W        W46219  11.375  12.306   3.535 -0.0003 -0.0487 -0.1038
25940W        W46220  12.348  18.150   0.832 -0.1716  0.1256 -0.1104
25941W        W46221   8.055   5.896   3.195  0.2186 -0.2012 -0.0217
25942W        W46222   9.461   0.969   2.792 -0.1280 -0.0552 -0.1387
25943W        W46223  12.604   2.364   1.509 -0.0904  0.2022 -0.1061
25944W        W46224   3.758  18.605  13.611  0.1845  0.0708  0.2999
25945W        W46225   1.726   3.816  12.440  0.1131  0.0924  0.0942
25946W        W46226  16.655   5.289  10.370  0.2188 -0.3125 -0.1089
25947W        W46227  19.612   6.512  10.272  0.2237 -0.1657  0.5019
25948W        W46228   9.163  10.778  12.334  0.3359  0.0619  0.3612
25949W        W46229  13.395  18.288   2.232  0.1582 -0.0197  0.0765
25950W        W46230   2.268  13.376   1.663  0.1905 -0.2110 -0.0468
25951W        W46231   2.655   2.463   3.695  0.0289  0.0152 -0.3256
25952W        W46232   8.409  11.867   0.570 -0.2546 -0.0099  0.0865
25953W        W46233  11.707  10.354   1.804  0.4489  0.5126 -0.3208
25954W        W46234  11.948   1.339   3.709 -0.0475 -0.3015  0.4402
25955W        W46235   4.649   8.971   3.903  0.2364  0.0125 -0.1226
25956W        W46236   8.633  13.830   2.716  0.0215 -0.3971  0.0928
25957W        W46237   8.390   7.362  11.111  0.0422 -0.2169  0.0507
25958W        W46238   0.277  14.755  10.001  0.1349  0.1537  0.1374
25959W        W46239   1.412   2.338  11.320  0.0149 -0.1471  0.3541
25960W        W46240  14.818  17.201   3.654 -0.1658 -0.0465  0.0813
25961W        W46241   0.655   3.381  10.948 -0.2661 -0.0650 -0.1944
25962W        W46242  15.506   3.554   4.697 -0.0278  0.2166  0.0612
25963W        W46243   3.370  19.137  11.064  0.1242 -0.0982  0.1215
25964W        W46244  12.461  11.905   2.798 -0.0179  0.0677 -0.0998
25965W        W46245   2.221   9.245  11.353  0.1524 -0.0489 -0.1966
25966W        W46246   8.780  13.437  11.680  0.1560  0.0444 -0.0159
25967W        W46247   0.536  12.228   0.786 -0.3116  0.0230 -0.1390
25968W        W46248   3.943  18.620   3.057 -0.2467  0.0698 -0.1716
25969W        W46249  15.146   7.074  10.342 -0.2342 -0.1140 -0.0087
25970W        W46250  16.345  17.383   2.302  0.1365 -0.3571  0.0108
25971W        W46251  15.742  19.015   1.799  0.0751 -0.3700  0.0384
25972W        W46252   3.648  17.987  13.168 -0.2380  0.0904  0.4376
25973W        W46253   0.971   8.621  12.288  0.0105  0.1227  0.1012
25974W        W46254  13.483   7.797   0.613 -0.1855  0.0648 -0.1294
25975W        W46255   4.377   7.839   1.694  0.0072  0.2509  0.3649
25976W        W46256   8.890   4.348   2.807 -0.1809 -0.1154  0.1016
25977W        W46257   0.251   6.953   9.122 -0.0171 -0.2132 -0.0888
25978W        W46258  19.383  10.104   9.820 -0.1948 -0.0868  0.0923
25979W        W46259   7.660  12.967  10.643  0.2996 -0.3550 -0.0084
25980W        W46260   5.109   7.311  11.617 -0.1862 -0.1706  0.1020
25981W        W46261  19.652   1.632   3.468 -0.1859  0.0900 -0.2678
25982W        W46262  11.185   8.932  11.840 -0.0916  0.1162  0.1092
25983W        W46263   0.074  11.501   1.023 -0.1194 -0.0778  0.1965
25984W        W46264   3.912  13.564   0.758  0.0983 -0.1720 -0.2076
25985W        W46265  15.308   9.265  13.179  0.1784 -0.2711 -0.2532
25986W        W46266   2.201  10.600  12.207 -0.1433 -0.1957 -0.0537
25987W        W46267  15.020   6.232   0.296  0.2071 -0.1075  0.1507
25988W        W46268  11.241   2.263  12.562 -0.2392  0.2355 -0.0972
25989W        W46269  13.849  17.628  12.632 -0.0311 -0.0193 -0.0025
25990W        W46270   5.149   9.655   3.866 -0.0174  0.3789 -0.0077
25991W        W46271  13.642  18.925   2.993  0.0626 -0.0569 -0.1836
25992W        W46272   1.148  14.597   0.841  0.1706  0.2133 -0.1591
25993W        W46273   2.999   2.828   2.755  0.3331 -0.1589  0.1400
25994W        W46274   9.070  13.148   0.166 -0.2943 -0.1536  0.0258
25995W        W46275   4.257   2.435   4.065  0.2291 -0.2230 -0.1013
25996W        W46276  12.628  12.718   1.673  0.2632  0.2351 -0.0662
25997W        W46277   5.658   5.530   3.448 -0.0195 -0.1325 -0.4065
25998W        W46278   4.116   7.445   2.832  0.1056 -0.0790 -0.0050
25999W        W46279   6.217  18.152   4.333  0.2031 -0.3322 -0.0182
26000W        W46280  19.890   4.639   3.745  0.0201 -0.2260 -0.5639
26001W        W46281   2.753   3.732  11.527  0.2089  0.2081 -0.1677
26002W        W46282   7.407  10.944   1.122 -0.0332  0.1277 -0.1259
26003W        W46283   5.542  16.251   1.237  0.2562 -0.0719  0.2655
26004W        W46284  10.290  14.680  13.359 -0.1769  0.0861 -0.2857
26005W        W46285   4.215   4.185   1.125  0.0991 -0.0554  0.0614
26006W        W46286   7.482  10.205   1.368 -0.0575  0.1917 -0.0308
26007W        W46287   3.574  17.739  13.835  0.0561  0.3611  0.3813
26008W        W46288   2.076  19.053   2.447 -0.4577 -0.1090 -0.1054
26009W        W46289  14.990   5.802  11.119  0.0175 -0.3161 -0.0978
26010W        W46290   2.474   8.850   0.875 -0.0917  0.2031 -0.0684
26011W        W46291   7.614   1.973  13.055  0.2055  0.1675 -0.0553
26012W        W46292   3.875   7.649  13.387  0.0238  0.0838  0.0103
26013W        W46293   5.887   1.124  12.252 -0.3539  0.3229  0.0670
26014W        W46294  17.327   9.390  12.972 -0.2167  0.6182 -0.3696
26015W        W46295  14.816  10.743   2.024 -0.1662 -0.0675 -0.2462
26016W        W46296  15.847  10.058  10.727  0.0413 -0.1001  0.0238
26017W        W46297   2.483  14.263   0.989 -0.1479 -0.0671 -0.0046
26018W        W46298  15.334   1.184  11.600 -0.0216 -0.1009  0.2896
26019W        W46299  18.668  11.342  13.227 -0.1518 -0.1553 -0.0492
26020W        W46300  12.594  10.794   0.170 -0.1262 -0.1469 -0.0069
26021W        W46301   4.166   0.797   1.795  0.0214 -0.1982  0.0263
26022W        W46302   6.997  10.392   2.890 -0.0316 -0.3556 -0.0519
26023W        W46303   3.472  11.733  13.591 -0.1916  0.0641 -0.0288
26024W        W46304  19.252  14.769  11.354  0.2567  0.1992  0.0324
26025W        W46305   3.314  12.853  12.833  0.1672 -0.0166  0.0168
26026W        W46306  12.799   8.252  11.643  0.2977  0.2179 -0.1511
26027W        W46307  15.189   0.862  13.628 -0.3497 -0.2453  0.1324
26028W        W46308   7.335   3.338   3.077  0.1058  0.0044 -0.0907
26029W        W46309  17.868   2.354  13.793 -0.0146  0.2541 -0.0476
26030W        W46310   0.242  16.482   3.224  0.1582 -0.0789 -0.0731
26031W        W46311   3.843   1.080  10.635 -0.0624 -0.0066 -0.0199
26032W        W46312   8.215   3.136  12.223 -0.2219  0.2126  0.0344
26033W        W46313   7.508   7.879  11.118 -0.0645  0.1882  0.0992
26034W        W46314  18.826  12.909   1.680  0.0322  0.3332 -0.0121
26035W        W46315   8.506   8.693   2.754 -0.4509  0.1900  0.0317
26036W        W46316   0.020  17.123  13.085  0.0238  0.2023 -0.0723
26037W        W46317  10.219   2.441   0.465  0.0020 -0.0550  0.2394
26038W        W46318  17.274   3.715  13.535  0.1200 -0.0728 -0.0510
26039W        W46319  13.530  18.539   2.686  0.2299 -0.1410  0.0928
26040W        W46320  16.628  19.107   9.739  0.2473 -0.0579 -0.2674
26041W        W46321   4.144  17.319  12.916  0.2050 -0.2042  0.1634
26042W        W46322   4.169  16.973   0.753 -0.2325  0.1146  0.1944
26043W        W46323  13.342  16.732   3.391  0.0975  0.2274  0.1712
26044W        W46324  11.329   4.243   2.105 -0.2053  0.0308 -0.1006
26045W        W46325   1.002   4.449  11.863 -0.1245 -0.0321  0.0953
26046W        W46326  12.920   8.369   2.201  0.2533 -0.0429  0.2350
26047W        W46327  19.369  19.609  10.294  0.2100 -0.1539  0.2269
26048W        W46328   9.640  15.730   3.080 -0.3848  0.2909  0.2477
26049W        W46329  13.672  16.853  11.516  0.1370 -0.1841  0.1929
26050W        W46330   4.212   3.351   3.863  0.2265  0.2175 -0.0158
26051W        W46331  19.277  16.584   0.700  0.0774 -0.0907  0.0886
26052W        W46332   8.156   2.688  12.763 -0.0014 -0.0315 -0.1043
26053W        W46333   1.067   7.911   0.267 -0.1275 -0.1276  0.1958
26054W        W46334  12.172  14.385   3.239 -0.1169  0.2523  0.1478
26055W        W46335  14.173   9.113  13.610 -0.2227  0.0058 -0.0921
26056W        W46336  10.041   5.062   0.317 -0.0051 -0.2097 -0.1089
26057W        W46337  12.271  16.403  12.538  0.2614  0.0960 -0.0284
26058W        W46338   6.103  11.018   1.747 -0.2653 -0.2063  0.1121
26059W        W46339   8.575   6.185   2.863 -0.4792 -0.1666 -0.0067
26060W        W46340   8.539  17.347   2.982 -0.0581  0.2811  0.1580
26061W        W46341  11.966  15.061  11.410 -0.0645  0.1789  0.1634
26062W        W46342   4.427   3.066  11.903  0.0242 -0.0467 -0.1138
26063W        W46343   6.995   2.617   0.247  0.0747  0.1584 -0.0082
26064W        W46344   1.236  19.376   1.117  0.3207  0.0378 -0.2355
26065W        W46345   7.780  15.476   2.776 -0.1950  0.1276 -0.2095
26066W        W46346   0.842  13.261  10.023 -0.0826  0.1011  0.0587
26067W        W46347   7.602   3.008  13.356  0.3002  0.0103  0.1281
26068W        W46348  14.302  12.686  10.568  0.1531  0.0773 -0.1780
26069W        W46349  14.666   4.580  11.279 -0.0667 -0.0483  0.1189
26070W        W46350  19.077  12.855   9.946  0.0956  0.3145 -0.1993
26071W        W46351   3.598   2.441  13.715 -0.0395  0.0550 -0.0313
26072W        W46352  17.203   3.965   1.640 -0.0732 -0.2062  0.0058
26073W        W46353   7.373   4.790   0.018  0.0123  0.3257 -0.1348
26074W        W46354  18.343  11.917   1.587  0.1033  0.0105 -0.1633
26075W        W46355   2.743   2.136   2.095 -0.0711  0.0390 -0.0089
26076W        W46356  13.865   1.568   0.394 -0.0450  0.2043  0.3476
26077W        W46357   8.504  15.604   1.231  0.0765  0.0450  0.1439
26078W        W46358   0.217   9.391   3.517  0.2459 -0.0482 -0.0395
26079W        W46359   4.284   9.579   3.991 -0.0424  0.0360 -0.2676
26080W        W46360   7.815   6.370   0.029  0.0219  0.0114 -0.0161
26081W        W46361  11.733  14.870  10.924  0.1837 -0.0980  0.1048
26082W        W46362   3.154   6.108   0.701 -0.1143 -0.0434 -0.0672
26083W        W46363   2.782   5.564   3.835 -0.2505  0.3534 -0.1345
26084W        W46364   6.285   9.029  10.994  0.0064  0.1234 -0.2259
26085W        W46365   9.234   6.980   1.948 -0.3415 -0.2886 -0.0232
26086W        W46366   0.254   1.388   0.765 -0.0488  0.2113 -0.0006
26087W        W46367  12.801  16.548  11.720 -0.0741  0.1005  0.0664
26088W        W46368  17.205  13.051  10.089  0.0303 -0.0639 -0.0509
26089W        W46369  17.220  10.094   0.271 -0.0930 -0.1046  0.0173
26090W        W46370   0.294  14.270  13.273 -0.0041 -0.2581 -0.2959
26091W        W46371  18.400   4.278   0.979 -0.0833  0.0169  0.0498
26092W        W46372  17.726   1.758  13.353  0.0635 -0.1848 -0.0606
26093W        W46373   5.949   4.454   0.080  0.0075  0.3709  0.1398
26094W        W46374   5.922  19.798   1.013  0.1799  0.0653 -0.1845
26095W        W46375   3.227  11.712   1.062  0.1619  0.0616  0.2385
26096W        W46376  19.356  12.572  12.077  0.0799 -0.1638  0.3213
26097W        W46377   1.662  12.617  11.031 -0.2775  0.0332  0.0034
26098W        W46378   6.050   0.664   0.434 -0.0331 -0.1839  0.1005
26099W        W46379  18.663   3.165   1.507  0.2660 -0.3651 -0.0408
26100W        W46380   9.808   6.664   0.038  0.1704  0.1104  0.0946
26101W        W46381   1.523  17.111  13.366  0.0798  0.0365  0.0722
26102W        W46382   5.815  15.597   2.553 -0.0262 -0.0895  0.0092
26103W        W46383   2.872  11.975   1.782 -0.3574 -0.1180  0.4161
26104W        W46384  15.560   5.889   1.725 -0.0879  0.1934 -0.0437
26105W        W46385  15.252  13.247  11.191  0.2450  0.1116  0.2793
26106W        W46386   8.220  13.911   0.778 -0.3139 -0.5436  0.2927
26107W        W46387  13.536   6.590   3.302  0.0693  0.2604 -0.0770
26108W        W46388   2.101  14.113  13.494  0.1709 -0.1000  0.0716
26109W        W46389  14.450  19.133   3.321  0.0721  0.2919 -0.2306
26110W        W46390   1.811   1.188   1.444  0.0738 -0.0479  0.1516
26111W        W46391   4.784   4.199  11.656 -0.1859 -0.2503 -0.3063
26112W        W46392   5.287  17.582   3.290 -0.2333  0.0232  0.2528
26113W        W46393  18.187  16.188  13.681 -0.1227  0.0969 -0.5152
26114W        W46394  11.169   1.088  10.789  0.3296  0.2327  0.1865
26115W        W46395  12.696  13.092  13.594 -0.3877  0.0564  0.0257
26116W        W46396   3.069   9.224  11.431 -0.1041 -0.2504 -0.4928
26117W        W46397   9.186  11.861  12.173 -0.2635  0.0865  0.0507
26118W        W46398  17.467  17.475  12.489 -0.0289  0.2299  0.4340
26119W        W46399  14.318   9.802   9.762  0.2832  0.0759 -0.0993
26120W        W46400  10.366  12.598  10.606  0.2342  0.1761 -0.1937
26121W        W46401  17.692   6.709   3.411  0.0170 -0.0693  0.2976
26122W        W46402   6.063  17.454   1.900  0.2510  0.2606  0.2776
26123W        W46403   4.049  10.746  10.491  0.3440  0.2883 -0.1698
26124W        W46404   5.402   8.371   1.910 -0.0319 -0.2941  0.1114
26125W        W46405  19.923  12.788  10.369  0.1440 -0.1699 -0.1264
26126W        W46406  14.748  10.614   1.155  0.1364  0.1673 -0.1132
26127W        W46407  14.639  15.688  12.064  0.2252 -0.1571 -0.0054
26128W        W46408   0.332  17.600  11.594 -0.0970  0.3222  0.0154
26129W        W46409   2.737  11.048   0.610  0.3375  0.2887 -0.2514
26130W        W46410  14.203   9.804  12.885 -0.2401 -0.1536  0.0537
26131W        W46411   6.497  10.796   9.730  0.1841  0.2151  0.0854
26132W        W46412  19.908  12.844   4.431  0.2046 -0.0316  0.2635
26133W        W46413   3.542  16.444   2.489 -0.3132 -0.0117 -0.1823
26134W        W46414  10.587  13.852   0.500  0.0218 -0.1894 -0.0501
26135W        W46415  13.236  10.625   2.101 -0.2958 -0.0733 -0.2823
26136W        W46416   6.220   0.677  12.999  0.2406 -0.0194  0.0113
26137W        W46417   0.371   1.565   1.219  0.0166  0.0516 -0.1575
26138W        W46418   5.969  15.885   9.248 -0.3637  0.1759  0.3734
26139W        W46419   5.885  13.819   1.097 -0.1544 -0.3701  0.2271
26140W        W46420  17.281   8.845   1.585 -0.0980 -0.1742  0.1219
26141W        W46421   2.115  19.627   2.513  0.0596 -0.0258 -0.0429
26142W        W46422  14.646  18.231   9.550 -0.6378 -0.1279  0.1738
26143W        W46423   6.537  11.528  13.037  0.0910 -0.2562 -0.0025
26144W        W46424   3.404   3.051  11.526 -0.0201 -0.1569 -0.0453
26145W        W46425   3.732  11.245   1.665  0.4425  0.3083 -0.2733
26146W        W46426   5.303  17.498   2.668 -0.1988  0.1370 -0.1391
26147W        W46427  14.610   4.760  13.065  0.3198  0.1910  0.0450
26148W        W46428   3.074   6.003   4.762 -0.0503  0.1998 -0.1363
26149W        W46429  19.044  19.187  11.373  0.1468  0.0483 -0.0837
26150W        W46430   5.376   0.237  11.970 -0.1768  0.1281  0.0929
26151W        W46431  12.684   2.608   1.063  0.1895  0.1125  0.1793
26152W        W46432   7.968  17.506  12.700 -0.0444 -0.1084  0.1977
26153W        W46433  14.696   8.818  10.564  0.0127 -0.1245  0.0981
26154W        W46434   0.250   3.794  11.790  0.1694 -0.3188  0.2579
26155W        W46435  19.680   8.504   0.907 -0.2422 -0.2541  0.2565
26156W        W46436   4.806  19.675   3.662  0.4164 -0.0425 -0.0335
26157W        W46437  10.680   6.296   0.216  0.0401  0.1125 -0.1856
26158W        W46438  11.121   8.488   4.102  0.2825  0.2165 -0.0243
26159W        W46439  10.265  12.087   0.673 -0.0445  0.1106  0.3656
26160W        W46440  15.098   0.165  11.422 -0.0146 -0.0907 -0.0794
26161W        W46441   9.123   8.395   0.320 -0.2714 -0.3313 -0.1879
26162W        W46442  14.178  15.817   0.568  0.1416 -0.1894 -0.3347
26163W        W46443  10.542  17.452   0.309  0.0403  0.2781 -0.2169
26164W        W46444  11.710  10.885   1.132 -0.1791 -0.0151  0.0775
26165W        W46445   5.900   5.474  13.606  0.2039 -0.2481  0.2310
26166W        W46446  17.716   3.862   1.486 -0.2987 -0.0081  0.0811
26167W        W46447  17.221   1.114   1.769  0.3269 -0.1817  0.1732
26168W        W46448   3.177  19.945   2.227 -0.4109 -0.1664 -0.2169
26169W        W46449  15.351  18.447   3.104  0.1668  0.0953  0.1072
26170W        W46450   5.038  15.408   3.993  0.1883  0.3729  0.2450
26171W        W46451   8.756   1.649  12.885 -0.0391  0.0173  0.0155
26172W        W46452  18.351  17.008  11.031 -0.1709 -0.2407  0.0563
26173W        W46453  15.573   4.404  13.455 -0.2214  0.0377 -0.1199
26174W        W46454   4.217   8.862  12.157  0.0839  0.1930  0.1100
26175W        W46455   7.029  13.794  12.290  0.0737 -0.1477 -0.0478
26176W        W46456   9.333  18.828   9.549  0.3483  0.1491 -0.2853
26177W        W46457  17.810  19.616  13.038 -0.1821  0.0030  0.1148
26178W        W46458   3.538   5.657  13.343  0.0442  0.2390  0.1800
26179W        W46459   8.071  18.198  13.367 -0.0335  0.0160  0.1204
26180W        W46460  13.385   4.413  11.176  0.0989 -0.2237  0.2022
26181W        W46461  16.266   9.442  11.541  0.0642  0.1499  0.0101
26182W        W46462   0.331  18.821  13.226  0.4368  0.1432 -0.0949
26183W        W46463   5.192   6.293   0.677 -0.0790 -0.0385  0.3260
26184W        W46464   7.512  13.525   2.984  0.0252  0.1489  0.0673
26185W        W46465   0.646   4.416   3.505 -0.0480  0.0902 -0.3073
26186W        W46466  17.011   2.109   2.357 -0.1461  0.3321  0.0514
26187W        W46467  12.688   9.105  11.342  0.0520 -0.3350  0.1820
26188W        W46468  17.622   0.029   1.927  0.1320  0.3349  0.0238
26189W        W46469  19.531   3.109   3.093 -0.2483  0.0212  0.0348
26190W        W46470   1.930  11.586  13.760 -0.0993 -0.0341 -0.1485
26191W        W46471   8.304  19.416   3.441 -0.2368 -0.0367  0.0447
26192W        W46472  17.148  19.723   2.645 -0.1791  0.0923 -0.1577
26193W        W46473   3.517   8.151  12.547 -0.1315  0.0044 -0.0960
26194W        W46474   1.195   1.893   2.406 -0.0691 -0.1090  0.1225
26195W        W46475   3.420   0.330   0.126  0.3524 -0.0127  0.2265
26196W        W46476  17.671   5.390  10.347 -0.0625 -0.2816 -0.2474
26197W        W46477   0.762  18.156  10.277 -0.0051 -0.0283 -0.2098
26198W        W46478  19.675   3.001   0.477 -0.2009  0.1230 -0.2110
26199W        W46479  14.550   1.436  13.468 -0.0493 -0.0044 -0.0852
26200W        W46480   5.010   5.328  11.532  0.1227  0.0147 -0.0496
26201W        W46481   5.260   1.933  12.650  0.1435  0.0797  0.1547
26202W        W46482   5.484  16.148  13.855  0.1239  0.0165  0.0130
26203W        W46483  16.229   2.373   1.307 -0.2074 -0.0473  0.2411
26204W        W46484   3.550   2.345  10.795 -0.2351 -0.2302 -0.0905
26205W        W46485   7.058  13.741   3.048  0.3000  0.1505  0.0238
26206W        W46486  19.299  14.149  12.946  0.2852  0.0878  0.0863
26207W        W46487  17.001   1.598   0.604 -0.2461 -0.0296  0.3589
26208W        W46488   1.083  12.139   9.960  0.0319  0.0211 -0.0918
26209W        W46489  10.423  15.588   3.311  0.0975  0.0397 -0.1385
26210W        W46490  13.153  16.304  12.522  0.2189  0.1156  0.0176
26211W        W46491   2.731  10.589  12.440 -0.3297 -0.4343 -0.0198
26212W        W46492  17.889  14.037   0.947  0.1717  0.0511 -0.3335
26213W        W46493   4.702   4.702   2.823 -0.2752  0.4270  0.0727
26214W        W46494  14.368   4.283  12.587  0.1273  0.1895 -0.0305
26215W        W46495  18.646  18.732  10.953 -0.0508 -0.0531  0.2415
26216W        W46496   1.784  12.148   0.786  0.0860  0.1818  0.0292
26217W        W46497  13.921   7.204  12.578 -0.1880  0.0930  0.3302
26218W        W46498  16.807  13.486  13.517  0.0499  0.0954  0.0324
26219W        W46499   9.796  13.408   4.682 -0.1162  0.0876  0.3116
26220W        W46500  19.849   4.186   2.250 -0.3817 -0.0138 -0.0144
26221W        W46501   7.249  17.150  12.260 -0.1932 -0.1607 -0.0786
26222W        W46502   3.139   7.594   3.240 -0.2395 -0.0067  0.1195
26223W        W46503   6.062  13.906  13.591 -0.2486 -0.2107 -0.4178
26224W        W46504  17.107  16.932   9.581  0.3069 -0.1316  0.1646
26225W        W46505  17.732  13.080   1.846 -0.1996  0.2575  0.3061
26226W        W46506   6.595  19.430   3.214  0.0367  0.0526 -0.0324
26227W        W46507  15.793  14.975   1.152  0.0839  0.3604 -0.5199
26228W        W46508   2.858  18.337  12.253  0.1830  0.0700 -0.0914
26229W        W46509   1.041   3.189   4.148  0.0844  0.0058 -0.1014
26230W        W46510   8.067  18.462   1.584 -0.2080  0.2159  0.3212
26231W        W46511  16.630  15.900   4.332  0.0695 -0.3058 -0.1629
26232W        W46512  14.753  10.318  13.462  0.1430 -0.2378  0.2972
26233W        W46513  13.986  15.561   2.196  0.2957  0.2066 -0.3256
26234W        W46514  10.404   6.840   2.918  0.2561  0.0128 -0.1553
26235W        W46515  14.359  17.719   3.694  0.0836 -0.1469 -0.2957
26236W        W46516  11.914   9.812   2.617 -0.0693  0.1434 -0.0264
26237W        W46517   0.978   0.425  10.985  0.3985  0.1188 -0.1056
26238W        W46518  17.486  10.751  12.955 -0.2045  0.0600 -0.1076
26239W        W46519   6.068   0.635  12.337  0.1370  0.2389 -0.3436
26240W        W46520  19.262  12.867   0.955  0.0813 -0.0993 -0.1042
26241W        W46521  12.326  16.454   1.273 -0.2374 -0.0916  0.1490
26242W        W46522   6.434   0.199  10.520 -0.2257  0.1424  0.0207
26243W        W46523   2.705  17.122  10.969 -0.0133  0.3496 -0.2542
26244W        W46524  17.936  14.515  10.101 -0.0549 -0.0743 -0.2082
26245W        W46525   0.882  18.441   4.918 -0.0456  0.0569 -0.0851
26246W        W46526  17.023  13.045   1.375  0.0247 -0.1202  0.1910
26247W        W46527  16.378  16.606  10.060  0.1286 -0.2367  0.0247
26248W        W46528  13.395  11.871  10.070 -0.0647  0.1517  0.3336
26249W        W46529   8.256   7.012  10.300  0.2027  0.1831 -0.0742
26250W        W46530  15.136   4.430  10.480  0.0451  0.1306  0.0540
26251W        W46531  11.510   9.720  10.851 -0.1057 -0.0608  0.1207
26252W        W46532  13.784  16.002   3.002  0.0191 -0.0938 -0.2204
26253W        W46533  16.439   1.133  13.235  0.0777  0.2840 -0.0188
26254W        W46534   3.079   2.989  11.117  0.2469 -0.0936  0.2462
26255W        W46535  11.878  13.730   2.510  0.0404 -0.0467  0.0207
26256W        W46536  11.789   0.841   3.878  0.2508  0.4370 -0.3381
26257W        W46537  16.964   4.658   2.186  0.2611 -0.2095 -0.1886
26258W        W46538  18.391   2.488  12.563 -0.1523  0.0080  0.0047
26259W        W46539  11.100   5.863   3.270 -0.2163  0.2194 -0.1278
26260W        W46540  14.126  15.918  11.518 -0.0183 -0.0708 -0.0438
26261W        W46541   3.871   4.915   1.473  0.1690  0.2578  0.1505
26262W        W46542  11.779   3.014   0.379 -0.2645 -0.3036  0.1981
26263W        W46543  19.287  13.910   0.038 -0.0638  0.0315 -0.3947
26264W        W46544   8.505   3.593  13.211 -0.0049 -0.0057  0.0808
26265W        W46545   2.579   0.710  12.430 -0.2997  0.3254  0.2300
26266W        W46546   1.476   3.237   2.848  0.3095  0.0081  0.0101
26267W        W46547  13.589   3.659  12.926  0.0863 -0.0406 -0.0830
26268W        W46548   2.539  18.697   0.114  0.0238  0.0439  0.0653
26269W        W46549  14.376   2.747   3.358 -0.0569  0.1178 -0.1569
26270W        W46550  10.334   9.103   2.704 -0.1043 -0.1497 -0.1418
26271W        W46551   6.696  17.023   2.461  0.0383 -0.1657 -0.0609
26272W        W46552   7.299  13.711  11.830 -0.0715  0.1778  0.2186
26273W        W46553  11.742   2.226   1.280 -0.1064  0.0208  0.1973
26274W        W46554  15.935  13.853  11.445  0.1577  0.3347  0.0371
26275W        W46555   8.093  19.029   2.735  0.0206 -0.3228 -0.0212
26276W        W46556   2.542   5.980  11.683  0.0674 -0.2724 -0.1682
26277W        W46557  14.050   6.690  11.471 -0.1443 -0.1304 -0.0810
26278W        W46558   9.244   7.296   0.006  0.0808 -0.4494  0.3402
26279W        W46559   1.222   9.457  13.852 -0.2879 -0.0201 -0.0794
26280W        W46560  13.265  18.953   0.261  0.1550  0.2808 -0.1552
26281W        W46561   4.341  17.276   4.337 -0.1832  0.1547  0.1583
26282W        W46562   5.742   2.302   9.299 -0.0466  0.1214  0.0311
26283W        W46563  19.109   8.950   1.505 -0.2691  0.1242 -0.1205
26284W        W46564   7.028  11.702  10.659  0.0162  0.0487 -0.2347
26285W        W46565   7.566   2.500   0.920  0.0926 -0.1455 -0.1739
26286W        W46566  15.011   1.642   0.410 -0.0898 -0.1226 -0.2817
26287W        W46567   7.109   2.971   2.767 -0.1244  0.1731  0.3152
26288W        W46568  17.297   6.904  11.375  0.0742 -0.1142  0.0669
26289W        W46569  10.499   8.273  11.143  0.1348  0.0754  0.0750
26290W        W46570   2.355  12.444  11.681 -0.0247  0.0928 -0.2804
26291W        W46571   0.198   6.243  12.886  0.0901  0.1302 -0.0103
26292W        W46572   9.075  12.699   1.905 -0.1761 -0.1835 -0.2748
26293W        W46573  17.504  17.576  10.101 -0.2081  0.3577 -0.2648
26294W        W46574   5.733   6.976   3.019 -0.0964  0.2954 -0.0289
26295W        W46575  18.588  15.447  10.946  0.1416  0.0498  0.0693
26296W        W46576  13.819  14.694  10.143  0.0664 -0.3290  0.2231
26297W        W46577  19.673  15.962   0.027  0.0977 -0.0286 -0.0229
26298W        W46578  13.530  15.528  13.263 -0.1617 -0.1299  0.0337
26299W        W46579  18.308   1.574  10.877 -0.2046  0.2983 -0.0940
26300W        W46580   9.963  16.674  13.656  0.0537 -0.2181 -0.0078
26301W        W46581   5.225  16.813   3.874 -0.1260 -0.1074  0.4498
26302W        W46582  18.714  13.728   1.436 -0.0146 -0.2233 -0.2052
26303W        W46583  13.990  16.897   1.554  0.0593  0.1500  0.4089
26304W        W46584  12.836  13.933  10.504  0.0200  0.1643  0.0950
26305W        W46585  18.597  10.656  10.448  0.0007 -0.1046 -0.2975
26306W        W46586   1.780   6.027   2.818 -0.0617 -0.2041  0.0901
26307W        W46587   2.130  19.025  11.136 -0.0631 -0.1295  0.0576
26308W        W46588  10.744   0.161   2.805 -0.0616 -0.0618 -0.5869
26309W        W46589   5.311   8.812   1.507 -0.0820  0.1701  0.1467
26310W        W46590   0.228  14.864  13.093 -0.0236  0.1771  0.3092
26311W        W46591   5.875   3.940  11.454  0.2535  0.1260 -0.3576
26312W        W46592   9.646  11.022   3.568  0.1667 -0.0442  0.4032
26313W        W46593  18.405  12.138   4.355  0.0495 -0.1629 -0.1589
26314W        W46594   7.577   1.611   0.511  0.0592 -0.0383  0.0545
26315W        W46595   0.725   2.193  12.082  0.3297 -0.1145 -0.0755
26316W        W46596   9.714  17.977  10.731 -0.3016  0.1015  0.0053
26317W        W46597   2.831   5.917  12.130  0.0587 -0.0511 -0.3291
26318W        W46598  14.826   4.250   0.023  0.0525 -0.0370  0.3151
26319W        W46599   7.310  11.963  13.232  0.1928 -0.3398  0.0765
26320W        W46600   6.442   1.488   2.283  0.0716 -0.0789  0.3483
26321W        W46601   5.586   5.995  12.743  0.0514  0.2030 -0.2085
26322W        W46602   8.064   8.751  10.130  0.0634 -0.4279  0.3924
26323W        W46603   7.709   9.848   2.612 -0.2337  0.4030 -0.0994
26324W        W46604  11.756   4.590   2.784  0.1963 -0.2561  0.1018
26325W        W46605  18.868   9.559  12.810 -0.1067  0.2079 -0.2544
26326W        W46606   7.982  14.438  10.591  0.0558 -0.1910  0.0026
26327W        W46607  18.550  16.915  12.909  0.0886  0.0257  0.1224
26328W        W46608  15.150   5.555  10.468 -0.0766  0.4188  0.1511
26329W        W46609  19.792  10.260  13.767  0.0615 -0.0277 -0.0756
26330W        W46610   7.647  18.855  12.674  0.4630  0.1309 -0.2542
26331W        W46611   1.031  17.298   2.122  0.2773 -0.2709  0.3388
26332W        W46612  11.263  18.875   2.298 -0.3132  0.1202  0.2403
26333W        W46613   3.282  15.035   0.185  0.4559  0.0826  0.1472
26334W        W46614   3.391  15.123  11.831 -0.0546 -0.0013 -0.1275
26335W        W46615   2.670   1.983  10.668 -0.5135 -0.0967  0.3167
26336W        W46616  12.468  16.645   3.361  0.4556  0.0122  0.0908
26337W        W46617   4.449  13.044   9.730 -0.4493  0.3341  0.0916
26338W        W46618  10.517   7.755  11.235  0.2004  0.0638  0.1994
26339W        W46619  18.842   6.216   4.151 -0.2810 -0.1059 -0.0556
26340W        W46620  17.163   0.163  12.234  0.3256 -0.0130  0.2318
26341W        W46621   0.141  10.921   3.157  0.3122  0.2735  0.1428
26342W        W46622  14.064   7.558  11.313  0.4335  0.2978  0.1285
26343W        W46623  13.244  13.094   3.492  0.1635  0.2748 -0.1039
26344W        W46624   6.026  15.120  11.676 -0.2255  0.1580  0.1488
26345W        W46625  16.899   6.386   2.344  0.1445  0.1455  0.0982
26346W        W46626   2.463   0.699   1.662  0.0566  0.0096 -0.0476
26347W        W46627   3.856  12.895  10.668  0.2832 -0.2444 -0.0546
26348W        W46628  13.468  17.526   0.950  0.4118  0.0166 -0.0770
26349W        W46629  13.989  13.941  11.403 -0.0001 -0.1677 -0.1087
26350W        W46630   7.960   1.736  10.525 -0.2370 -0.1236  0.1080
26351W        W46631  10.932  19.248  11.085 -0.1750  0.0468 -0.1292
26352W        W46632  18.455   1.047   3.034  0.3217  0.0167  0.1537
26353W        W46633   0.312  18.925   1.938 -0.0975  0.2122 -0.3679
26354W        W46634   4.350   7.507   1.241  0.3543 -0.4194  0.1911
26355W        W46635  12.768  18.990   2.365 -0.0327 -0.1822 -0.1246
26356W        W46636   1.863   5.462  13.080  0.1087  0.0405 -0.1230
26357W        W46637  18.694  17.997   2.497 -0.3027  0.0303 -0.0818
26358W        W46638   7.960   1.854   2.758  0.2812 -0.0988 -0.2264
26359W        W46639  10.621   5.858  10.787  0.1524  0.4673  0.0890
26360W        W46640   5.889   1.908   3.436 -0.2563  0.1266  0.4004
26361W        W46641  17.013   9.275  12.105  0.3685 -0.2826 -0.0373
26362W        W46642   7.683   7.928   2.034 -0.1235  0.0260  0.2360
26363W        W46643  16.389   4.249   1.307 -0.0193  0.1336  0.0624
26364W        W46644  17.655  11.464   3.166 -0.0736  0.1800  0.0282
26365W        W46645  11.685   7.827  12.743  0.2861  0.1012  0.0532
26366W        W46646  15.977  18.483   0.760  0.0487  0.1154 -0.0503
26367W        W46647  19.345  11.457  11.657 -0.1881  0.0435 -0.0705
26368W        W46648   3.420   5.642   3.010  0.1027  0.2463 -0.1257
26369W        W46649   8.459  15.172  12.578 -0.1837  0.0599  0.0407
26370W        W46650  19.501  12.862   0.485  0.1073 -0.0196  0.0449
26371W        W46651  16.557   0.480  11.260 -0.0304  0.1276 -0.2234
26372W        W46652   1.827  17.534  13.190  0.1631  0.0972  0.1851
26373W        W46653  10.589  17.548  12.945  0.4274 -0.0310 -0.0722
26374W        W46654  10.728  11.083  12.982  0.4176 -0.1160 -0.0689
26375W        W46655   9.160  10.064   0.139 -0.1107  0.2981 -0.1107
26376W        W46656   6.561  18.606   0.209 -0.4033  0.2167 -0.1110
26377W        W46657   3.787  19.908   2.909  0.0770 -0.0417 -0.0069
26378W        W46658  15.508   3.474   2.126  0.1482  0.1016 -0.1915
26379W        W46659   4.991  12.823   1.240  0.3382 -0.0592  0.0513
26380W        W46660  13.715   0.231   4.144  0.1153  0.0716  0.1155
26381W        W46661  12.820  13.099   1.431  0.2911 -0.0778 -0.1338
26382W        W46662   1.444  14.036   2.035 -0.2992 -0.2015 -0.0340
26383W        W46663  14.541   1.924   2.872  0.0716  0.0218 -0.1744
26384W        W46664  12.960  15.584   2.388 -0.0343 -0.2939 -0.1625
26385W        W46665  10.039   0.508   1.370  0.1885 -0.1928 -0.2593
26386W        W46666   9.046  18.449   1.606  0.0279 -0.3353  0.0744
26387W        W46667   0.265  12.679  12.553 -0.0956  0.0114 -0.1115
26388W        W46668   3.411   2.202  11.703 -0.0049  0.0800 -0.0835
26389W        W46669  17.409   0.484   1.807 -0.1481 -0.0795  0.0367
26390W        W46670   7.070   8.550   2.785 -0.0340  0.0819 -0.1055
26391W        W46671  14.316  10.160   2.502  0.3502 -0.1972  0.3978
26392W        W46672   0.246  12.497   2.431 -0.0433  0.1740  0.0084
26393W        W46673  16.294   8.040   1.076  0.3859 -0.2097  0.0128
26394W        W46674  14.774   1.906   0.725  0.2051 -0.1226 -0.0921
26395W        W46675  17.090  17.461   9.871  0.0281 -0.0678 -0.2510
26396W        W46676   2.298   4.529  13.824 -0.1471 -0.2072  0.0711
26397W        W46677   6.485   2.396   1.889 -0.0812  0.2289  0.2898
26398W        W46678   7.518   2.397   3.317  0.0359 -0.4365 -0.1635
26399W        W46679  17.692   4.206  13.567 -0.1929 -0.1023 -0.0600
26400W        W46680  13.951   2.891  10.927 -0.2468 -0.0320  0.0669
26401W        W46681   3.661  10.310   1.264 -0.3177  0.0405  0.0070
26402W        W46682   0.260   7.037  11.454 -0.0758 -0.0803 -0.0892
26403W        W46683   6.146   2.701   0.515  0.1248 -0.0533  0.0387
26404W        W46684   4.216   6.499  10.020 -0.1561 -0.2319 -0.1589
26405W        W46685  12.986  15.698  13.525  0.1208 -0.1081  0.0304
26406W        W46686   3.100   5.793   3.440  0.0691 -0.1807  0.0344
26407W        W46687   4.809   1.565  10.594 -0.1120  0.1822  0.3251
26408W        W46688   7.759  18.310   3.651 -0.2843  0.0477 -0.0662
26409W        W46689  18.444  18.539  11.870  0.4429 -0.2465 -0.1134
26410W        W46690  15.466   9.078  10.499 -0.1215  0.0544  0.0349
26411W        W46691   9.822   9.397  11.714  0.2818 -0.0470  0.4039
26412W        W46692  16.725  16.929  11.084 -0.0049 -0.3497 -0.0674
26413W        W46693   3.175  10.932   2.884  0.1835 -0.0072  0.1516
26414W        W46694  16.619  17.717   0.614  0.4333 -0.1280 -0.0878
26415W        W46695  18.050   0.067  11.753  0.3087  0.2625  0.1019
26416W        W46696  17.043   2.353   9.069 -0.0732  0.1342  0.2678
26417W        W46697  18.829   6.264   3.076  0.0322  0.0864  0.2427
26418W        W46698  15.828  16.511   1.204 -0.0843 -0.1820  0.1191
26419W        W46699   7.357  12.944  12.726 -0.2168 -0.0063  0.1386
26420W        W46700  18.747   8.690   1.232  0.2531 -0.1736 -0.0915
26421W        W46701  19.051   2.093   2.803 -0.2576 -0.0540  0.1469
26422W        W46702   6.745  13.295   0.128  0.1294 -0.0092  0.3326
26423W        W46703   1.538  19.339  10.815 -0.0278  0.2300  0.1179
26424W        W46704   9.757   6.537  10.745 -0.2497  0.0364 -0.2083
26425W        W46705   0.511   4.388  11.156 -0.2766  0.0075  0.1138
26426W        W46706   5.872  12.519   4.326 -0.2693  0.0986  0.1128
26427W        W46707  12.171  13.194   2.162  0.0086  0.1265  0.2800
26428W        W46708  18.895   4.434   1.288  0.1650  0.1427 -0.2894
26429W        W46709   7.519   1.975  11.907 -0.2257 -0.1217  0.0750
26430W        W46710  14.273   7.506  13.219 -0.4235  0.3844  0.3035
26431W        W46711   3.375   8.860  11.540  0.2201  0.1333  0.0894
26432W        W46712  10.167   4.876   2.557  0.1507 -0.0121  0.3520
26433W        W46713  16.684  19.701  10.172  0.0627  0.2338 -0.0402
26434W        W46714  12.066  17.852   3.772  0.1122 -0.0293  0.2517
26435W        W46715   9.505  10.245   3.011  0.1076  0.5071 -0.1172
26436W        W46716   2.396  16.386   0.382 -0.0347 -0.0048 -0.1248
26437W        W46717   4.510   0.704   1.338  0.5834 -0.0416 -0.1650
26438W        W46718   7.700  11.359  13.730 -0.4333 -0.0368  0.3645
26439W        W46719   8.989   8.747   3.553 -0.1488 -0.0503  0.0950
26440W        W46720   6.363   1.428  13.118  0.1322 -0.2913 -0.1377
26441W        W46721  13.046  17.715   1.160 -0.1162  0.2820  0.0374
26442W        W46722  17.290  15.535  13.668  0.0976  0.0173  0.0037
26443W        W46723   9.846   5.108   1.270  0.1156  0.1048 -0.1903
26444W        W46724  19.076   7.417  13.547 -0.0287  0.4312 -0.2711
26445W        W46725  10.469  13.591   3.914  0.1572  0.2231  0.0339
26446W        W46726  12.631  14.151   2.909 -0.0607 -0.1577  0.1413
26447W        W46727  16.478  16.459  13.238  0.0967  0.1728 -0.0349
26448W        W46728   7.809  18.795   2.041  0.2062 -0.1374 -0.0982
26449W        W46729   7.007   7.240   2.599 -0.0358 -0.0545  0.0676
26450W        W46730   5.961  11.801  13.199  0.2889 -0.0628  0.2562
26451W        W46731   5.127  10.971  11.557 -0.0005 -0.0918 -0.1627
26452W        W46732  16.083  15.666  10.706 -0.3778  0.3084  0.2561
26453W        W46733  14.990  18.878   3.096 -0.0524 -0.2818 -0.1233
26454W        W46734   5.503  17.867   0.556 -0.0429  0.1268 -0.0005
26455W        W46735  19.242   4.978  12.732 -0.0495  0.0384  0.0902
26456W        W46736   1.847   5.893  13.775 -0.1511 -0.0644 -0.1102
26457W        W46737   0.333   9.233   0.864 -0.0122 -0.1245  0.2331
26458W        W46738   8.754  12.252   3.119 -0.2983  0.2423 -0.1856
26459W        W46739  15.317  14.406   2.955 -0.0299 -0.0681 -0.1550
26460W        W46740  19.370   4.362   0.945  0.2769 -0.4363 -0.2427
26461W        W46741  12.348   5.167  11.965 -0.0185 -0.1106  0.1688
26462W        W46742  12.121   8.524   2.071  0.1873 -0.2085  0.4366
26463W        W46743  15.548  14.896  12.804  0.0601 -0.1670 -0.1134
26464W        W46744   1.706  16.063  11.139 -0.0685  0.3184  0.0411
26465W        W46745  15.298   5.296  10.075  0.0213 -0.2266  0.2257
26466W        W46746   6.887  12.625   4.204  0.2548  0.1011 -0.0547
26467W        W46747   6.338  16.703   2.469 -0.1011 -0.0174  0.0251
26468W        W46748   5.927  11.353   0.416  0.1317  0.0682 -0.0079
26469W        W46749  19.530   0.613  11.776  0.2296  0.2741 -0.0305
26470W        W46750   3.041  16.973   0.166 -0.1741 -0.2579 -0.4016
26471W        W46751  18.210   4.224   3.458 -0.1224 -0.3815 -0.2005
26472W        W46752   4.496   2.447  13.654 -0.1532 -0.2551  0.0085
26473W        W46753   7.915  12.723  11.127 -0.1123  0.1009  0.1636
26474W        W46754  10.908   6.409   0.724 -0.1909  0.0160  0.1650
26475W        W46755  14.633  11.061   0.795  0.0671  0.0891 -0.1043
26476W        W46756  15.041  16.866  13.382 -0.0738  0.1340  0.2268
26477W        W46757   5.295  11.225   2.156 -0.0793 -0.1907 -0.5016
26478W        W46758  16.136  12.601  12.561 -0.0286  0.2462 -0.0608
26479W        W46759   3.107  12.129  12.387 -0.0247  0.2094 -0.1082
26480W        W46760   2.632   1.416  12.361 -0.2455  0.3355 -0.0297
26481W        W46761  12.515   2.600   0.116 -0.0211  0.3033  0.0350
26482W        W46762   1.443  12.457   9.080  0.0691  0.2833 -0.2949
26483W        W46763  15.619   1.400  12.046  0.3043 -0.1069 -0.0011
26484W        W46764  12.346   2.931  12.121 -0.1947  0.1217 -0.0191
26485W        W46765   4.813  19.591   3.122  0.1515  0.1659 -0.0110
26486W        W46766   5.923   9.306   0.508  0.0333 -0.0105  0.2331
26487W        W46767   8.295   4.133  11.155  0.0672 -0.0972  0.2271
26488W        W46768   3.748  11.376  12.038 -0.1767  0.3959 -0.0713
26489W        W46769   1.317   0.526   0.897  0.0890  0.3089 -0.3248
26490W        W46770  11.222   7.091   3.894  0.0052  0.1665 -0.1642
26491W        W46771  12.580  19.725  13.386  0.2918  0.1043 -0.0383
26492W        W46772  14.050   8.638   0.896  0.1432  0.1634  0.0197
26493W        W46773  15.365  14.863   1.884 -0.2693  0.1484 -0.2620
26494W        W46774  15.756   6.704   8.814  0.2974  0.1513 -0.1761
26495W        W46775   6.280  10.652   2.943  0.0609  0.1304  0.1271
26496W        W46776  13.078   9.150   3.578  0.1203 -0.3458 -0.4385
26497W        W46777  13.578  10.842  12.332  0.0112  0.0698 -0.1895
26498W        W46778   5.385  14.303  10.634  0.0693  0.2643 -0.3557
26499W        W46779   4.705  15.107   4.271 -0.1970  0.2992  0.1040
26500W        W46780   8.104  16.257  12.862 -0.1948 -0.1211  0.0833
26501W        W46781  15.928   1.046  10.737  0.0781  0.0783 -0.3232
26502W        W46782   5.773   6.847   1.140  0.1174  0.0532  0.1220
26503W        W46783   9.413  14.823   2.715  0.0331  0.0883  0.0700
26504W        W46784  17.734  18.966   0.067 -0.3025 -0.1189  0.2593
26505W        W46785   7.228   6.368  13.060 -0.1079 -0.1117  0.1449
26506W        W46786   0.250   4.146   0.517  0.2109  0.2019 -0.0059
26507W        W46787  16.578   9.397   3.196 -0.1016 -0.0744 -0.4341
26508W        W46788   5.112   9.642  13.328  0.1180  0.2290 -0.2597
26509W        W46789  14.637   4.634   3.269 -0.3929  0.1553 -0.0622
26510W        W46790  12.735   0.769  10.775  0.3278  0.0860  0.0299
26511W        W46791   7.368   6.851  10.863 -0.0351  0.4892 -0.1183
26512W        W46792  13.957  10.551  13.489  0.1179 -0.1618  0.4473
26513W        W46793  15.664   5.182  10.457  0.2075  0.1411  0.0041
26514W        W46794  18.587   7.286   3.428  0.2383  0.0023 -0.1377
26515W        W46795  13.007  19.456  13.573  0.2049  0.1337  0.5376
26516W        W46796  17.927   2.939   1.808 -0.1768 -0.0542 -0.2470
26517W        W46797   3.857  11.495   3.771  0.2841  0.1400 -0.2876
26518W        W46798  14.840   1.238  10.720  0.2319  0.0356  0.1599
26519W        W46799  12.638  14.715  12.145 -0.3458  0.0383 -0.2407
26520W        W46800   8.252  14.369   2.002  0.4000  0.0877 -0.3211
26521W        W46801  17.424  16.742   0.395  0.1020  0.0197  0.3829
26522W        W46802  18.212  17.091   9.258 -0.1400  0.2123 -0.0219
26523W        W46803  19.555   5.270  12.550 -0.4677  0.2120 -0.3122
26524W        W46804  12.208   8.779  12.735 -0.2338  0.0854 -0.2838
26525W        W46805   7.227  10.137   0.850  0.2694  0.0198  0.0224
26526W        W46806  13.525  10.612   2.599  0.3201 -0.2644  0.1369
26527W        W46807   3.740  18.512  11.262 -0.1182 -0.3293 -0.0463
26528W        W46808   3.383  16.305   3.872  0.1800  0.2107 -0.1886
26529W        W46809  17.803  10.172   0.612 -0.0866  0.0986 -0.0122
26530W        W46810   2.693   4.410   3.132  0.1834  0.2525 -0.1784
26531W        W46811  17.525   4.110  11.025 -0.3273  0.0798  0.3843
26532W        W46812  14.922  11.814   0.025  0.0715 -0.1078 -0.2573
26533W        W46813  18.491  14.592  12.773  0.1665 -0.0793  0.2000
26534W        W46814   7.799  18.420  11.418 -0.4828 -0.1602 -0.1766
26535W        W46815   0.591   4.315   2.087  0.0668 -0.0479  0.1229
26536W        W46816  18.474  17.137   3.539  0.0753  0.1053  0.1902
26537W        W46817   1.952  13.985   9.374 -0.3015  0.2283  0.0417
26538W        W46818  13.789  17.355   1.861  0.4421  0.3785 -0.0073
26539W        W46819   2.033   1.680   1.335  0.2143  0.1740 -0.2026
26540W        W46820  19.331  18.225   1.533  0.2951  0.2249  0.2266
26541W        W46821   9.975  17.975  13.458 -0.5678 -0.0403 -0.0915
26542W        W46822  15.044   7.647   0.633 -0.0106 -0.1118 -0.3036
26543W        W46823   4.277   7.137   3.173  0.2584 -0.4163 -0.2478
26544W        W46824  17.118   8.994   0.532  0.0610 -0.2508 -0.0510
26545W        W46825   4.168   0.471  10.997 -0.0779  0.1014  0.0929
26546W        W46826  17.336   0.515  13.168 -0.2037 -0.3983  0.0235
26547W        W46827  18.789  14.608  11.388 -0.2115 -0.4352 -0.3002
26548W        W46828  13.103   9.511   1.924  0.2850 -0.2543  0.1080
26549W        W46829  13.744  11.460  10.161  0.1353 -0.0385 -0.2487
26550W        W46830  19.268   8.389  10.633 -0.2500  0.2589 -0.0455
26551W        W46831   9.850  16.495   2.583 -0.0279 -0.0750 -0.1106
26552W        W46832   1.467   9.448   1.774 -0.0082 -0.1707 -0.0417
26553W        W46833  12.794   4.797   4.519  0.0316 -0.1704  0.3237
26554W        W46834  12.871   6.557  11.374  0.0057 -0.1288 -0.0002
26555W        W46835  14.277   7.029  13.621 -0.2863 -0.2194  0.1381
26556W        W46836  14.063  15.119   0.069 -0.3829  0.0067 -0.0489
26557W        W46837   3.491  19.575   0.017  0.1732  0.1011 -0.0461
26558W        W46838  12.706  18.377   0.502  0.4065  0.2592 -0.0906
26559W        W46839   2.015   4.843   1.836  0.0377  0.0903 -0.1078
26560W        W46840  15.906  17.500   2.586 -0.1673  0.0083 -0.1782
26561W        W46841   2.161   6.013  10.818 -0.1651 -0.1901  0.4509
26562W        W46842   3.172  12.095   2.424 -0.0458 -0.3779  0.4313
26563W        W46843  16.624  13.366   1.443 -0.0537  0.0341  0.0543
26564W        W46844   6.792  15.704   0.743  0.0540 -0.2390  0.1143
26565W        W46845  16.199   3.193   1.049 -0.1612  0.0101  0.0354
26566W        W46846   8.558  12.911  12.862 -0.0958  0.1940  0.1564
26567W        W46847   9.565  10.273  13.525  0.1963  0.0633 -0.3734
26568W        W46848  18.840  18.106   1.746  0.0406  0.0094 -0.1368
26569W        W46849   0.446  14.201   3.373  0.4113  0.4755  0.2993
26570W        W46850   8.136  13.107   2.151  0.1302 -0.1529  0.2326
26571W        W46851  10.658   7.127  10.035  0.1175  0.0507  0.1175
26572W        W46852   6.759   9.869  13.596  0.0866 -0.0260 -0.1715
26573W        W46853  19.060   8.481  11.081 -0.4269 -0.4670 -0.2603
26574W        W46854   4.268  14.926  12.915 -0.0093 -0.0358  0.2417
26575W        W46855  18.786   7.705   3.173  0.2880  0.1107  0.0444
26576W        W46856  11.727   7.129   3.093 -0.0393 -0.1026  0.3684
26577W        W46857   6.439   0.880   0.726 -0.0682 -0.1621  0.0744
26578W        W46858   5.811  18.592  10.512 -0.1336 -0.0108  0.0941
26579W        W46859   1.315  17.696   0.047  0.0042  0.0173 -0.2514
26580W        W46860   0.007  12.174   3.228 -0.3431 -0.0181 -0.1782
26581W        W46861   2.474  16.529   1.663  0.1278 -0.1895 -0.4832
26582W        W46862  11.571  19.724   3.974  0.2914  0.3156 -0.3844
26583W        W46863   0.482   1.058   1.219 -0.0199  0.0650  0.2195
26584W        W46864  12.566   9.632   0.495 -0.2636 -0.1199 -0.2238
26585W        W46865  16.446   6.609  12.815  0.0282 -0.1153  0.0088
26586W        W46866   8.285  10.364   3.725  0.2461 -0.1630 -0.0039
26587W        W46867  11.283   5.392  10.178  0.4168 -0.1655  0.5668
26588W        W46868   8.566   1.169  11.558 -0.2221  0.2213 -0.0388
26589W        W46869  19.434   8.884   3.973 -0.1423 -0.1525 -0.2883
26590W        W46870  15.664  17.271   0.944  0.0863  0.0474  0.1345
26591W        W46871  15.284  10.656  11.590  0.0621  0.0454  0.0879
26592W        W46872   4.077  17.490   1.531 -0.0816 -0.3475  0.2012
26593W        W46873   5.380  10.056  13.578 -0.0076  0.1111  0.0722
26594W        W46874   8.920   0.789  11.356 -0.1430  0.0615  0.1350
26595W        W46875   9.146   6.905   1.404  0.2569  0.3599 -0.2905
26596W        W46876  12.252  17.427   1.247  0.1850  0.1540 -0.0148
26597W        W46877   2.344  18.371  12.301 -0.0702  0.2174 -0.0276
26598W        W46878   0.576   4.853  10.867 -0.2191 -0.1391 -0.0836
26599W        W46879  10.235   7.361  11.658 -0.2954  0.0440 -0.4192
26600W        W46880   7.200  16.129   3.371  0.0693 -0.1020 -0.1217
26601W        W46881   0.173  14.358  12.784  0.2673  0.1020 -0.1286
26602W        W46882  18.822   8.909   1.953  0.2652 -0.0618 -0.2319
26603W        W46883   4.937   0.933  12.247  0.0408  0.0645  0.4159
26604W        W46884  14.874  17.772   9.640  0.1317  0.1501 -0.0929
26605W        W46885  13.499  16.140   1.621  0.1113  0.0486  0.0351
26606W        W46886   5.232  17.125   2.982  0.0656 -0.0592  0.1960
26607W        W46887   2.943   3.038   1.983 -0.0395 -0.0843  0.3157
26608W        W46888   8.860  10.988   2.983  0.0552  0.2191 -0.0558
26609W        W46889   9.424   4.072  10.638  0.0871 -0.3539  0.1799
26610W        W46890   1.339   9.813   3.601 -0.1009 -0.0488 -0.1436
26611W        W46891   7.685  18.114   2.235  0.2574  0.3340  0.2072
26612W        W46892   5.963   2.232  10.956 -0.2925  0.0276 -0.1994
26613W        W46893  10.249   5.375   1.296  0.1925 -0.3087 -0.2490
26614W        W46894  10.755   3.442   3.755  0.1211 -0.0546 -0.2851
26615W        W46895   8.457  19.698  13.082  0.1520 -0.1800 -0.2717
26616W        W46896  14.809   8.317  12.450  0.1569 -0.2627  0.2108
26617W        W46897   6.718  13.581   0.951  0.0854 -0.0730  0.0633
26618W        W46898  16.067  15.397  10.153  0.3564  0.0219 -0.0949
26619W        W46899   6.080   0.233   1.710 -0.1210  0.0617  0.2364
26620W        W46900  15.126   8.523   9.785  0.0752  0.0796  0.0092
26621W        W46901   5.602   7.969  11.280  0.0006  0.0816  0.1245
26622W        W46902  15.552   9.043  10.999  0.1795  0.1914 -0.0297
26623W        W46903   9.866   9.470   0.319  0.0297  0.1297  0.0648
26624W        W46904   8.179   7.878   4.698 -0.0117  0.1475  0.1809
26625W        W46905  19.161   3.060   0.400  0.7000 -0.2505 -0.1540
26626W        W46906   1.702  19.805  13.363  0.0456  0.3162 -0.0598
26627W        W46907  10.473   4.629   0.377 -0.2177 -0.2221  0.0719
26628W        W46908   8.210  13.375  13.852 -0.0789 -0.0169 -0.1591
26629W        W46909  15.367  18.812   9.953 -0.0385 -0.0030  0.0630
26630W        W46910   9.711   6.826   0.876 -0.0549  0.0896  0.1104
26631W        W46911  19.579  10.052   1.820 -0.0140 -0.3043  0.0778
26632W        W46912   2.904  17.692  12.565 -0.0194  0.1011 -0.2531
26633W        W46913  14.369  13.761  12.074  0.1858  0.2197 -0.0459
26634W        W46914  13.789  18.397   3.746 -0.0493 -0.3363  0.1288
26635W        W46915   2.582   1.951  12.571 -0.1668 -0.2835  0.1333
26636W        W46916  16.684   1.110   2.365 -0.1666 -0.0467 -0.0810
26637W        W46917   8.165   7.877  12.501 -0.0902 -0.0799  0.0029
26638W        W46918   9.937   3.379   3.656 -0.2162  0.0518  0.5523
26639W        W46919  11.778  13.523   4.164 -0.1315 -0.2728 -0.1026
26640W        W46920   4.609  15.192   2.735 -0.0311  0.0860 -0.0812
26641W        W46921  12.905   5.629  12.672  0.0303  0.0106  0.0279
26642W        W46922   4.431   8.474   0.828 -0.2966  0.0668 -0.0096
26643W        W46923   5.122   3.879   1.456 -0.0829  0.2634  0.0719
26644W        W46924  14.861  12.368  12.462  0.3597 -0.2074 -0.2619
26645W        W46925   0.469   8.480  12.417 -0.1611 -0.0483  0.0412
26646W        W46926  16.904  12.328   2.446 -0.0808 -0.0201 -0.1722
26647W        W46927  13.760   6.976   0.268 -0.1596  0.0302  0.0600
26648W        W46928  11.466   0.111  11.334 -0.0562 -0.5329  0.0902
26649W        W46929  11.626   3.546   2.647 -0.2315  0.1800 -0.0943
26650W        W46930  11.219  11.426   1.163 -0.1342  0.0876  0.3569
26651W        W46931   6.595  15.090   2.123  0.1288 -0.0019  0.2176
26652W        W46932   7.472  18.292  11.049  0.0495  0.3773 -0.4255
26653W        W46933  19.545   6.249   2.206 -0.2101  0.0569 -0.1481
26654W        W46934   0.375  14.224   0.178 -0.2053  0.3650  0.1319
26655W        W46935   1.362  12.969   0.961  0.0656  0.3854 -0.1199
26656W        W46936   1.460  18.381   1.398 -0.0095 -0.1862  0.3011
26657W        W46937   1.411  16.923  10.417  0.1571  0.0932  0.0394
26658W        W46938   5.406   8.097  10.443  0.2061 -0.1185  0.1804
26659W        W46939  16.819   2.402   0.984  0.4911 -0.1835 -0.0221
26660W        W46940  10.719  13.119   4.565 -0.0728  0.0970 -0.1143
26661W        W46941   1.437  17.158   2.416 -0.0089 -0.0616  0.0971
26662W        W46942  13.044   1.194   3.468 -0.1598  0.2706  0.2187
26663W        W46943   8.725   3.911  10.657 -0.0815  0.3192  0.3669
26664W        W46944  12.238   0.922   8.842 -0.2085  0.2040  0.4671
26665W        W46945  10.758  10.132  13.804 -0.1405 -0.1835  0.0123
26666W        W46946  12.060   2.859   3.645 -0.0125  0.1996  0.1063
26667W        W46947   9.274   4.201  12.887  0.1145 -0.1848 -0.1330
26668W        W46948  12.373   1.459   2.184  0.0614 -0.0465 -0.2146
26669W        W46949  12.360  10.364  12.479  0.2019 -0.4059 -0.1129
26670W        W46950   9.292   2.364   2.029  0.3351 -0.4394 -0.0302
26671W        W46951  16.881  13.304   0.642  0.3503 -0.2067 -0.2602
26672W        W46952   6.745  17.663   0.096  0.3100  0.6991  0.2379
26673W        W46953   1.411   1.949  10.933  0.0298 -0.0468 -0.0853
26674W        W46954  13.045   2.370   2.604  0.0913 -0.3058  0.0782
26675W        W46955  15.004   1.908   9.772  0.2426 -0.1165 -0.0577
26676W        W46956   3.814  10.328   2.942 -0.1183  0.1576 -0.0431
26677W        W46957  10.002   7.587   3.445 -0.1159 -0.3205  0.4937
26678W        W46958  10.209   9.190  10.825  0.0262 -0.0077 -0.0411
26679W        W46959   9.156  14.781   3.559  0.1265  0.0918 -0.3131
26680W        W46960  17.621   4.892   3.409 -0.0150  0.0485 -0.0007
26681W        W46961   5.005   0.925  12.785  0.1242  0.1651  0.2578
26682W        W46962   9.546   1.350   2.223  0.3831  0.3565  0.1139
26683W        W46963  19.637   2.634  12.728 -0.2679 -0.0979 -0.3652
26684W        W46964  12.894   5.018   2.329 -0.1947  0.4202 -0.0652
26685W        W46965   0.682  17.782  12.035 -0.1519 -0.2642 -0.0303
26686W        W46966  11.184   2.439  10.296 -0.0598  0.2619 -0.0468
26687W        W46967  19.376  16.092   3.583 -0.3309 -0.2291  0.0246
26688W        W46968  16.595  12.516  13.408  0.0996  0.0841  0.0777
26689W        W46969  10.642  10.314  13.330 -0.0862  0.2168 -0.1750
26690W        W46970  10.780  19.361  13.468  0.0639 -0.0441  0.0797
26691W        W46971   6.346  15.505  11.785  0.0297  0.0981 -0.0764
26692W        W46972   3.865  10.015  12.904  0.1374  0.0606 -0.0283
26693W        W46973  18.921   6.401   2.622 -0.0527 -0.1638 -0.2055
26694W        W46974  18.332   8.615  11.823  0.1062 -0.0437  0.0118
26695W        W46975   6.996   5.016   4.101  0.0126  0.1040  0.2708
26696W        W46976   0.963   7.200   4.067 -0.0385 -0.2166 -0.1906
26697W        W46977   6.730  11.386  10.901  0.0726  0.0638  0.0578
26698W        W46978   7.393   2.304  12.832 -0.0624  0.2875 -0.0399
26699W        W46979   8.068   2.611  11.635  0.0711 -0.2220 -0.1594
26700W        W46980  14.055  10.597  11.799 -0.2122  0.0406  0.1187
26701W        W46981   4.162   5.027   1.086  0.2602 -0.2738 -0.1147
26702W        W46982  11.195  14.913  12.379  0.1044 -0.0488  0.0822
26703W        W46983   8.270  14.703  11.849  0.0307  0.0587  0.0306
26704W        W46984  10.145  11.786  13.259 -0.0467 -0.2525  0.0122
26705W        W46985  18.605  19.375  13.074 -0.0975  0.0221 -0.1154
26706W        W46986   8.139   6.519  10.373  0.0788  0.2836  0.1238
26707W        W46987   3.974  10.980   2.660 -0.2309  0.2734 -0.1508
26708W        W46988  19.518   0.916   1.396  0.0231  0.0539  0.0413
26709W        W46989   8.554  19.249   2.655 -0.1622 -0.0127  0.4219
26710W        W46990   3.029  12.506  11.017 -0.3610  0.4141 -0.1627
26711W        W46991  14.310   3.376  10.018 -0.0598  0.0460  0.0004
26712W        W46992  11.704   2.290   1.890 -0.1758  0.3891 -0.1532
26713W        W46993   5.786   3.336   2.277 -0.0468  0.1251  0.0517
26714W        W46994  10.859  13.541   2.534 -0.2171 -0.4549 -0.0247
26715W        W46995   0.806   8.534   3.664 -0.0339  0.0106  0.0392
26716W        W46996   1.252   2.769  11.101  0.0179  0.0061  0.0269
26717W        W46997   0.586   5.412  12.410  0.3623  0.2237 -0.3435
26718W        W46998  19.101   1.096   2.751 -0.1337  0.2268 -0.1484
26719W        W46999   0.260   7.712  13.829 -0.3178  0.2312 -0.0723
26720W        W47000  13.366  12.396  13.822  0.4075  0.2130  0.0180
26721W        W47001   3.451  14.641   4.154 -0.0588  0.4185 -0.0156
26722W        W47002  12.484   1.831   2.819 -0.2621 -0.1657  0.1180
26723W        W47003  16.981   9.043  11.180  0.2031  0.1055  0.0809
26724W        W47004  16.584  19.928   9.198  0.2775  0.0941 -0.0580
26725W        W47005   1.300   7.971  11.066 -0.1368  0.0649 -0.0377
26726W        W47006   9.662  17.724   5.041 -0.1651 -0.1604  0.3568
26727W        W47007   1.405   4.394   0.353 -0.0883 -0.0436 -0.1152
26728W        W47008  10.381   8.961   0.268  0.2158 -0.1476 -0.1428
26729W        W47009   6.481  13.843   0.262 -0.3264 -0.0213  0.1068
26730W        W47010  13.660  12.555  11.729  0.0309  0.0868  0.0253
26731W        W47011  11.707   0.856  13.482  0.1019  0.4165  0.0307
26732W        W47012  11.187  17.366  11.443 -0.1070 -0.0591  0.0203
26733W        W47013   9.991   2.646   1.886  0.3951 -0.0602  0.0163
26734W        W47014  17.367   9.538   0.282 -0.0175  0.0556 -0.1028
26735W        W47015  17.295  11.733   1.219  0.0614  0.0187 -0.0720
26736W        W47016   5.052  16.464   1.169 -0.2207  0.1947  0.2013
26737W        W47017   7.725   3.630  10.731  0.1382 -0.0744  0.1257
26738W        W47018  17.522   6.678   0.937  0.3142  0.3154  0.0489
26739W        W47019   6.593  10.134   2.715  0.0588  0.3608 -0.3880
26740W        W47020  18.320   3.690  13.108 -0.1836 -0.0839 -0.0500
26741W        W47021  13.930  11.242  11.444  0.0757 -0.0008  0.1965
26742W        W47022  16.643   2.952   2.818 -0.0213 -0.0159  0.1091
26743W        W47023   9.579  13.277   2.203  0.2134  0.3115 -0.0893
26744W        W47024  13.975  14.639  10.609 -0.0133 -0.2189  0.4465
26745W        W47025   3.350  13.651  12.272  0.0987 -0.1458  0.1543
26746W        W47026  18.507   8.164   1.322  0.0263  0.1761  0.0851
26747W        W47027  16.582  10.593  13.135  0.1863 -0.2405 -0.1652
26748W        W47028  12.502   4.443  12.624 -0.1073 -0.2585 -0.0693
26749W        W47029   7.254  14.639   0.155  0.1496  0.1797  0.2033
26750W        W47030  15.555   4.860   3.050 -0.0620  0.1216  0.2789
26751W        W47031   7.804  13.428  12.971  0.3057 -0.0984  0.3468
26752W        W47032  15.121  17.633  11.809  0.0120 -0.2117  0.0886
26753W        W47033   6.377  10.238   2.253 -0.1059 -0.2931  0.2282
26754W        W47034   6.859   5.333   1.483  0.0915 -0.1668  0.0438
26755W        W47035   2.356   1.145   1.353 -0.3484  0.0286  0.0244
26756W        W47036  14.403  10.655   2.471  0.2636 -0.1125  0.0855
26757W        W47037  11.468   6.705   3.671 -0.0612  0.3130  0.0862
26758W        W47038  19.815  17.674  10.155 -0.1468  0.0140  0.3510
26759W        W47039  17.448  14.004  12.121  0.1046  0.3288 -0.1439
26760W        W47040   3.425  16.810  13.160  0.1115  0.0247 -0.0259
26761W        W47041  10.265   7.896   3.732  0.1158  0.0184  0.1489
26762W        W47042  13.611  18.112  10.430  0.1205 -0.1400 -0.0535
26763W        W47043  11.481  10.156  11.095 -0.3478  0.0566 -0.1549
26764W        W47044   1.045   8.337  11.865  0.1570 -0.0713 -0.1225
26765W        W47045   4.211   2.206  12.917 -0.2176 -0.0754  0.2491
26766W        W47046   6.976  11.821   0.933 -0.1490  0.2648  0.0130
26767W        W47047  16.001   5.359   0.606 -0.0878 -0.0049  0.1194
26768W        W47048   5.767  19.061  13.456 -0.1629  0.0318 -0.2019
26769W        W47049   5.697   3.709  12.462  0.1756 -0.3268 -0.2363
26770W        W47050  16.471  17.936  11.556 -0.2024  0.0174  0.2236
26771W        W47051   0.232  18.469   9.937  0.2157 -0.3884  0.0407
26772W        W47052  10.215  15.586   1.072  0.3450  0.2430 -0.1239
26773W        W47053  16.752  14.270   1.055 -0.1035 -0.0079  0.2684
26774W        W47054   9.018  16.744  12.250 -0.0268  0.3635  0.1848
26775W        W47055   7.598  12.131   2.439 -0.0001  0.0272  0.1785
26776W        W47056  13.885   7.945   0.238 -0.0115 -0.1543  0.2013
26777W        W47057   9.882  19.485   3.894 -0.0761 -0.0508  0.0937
26778W        W47058  13.966   4.766   3.921 -0.1002 -0.0967 -0.1706
26779W        W47059  19.844   9.606  13.357 -0.2129 -0.2625 -0.4515
26780W        W47060   6.752   7.117  11.502  0.1166  0.0163 -0.1276
26781W        W47061   0.685  15.033  11.223 -0.1100 -0.4362 -0.1412
26782W        W47062  17.230  15.277  10.245 -0.0309  0.0941  0.0204
26783W        W47063   5.084  15.189  11.874  0.3138  0.0873 -0.0464
26784W        W47064   8.601   5.338   1.147 -0.3647 -0.3438 -0.0365
26785W        W47065  17.905  11.703   8.847  0.0691 -0.1654 -0.0986
26786W        W47066  16.714   2.918  12.587 -0.0586 -0.1178  0.2037
26787W        W47067   0.759  18.399   0.541 -0.2006  0.1038 -0.0780
26788W        W47068  10.203   1.505  10.380  0.1601  0.1606  0.1836
26789W        W47069  18.999  13.183   0.010  0.1960  0.0782  0.1551
26790W        W47070   8.843  14.431  13.086 -0.1941 -0.1189 -0.1138
26791W        W47071   5.917   7.438  13.834 -0.1528  0.1390  0.2321
26792W        W47072  17.105   0.112  13.478 -0.0085 -0.3747 -0.0457
26793W        W47073   5.029  16.125   0.242 -0.2012 -0.0153  0.0110
26794W        W47074   4.841   1.836  11.006  0.0870  0.3446 -0.1863
26795W        W47075   4.448  12.056  10.839  0.2611  0.0342 -0.0274
26796W        W47076   2.698   2.137  13.581 -0.2830 -0.1221  0.1978
26797W        W47077  13.925  11.616   1.242 -0.0163 -0.0940 -0.0534
26798W        W47078  11.740  12.972   4.051 -0.0273 -0.4818  0.0428
26799W        W47079  10.150  18.043  11.164  0.0419 -0.2072 -0.5454
26800W        W47080   5.715  15.086  13.272  0.0028 -0.1043 -0.3859
26801W        W47081   5.972   4.995   3.212  0.0855 -0.2455  0.2007
26802W        W47082   8.165  13.628  10.787  0.3740 -0.0108 -0.0583
26803W        W47083  10.445   5.674   2.628  0.1114  0.0980 -0.2115
26804W        W47084   8.780   7.263  13.619 -0.0905 -0.0079  0.1611
26805W        W47085   6.398   0.383  11.537 -0.1790  0.0314  0.2249
26806W        W47086   2.443  12.113   3.186  0.0014 -0.1178  0.2971
26807W        W47087   1.225  12.607  10.851  0.0314  0.1683 -0.0491
26808W        W47088   4.846  15.593   4.478 -0.0252  0.1038 -0.0551
26809W        W47089  10.443   6.618   4.007 -0.1319 -0.1254 -0.0146
26810W        W47090  17.020  16.036   3.910  0.3452  0.0566 -0.0814
26811W        W47091  18.428  14.548   9.849  0.2102 -0.2307 -0.2531
26812W        W47092   1.346   4.681  12.136 -0.4294 -0.0725  0.1260
26813W        W47093   5.135   3.381   0.323 -0.1235  0.1301  0.0318
26814W        W47094  10.510   9.371  13.003  0.0592 -0.2481  0.0417
26815W        W47095  18.349  18.093  11.563  0.3027 -0.0392 -0.0671
26816W        W47096  17.733  15.740  10.593  0.0668 -0.1534 -0.3286
26817W        W47097  12.279   6.327  13.074  0.3485  0.0475  0.1702
26818W        W47098  11.256   9.562  13.822 -0.1317 -0.0847  0.1612
26819W        W47099   7.613  18.631   0.097 -0.1049 -0.3298 -0.0529
26820W        W47100  19.471  17.283   3.548 -0.0745 -0.0917 -0.1582
26821W        W47101   0.236  17.002   5.046 -0.1410 -0.2448  0.0798
26822W        W47102   1.423   6.150   1.062 -0.3402 -0.3601 -0.0503
26823W        W47103   0.832  14.031   0.033  0.0254  0.1312  0.2088
26824W        W47104  18.965   0.393  13.743 -0.2804 -0.0862 -0.0909
26825W        W47105   3.536   6.343   1.138 -0.1372 -0.0716 -0.1080
26826W        W47106  16.825   1.695   1.452 -0.0595 -0.1395 -0.1850
26827W        W47107  12.095  15.720  13.795  0.2004  0.2360 -0.5571
26828W        W47108   3.082   2.817  11.771  0.0654  0.0761 -0.2377
26829W        W47109   1.151  13.066   1.747 -0.3035  0.0122  0.0339
26830W        W47110   2.223   3.365   4.074  0.1484 -0.0649 -0.2426
26831W        W47111  17.019  16.455   0.533  0.0319  0.2777 -0.0586
26832W        W47112   9.029  19.229  11.862 -0.3521 -0.1846  0.2369
26833W        W47113   0.877   4.737  12.408  0.0180 -0.1491 -0.0775
26834W        W47114   9.823  15.241  11.443 -0.2272  0.0740  0.0440
26835W        W47115  18.325   8.391   2.179 -0.0507 -0.1242  0.0841
26836W        W47116   4.043   2.009   3.890  0.0934  0.1818  0.1066
26837W        W47117   4.263   2.276   2.539 -0.0286 -0.0760 -0.0312
26838W        W47118  14.552   8.992  11.074 -0.0860 -0.0605  0.1842
26839W        W47119   7.033   3.157   3.714 -0.0005 -0.1786  0.0201
26840W        W47120  14.049   7.776   3.557 -0.1690 -0.0201  0.0016
26841W        W47121   1.367   0.324  10.637 -0.1055  0.0378  0.1854
26842W        W47122   8.918  11.857  13.644  0.2228 -0.1524 -0.2941
26843W        W47123   2.495  19.391   3.902  0.0263  0.1307 -0.1505
26844W        W47124  10.146  16.718   0.991 -0.0219 -0.1703  0.1644
26845W        W47125  15.711   5.759   0.611  0.1674  0.2794 -0.2148
26846W        W47126   3.703  14.103   2.979 -0.0646 -0.0532 -0.1289
26847W        W47127  13.341  17.012  11.135 -0.0545  0.2439  0.0959
26848W        W47128   8.599  16.802  13.501 -0.2177  0.0293  0.1468
26849W        W47129   1.966   5.512   0.271  0.1960 -0.1506 -0.1485
26850W        W47130   1.908   3.801   3.850  0.0109 -0.1017 -0.3038
26851W        W47131   1.796   3.959   0.960 -0.0074  0.1768 -0.1959
26852W        W47132  12.875  11.318  12.487 -0.2717  0.1739  0.2362
26853W        W47133  10.688   6.133   3.252 -0.0116  0.2829  0.0034
26854W        W47134  14.659  15.108   1.062 -0.0163 -0.3550 -0.3449
26855W        W47135   8.825   7.428  11.401 -0.0972  0.1005  0.0762
26856W        W47136   2.314   5.044   4.960  0.3321  0.1951 -0.0800
26857W        W47137   8.424  11.380  11.810 -0.2674 -0.0769  0.3977
26858W        W47138   3.958  17.406   4.014 -0.1270 -0.1353 -0.1506
26859W        W47139  17.167  16.481   1.299  0.1214  0.1973  0.0261
26860W        W47140   6.630  11.134   2.568 -0.2870  0.0282 -0.3206
26861W        W47141  12.794   2.051   9.573 -0.2114  0.1033  0.1229
26862W        W47142  10.733  10.834  10.784 -0.0200  0.1743 -0.0150
26863W        W47143   2.352  16.326  13.749  0.1858  0.0433 -0.3564
26864W        W47144   8.022   3.228   2.325  0.1774  0.1258 -0.1603
26865W        W47145   8.384  11.965  11.143  0.0184 -0.0105 -0.1485
26866W        W47146   4.413  13.488  12.187 -0.2459  0.0662 -0.1881
26867W        W47147  14.037  13.491  11.717  0.3746 -0.0610  0.2801
26868W        W47148  17.073   8.430   0.445 -0.4176  0.2841 -0.0153
26869W        W47149  14.834   7.757   0.126 -0.1052  0.2823  0.3805
26870W        W47150   9.636  11.163  10.392 -0.1335 -0.0382  0.2659
26871W        W47151   1.671   6.640   0.477 -0.1351  0.1043  0.0120
26872W        W47152   3.529  17.385  11.942 -0.0045  0.0508  0.1039
26873W        W47153  16.984  17.651   0.159  0.2069 -0.1401  0.0219
26874W        W47154   4.184  16.400   1.776 -0.1233 -0.0301  0.0589
26875W        W47155  14.151  12.454   0.725 -0.1017 -0.4229 -0.0754
26876W        W47156   0.765  16.704  13.754  0.1691 -0.0370  0.0413
26877W        W47157   9.319  17.210  12.418 -0.1036 -0.4338  0.0084
26878W        W47158  13.721  17.150  12.843 -0.0927  0.2288  0.3583
26879W        W47159   3.725  12.696  12.060  0.1614  0.0574  0.1232
26880W        W47160  13.233   5.049  10.922  0.0290 -0.2622  0.3364
26881W        W47161   5.704  14.759   9.759  0.0016  0.1826 -0.0302
26882W        W47162  17.014  18.574   1.516 -0.2349  0.1249  0.0855
26883W        W47163   7.702  14.469   3.038 -0.3169 -0.1485  0.0252
26884W        W47164   3.367  12.248  11.947  0.0600 -0.0540  0.0028
26885W        W47165   8.797   0.735  13.803 -0.3880  0.1420 -0.3964
26886W        W47166   2.177   0.670   3.066  0.0314 -0.0030  0.0170
26887W        W47167   6.885  12.724   1.468 -0.1771 -0.3818  0.2112
26888W        W47168   0.054  11.207  11.208  0.1329  0.3438 -0.0530
26889W        W47169   7.988  18.895   1.123 -0.0755  0.0992 -0.0146
26890W        W47170  19.136   4.796   1.042 -0.1138 -0.6328  0.0144
26891W        W47171   2.480  14.219   2.596 -0.1003  0.3070 -0.2425
26892W        W47172  13.319   4.973   3.547 -0.0579  0.2855  0.1417
26893W        W47173   2.019  15.104   1.269  0.2332  0.1516  0.3042
26894W        W47174  17.563  14.674   0.655  0.0131 -0.2043 -0.4691
26895W        W47175   5.829   0.955   4.284 -0.1151  0.0068 -0.0896
26896W        W47176   2.182   5.695  13.336 -0.3285 -0.2022  0.1871
26897W        W47177   3.058   7.844  12.339  0.2252  0.2890  0.0739
26898W        W47178  17.161  12.533  13.277 -0.1481  0.2267  0.0739
26899W        W47179   8.893  15.831  13.742  0.0136 -0.1686 -0.0697
26900W        W47180   2.340  10.224  11.525  0.1066 -0.2547 -0.0609
26901W        W47181  12.048  14.757   0.359 -0.1039  0.0770  0.1394
26902W        W47182   6.656   9.710   1.667 -0.0926  0.0528  0.0699
26903W        W47183   6.807   0.575  13.603 -0.1482 -0.0388 -0.1536
26904W        W47184  16.723  16.221   2.265  0.2345 -0.1353 -0.1825
26905W        W47185  10.711   1.920  13.157 -0.0292 -0.0085  0.1038
26906W        W47186  17.775   8.637  10.032 -0.3837 -0.1031  0.1662
26907W        W47187   7.692   3.581  13.432  0.1093  0.0485 -0.0170
26908W        W47188  18.799  14.849   4.124 -0.0185 -0.1940 -0.0739
26909W        W47189   4.724   2.679  12.214 -0.4264  0.0841  0.0880
26910W        W47190   7.494   9.617  11.517 -0.0798 -0.0690  0.1783
26911W        W47191  14.675   7.112   2.552  0.0395 -0.3556 -0.0540
26912W        W47192  14.257   7.958   9.965  0.1213 -0.1389 -0.2117
26913W        W47193   8.692   2.672   2.754  0.1430 -0.2124  0.0347
26914W        W47194  19.326   3.027  12.735  0.0164 -0.0442 -0.0598
26915W        W47195   4.214  15.694  10.333 -0.0579  0.2774 -0.0156
26916W        W47196  11.708  11.488   5.056  0.2227 -0.1138 -0.2895
26917W        W47197  18.574   4.507  12.656  0.2466  0.0859 -0.3669
26918W        W47198   9.335   5.472  12.428  0.3973 -0.2271  0.2379
26919W        W47199   9.602   0.656  12.884 -0.0966  0.1519 -0.5255
26920W        W47200   6.421   0.776  10.696 -0.2378  0.1590 -0.1203
26921W        W47201   7.865  16.708  11.504  0.2094  0.0087 -0.4211
26922W        W47202  10.678   8.946  12.660 -0.1243 -0.3998 -0.4201
26923W        W47203  17.822   2.654  12.422 -0.2395  0.2162 -0.1421
26924W        W47204   7.330   7.657  12.195 -0.1441 -0.1575  0.0962
26925W        W47205   7.027   6.935  12.801  0.1283 -0.2467  0.0809
26926W        W47206  12.965   3.184   1.960 -0.0048  0.1169 -0.0865
26927W        W47207   6.269   7.855  12.491  0.2977 -0.0170  0.1703
26928W        W47208  15.527   0.456   4.648 -0.0231 -0.0821  0.0175
26929W        W47209   0.421   9.693   2.191  0.2134 -0.3332 -0.1260
26930W        W47210   5.389   3.926   0.949 -0.0113  0.0637 -0.3159
26931W        W47211  11.008  15.829  12.200  0.0911  0.0109 -0.0465
26932W        W47212  15.367  11.176  11.315  0.1612 -0.0111 -0.2017
26933W        W47213   9.739   3.844  13.096  0.1667 -0.2400  0.4233
26934W        W47214  17.497  15.389  12.473  0.2872 -0.0375 -0.0678
26935W        W47215  13.735   6.061  10.897 -0.3111 -0.2277 -0.4354
26936W        W47216   4.012  14.758  12.252  0.0432 -0.0887 -0.2458
26937W        W47217   8.849  17.450  10.930 -0.1853  0.1625  0.0745
26938W        W47218  12.975   0.340   3.692  0.1211  0.3159 -0.3463
26939W        W47219  19.431   0.165   3.319 -0.0955  0.0252 -0.0383
26940W        W47220  13.650  10.906   3.934  0.3301 -0.0254 -0.2629
26941W        W47221  10.727  14.284   0.828  0.2220  0.1558  0.0013
26942W        W47222   7.706  18.041  11.826  0.0456 -0.0709 -0.2182
26943W        W47223   5.112   4.889  13.793 -0.2424  0.1095 -0.2920
26944W        W47224   7.501   8.258  11.929  0.1019  0.2030 -0.0588
26945W        W47225  11.811   9.424   3.340 -0.0486 -0.0624  0.1025
26946W        W47226  19.207   0.066  11.841  0.2987  0.1217  0.3851
26947W        W47227  14.196   7.264   1.185  0.1828 -0.1670 -0.1949
26948W        W47228   7.065   2.894   2.287 -0.0199  0.1628  0.2628
26949W        W47229   1.957  13.150  12.443  0.0801 -0.0810  0.3847
26950W        W47230   3.206  11.373   2.681  0.2228  0.1966 -0.2035
26951W        W47231   6.084   8.162  12.066 -0.0687  0.0441 -0.1524
26952W        W47232  13.391   4.671  12.535  0.0083  0.1674 -0.1694
26953W        W47233   3.156   8.488  10.732 -0.2821 -0.0226 -0.0142
26954W        W47234  13.477  19.261  13.718 -0.0195 -0.1760  0.1776
26955W        W47235  15.014  15.035  12.569  0.1476 -0.1690 -0.0855
26956W        W47236  17.346   4.868  10.056  0.2304 -0.0534  0.1154
26957W        W47237   3.939  12.737   2.321  0.0197  0.0452 -0.2528
26958W        W47238  10.291  11.366  12.994 -0.0565  0.0202 -0.1481
26959W        W47239   1.047  19.577   1.561  0.0146  0.0929 -0.1626
26960W        W47240  10.056  12.223  12.835 -0.1287 -0.1138  0.0718
26961W        W47241  19.886  14.030   0.449 -0.2703 -0.0847  0.3900
26962W        W47242  14.090  17.744  13.291  0.0945  0.1181 -0.1313
26963W        W47243  14.323  18.393   1.584  0.0401 -0.0704 -0.1751
26964W        W47244   0.348  16.806  12.879  0.2218  0.1832  0.1253
26965W        W47245  10.827  13.711  13.806  0.0318 -0.0970 -0.1791
26966W        W47246  16.180  17.105   1.950  0.1727 -0.0001  0.3297
26967W        W47247  10.739   4.034  12.875  0.0908  0.2718  0.1472
26968W        W47248  13.399   1.713  11.150  0.0647  0.2124 -0.0237
26969W        W47249   5.960   7.039  11.119  0.1648 -0.1775 -0.1604
26970W        W47250   2.097   0.103   2.805 -0.1657  0.0480  0.1789
26971W        W47251   8.109  12.388  11.554 -0.0408 -0.2366  0.0277
26972W        W47252   9.696   9.112   0.980  0.0897  0.2824  0.3031
26973W        W47253   9.844  14.257  11.700 -0.1081  0.1037  0.0655
26974W        W47254  11.550   3.787  10.154  0.1513 -0.2438 -0.3441
26975W        W47255  19.338  16.238  11.831  0.1130  0.0895  0.3032
26976W        W47256  18.237  10.011  10.306 -0.2439  0.1570 -0.2353
26977W        W47257  19.381  11.579   0.240 -0.1032  0.1823  0.2345
26978W        W47258  18.251  19.592  12.719  0.1658  0.0870 -0.2050
26979W        W47259  10.140  12.282   3.012 -0.0948  0.1888 -0.2325
26980W        W47260  14.743   4.550   0.874 -0.1569  0.2983 -0.0295
26981W        W47261   0.658  17.134  13.628  0.0889 -0.1926 -0.0044
26982W        W47262  16.790  15.715  10.197  0.1300 -0.1043  0.3365
26983W        W47263   9.253   6.180   9.912 -0.1352  0.0522 -0.2706
26984W        W47264  18.108   7.761   9.639  0.1756  0.1827  0.0735
26985W        W47265   9.679  11.064  11.339 -0.1249 -0.1047  0.0362
26986W        W47266  16.722  15.043   3.670  0.4353  0.1816 -0.2741
26987W        W47267   8.879  15.946   1.087  0.0008  0.2038 -0.1851
26988W        W47268   9.891   2.317  11.859 -0.1879 -0.1879 -0.2305
26989W        W47269   5.081   9.785   1.695  0.0811  0.1129  0.0002
26990W        W47270  13.133  19.496   0.735  0.1543  0.3006 -0.1773
26991W        W47271   3.708   9.239   0.400 -0.0970  0.0235  0.1727
26992W        W47272  14.152   3.528   1.445 -0.0987  0.2434 -0.3387
26993W        W47273   2.689  16.946   3.931  0.0609  0.1712 -0.4574
26994W        W47274   9.784   1.007   1.911  0.1683  0.0718  0.1010
26995W        W47275   8.191   4.357   0.520  0.3907 -0.0067  0.0854
26996W        W47276  17.505  18.013   0.645  0.0851 -0.0220 -0.0696
26997W        W47277  13.618   7.254   9.129  0.0654 -0.2834  0.1349
26998W        W47278  10.588  12.011   1.452  0.1440  0.1578  0.0270
26999W        W47279  10.202  12.808   1.964  0.0711 -0.1214  0.0553
27000W        W47280   6.112   9.169   2.920 -0.0553 -0.2402 -0.2712
27001W        W47281   2.659  10.624   0.912  0.0912 -0.1120 -0.1097
27002W        W47282  19.539   8.667  13.515 -0.1819  0.2860  0.2288
27003W        W47283  17.991   9.855   2.602  0.0576  0.0751  0.0214
27004W        W47284  17.974   7.305  10.544 -0.1077 -0.0710  0.0899
27005W        W47285  17.404   2.875   3.730 -0.0654 -0.0249 -0.2114
27006W        W47286   5.770  19.259   0.080  0.0692 -0.1521  0.1189
27007W        W47287   2.829  11.626   0.750 -0.2076 -0.1990 -0.2742
27008W        W47288  14.866  11.164   3.217  0.4382  0.1062 -0.0467
27009W        W47289  14.312  18.360   2.066  0.1892  0.0997 -0.2337
27010W        W47290  18.126   9.375  10.760  0.0071  0.0023 -0.1053
27011W        W47291   4.845  11.418   4.048  0.0032 -0.1468 -0.0244
27012W        W47292   7.567  11.964   3.872 -0.0822 -0.0851  0.0774
27013W        W47293   1.000  14.147   1.174  0.1437  0.0729  0.2404
27014W        W47294   5.447   1.264   4.178 -0.0161 -0.1083 -0.0626
27015W        W47295  13.967   3.047   3.423  0.2222 -0.3843  0.1374
27016W        W47296   1.460  15.618  10.845  0.1676  0.2466 -0.3503
27017W        W47297   3.373  11.289  12.791  0.2202 -0.0167  0.1285
27018W        W47298  12.683   4.577   0.247  0.1688 -0.1582 -0.1430
27019W        W47299  18.352  11.015  12.954 -0.1818 -0.3270 -0.0536
27020W        W47300  10.821  17.896   4.403 -0.1169  0.1516  0.2121
27021W        W47301  14.827  15.428  13.439  0.4086  0.3574  0.2901
27022W        W47302   4.311  15.200  10.966 -0.1302 -0.0502  0.0509
27023W        W47303  19.601  14.933   0.093 -0.4450  0.3678 -0.1301
27024W        W47304  10.789  10.721   1.713 -0.0445  0.1781  0.0712
27025W        W47305  13.997   8.054   3.977  0.1673 -0.0405 -0.0550
27026W        W47306  11.385   7.836   1.351  0.2356 -0.1030 -0.1155
27027W        W47307  18.715   8.564  10.726 -0.0923 -0.1434 -0.0325
27028W        W47308  17.498   0.980  12.065  0.0211  0.1425 -0.3331
27029W        W47309  11.903  17.743   3.294  0.0157 -0.0864  0.0817
27030W        W47310  18.031  17.103  13.010 -0.2485  0.1813  0.0989
27031W        W47311  19.337  11.634   1.518 -0.1768  0.1845 -0.1491
27032W        W47312  12.802  16.381  10.966 -0.0987  0.3394  0.0366
27033W        W47313   9.622  11.518   2.904 -0.0509  0.1362 -0.0808
27034W        W47314  17.062   3.352  12.355  0.0395 -0.0847  0.1007
27035W        W47315  19.940  12.210  12.707 -0.1410  0.0571 -0.0271
27036W        W47316   5.836   8.271   9.511  0.4275 -0.3918  0.0102
27037W        W47317  11.447  12.071  11.299  0.0559 -0.3920  0.2502
27038W        W47318   5.171   7.058  13.063 -0.1824 -0.3615 -0.3493
27039W        W47319   9.833  16.040   0.364 -0.3559 -0.4449 -0.0817
27040W        W47320   4.011  18.941   2.734  0.1229 -0.1461  0.1036
27041W        W47321   2.778   1.214   1.054 -0.0500 -0.0988  0.1837
27042W        W47322   4.187   1.472   3.187  0.1830 -0.0415 -0.2958
27043W        W47323   5.934   5.350   1.124 -0.0911  0.0559 -0.1300
27044W        W47324  12.676  11.183   2.967  0.0601  0.3054 -0.2039
27045W        W47325   1.299  19.916   1.186 -0.0200  0.1939 -0.0624
27046W        W47326  13.840  19.651   0.201  0.0444 -0.0230  0.0820
27047W        W47327  19.530  17.675   0.840 -0.2904 -0.1122  0.1646
27048W        W47328   1.528  11.307   3.461 -0.3018 -0.0391  0.3200
27049W        W47329  10.426   2.365  13.763  0.2220  0.3775  0.0058
27050W        W47330  14.463   7.510   2.293  0.0115  0.2708  0.1419
27051W        W47331  18.377  14.049   0.765  0.0731  0.1546  0.0879
27052W        W47332  11.668   4.983   0.053  0.2134  0.0871  0.3885
27053W        W47333  17.077   6.402  12.768 -0.1682  0.2381  0.0568
27054W        W47334   7.285  11.841   1.345 -0.2118 -0.2039  0.4334
27055W        W47335   8.610  16.771   1.012  0.0297 -0.0323  0.1820
27056W        W47336   3.197  13.066  11.525  0.1341 -0.2619  0.0974
27057W        W47337  11.877   6.567  11.423  0.0541 -0.0763  0.0805
27058W        W47338  19.590  12.679  11.569 -0.1424 -0.0612  0.0167
27059W        W47339   0.026  12.337  10.108  0.0545 -0.1722  0.3133
27060W        W47340   5.601   3.133  10.232 -0.1796 -0.3726 -0.1020
27061W        W47341   9.299  10.922   2.174 -0.1315  0.0712 -0.0774
27062W        W47342   9.331   7.343   0.458  0.1289  0.3199 -0.2978
27063W        W47343  13.277   3.411  12.566 -0.2013  0.1512 -0.0863
27064W        W47344  16.506   0.324   0.062  0.1837  0.0507  0.1063
27065W        W47345  13.254  17.656   2.913  0.0808 -0.2692 -0.1394
27066W        W47346  13.113  14.161  11.339 -0.2155  0.2019 -0.1572
27067W        W47347   1.931   3.432  12.697  0.2358  0.1610  0.2555
27068W        W47348  18.978   1.430   3.520 -0.0794  0.0002  0.0944
27069W        W47349  14.715   7.878  10.809 -0.0522 -0.1825 -0.0034
27070W        W47350   1.249   3.882   0.317  0.1780  0.1016 -0.4260
27071W        W47351   8.938  14.246   2.615  0.0847 -0.0727  0.0171
27072W        W47352   2.607  16.964  10.378 -0.0013  0.1870 -0.0621
27073W        W47353  16.540  11.328   1.587 -0.6017 -0.1731  0.0551
27074W        W47354  14.774  12.073   8.965  0.4174 -0.3133 -0.1375
27075W        W47355   3.416   5.425  13.808  0.0722  0.3358  0.0676
27076W        W47356   3.172  18.908   3.169  0.1098  0.0565  0.3600
27077W        W47357   7.079  16.972   2.796 -0.1300 -0.0137 -0.1032
27078W        W47358   6.212   1.147  11.118  0.0019 -0.3939  0.1030
27079W        W47359   2.314  15.985   1.928  0.0323  0.1196  0.2054
27080W        W47360   7.274  18.097  12.697 -0.0695  0.1119  0.0842
27081W        W47361   1.560  16.264   2.057 -0.0477  0.2219 -0.2156
27082W        W47362  11.578  14.502   0.543  0.1638  0.1516 -0.0613
27083W        W47363  15.840   4.767  13.284 -0.0650  0.1305  0.3871
27084W        W47364  17.926   1.751   2.428  0.2213 -0.2025 -0.0668
27085W        W47365  18.784  12.303  12.651  0.0193  0.1066 -0.1439
27086W        W47366   0.466  18.077  11.638 -0.2213 -0.3230  0.4294
27087W        W47367   6.088   5.926  10.827  0.0579 -0.1971  0.2131
27088W        W47368  19.797   2.419   1.504 -0.0979 -0.4970 -0.0957
27089W        W47369   4.817   5.659  13.491 -0.0265 -0.1275  0.1628
27090W        W47370  14.345  13.637  13.760 -0.1100 -0.0106 -0.0784
27091W        W47371  13.992  12.272   1.667 -0.1134 -0.2468 -0.3856
27092W        W47372   8.068  12.899  13.766 -0.0530  0.2360 -0.1200
27093W        W47373   1.924  11.510  11.192 -0.3154 -0.0200  0.1516
27094W        W47374  18.463  14.304   0.326  0.4274 -0.1232  0.1193
27095W        W47375   5.961  18.020  13.634 -0.3617  0.0755 -0.0587
27096W        W47376   1.633  11.411   2.411 -0.1289  0.0008 -0.0822
27097W        W47377  19.180   1.169   0.505 -0.3023  0.1775  0.0288
27098W        W47378   7.086  19.444  11.949  0.0969  0.0045  0.4280
27099W        W47379   4.984   4.137   4.183 -0.0782 -0.1798  0.3633
27100W        W47380  10.328  13.061   1.019  0.0755  0.1104 -0.0137
27101W        W47381  13.843  19.621   2.609  0.3874  0.1325  0.1718
27102W        W47382  14.652  19.169   1.769 -0.1749 -0.3772  0.1292
27103W        W47383   2.294  17.459  11.096  0.0819 -0.0921  0.0231
27104W        W47384   4.883  19.256   0.105  0.0125 -0.4810  0.0485
27105W        W47385   7.944  16.071   0.927  0.3472 -0.1207 -0.0771
27106W        W47386   2.840   9.223   1.196 -0.1933  0.4567 -0.1322
27107W        W47387  11.980  17.390  12.564  0.3776 -0.2583  0.0878
27108W        W47388  17.110   1.352  10.232  0.2224 -0.1621  0.1727
27109W        W47389  13.388  12.960  10.778  0.0998  0.0457  0.1041
27110W        W47390  16.156   4.292  10.437  0.2259  0.2198  0.0096
27111W        W47391  17.810   5.960   1.354 -0.0178 -0.3268 -0.3558
27112W        W47392  10.962  13.745   2.028  0.0443  0.1425 -0.1589
27113W        W47393  16.013   4.788  11.714  0.0928 -0.2073 -0.2402
27114W        W47394  12.877  13.156   2.899 -0.0566 -0.0585  0.3576
27115W        W47395   7.546  16.403  11.878  0.0241  0.1450 -0.2470
27116W        W47396  11.969  13.276   1.643 -0.1093 -0.1505  0.2393
27117W        W47397  10.724  15.106  11.913  0.2731  0.2233  0.1483
27118W        W47398   8.424  12.425   1.305  0.1360  0.0454 -0.0645
27119W        W47399  18.677   0.137  10.459 -0.1393 -0.0926 -0.4588
27120W        W47400  19.177  12.721  10.382  0.0708 -0.1314  0.1232
27121W        W47401  16.577   0.603   2.529 -0.1538  0.1296  0.0292
27122W        W47402  17.276   3.179  10.589 -0.1962  0.4077  0.3130
27123W        W47403   2.123  14.231  11.226  0.0539 -0.0721  0.1463
27124W        W47404   4.624   3.575  12.289  0.2006 -0.0973  0.0860
27125W        W47405  11.916   4.282  13.431 -0.1565  0.4427  0.1637
27126W        W47406  14.560   3.713  11.724  0.2424  0.4155  0.0974
27127W        W47407  12.604   5.299  13.490  0.1486 -0.1650  0.2322
27128W        W47408  11.997   9.971  12.561 -0.0362 -0.0496 -0.0668
27129W        W47409  17.113  18.988  11.242 -0.3100 -0.1814 -0.2150
27130W        W47410   4.947   5.696  10.218  0.1224  0.2508  0.1627
27131W        W47411  17.207  16.029   0.051 -0.1418 -0.1697 -0.2056
27132W        W47412   9.423   9.755  13.650 -0.1235 -0.0516 -0.1828
27133W        W47413   1.251   8.464   2.784  0.1796 -0.3689 -0.2469
27134W        W47414  12.354  13.045  10.679  0.4259  0.0724  0.2391
27135W        W47415  13.439  17.739  13.856  0.2040  0.1448  0.2075
27136W        W47416  18.815   9.183   2.453 -0.1440  0.0815  0.1935
27137W        W47417  11.273   1.563   9.856 -0.1121  0.0220 -0.0340
27138W        W47418  17.165  12.444   8.688  0.1580 -0.0548 -0.4798
27139W        W47419  17.688  19.539   0.035  0.0629 -0.0105  0.0068
27140W        W47420  14.416  13.892   1.515 -0.0255 -0.1444  0.1702
27141W        W47421   2.421  17.206   0.738 -0.2375  0.2499  0.3145
27142W        W47422  10.743   7.513  11.572 -0.1960 -0.1423  0.0349
27143W        W47423  18.499  17.743  10.890 -0.1099  0.1305 -0.0764
27144W        W47424  15.997   3.949   9.048  0.1514  0.1520  0.0796
27145W        W47425  11.266   5.987  11.242  0.3292 -0.3597 -0.1812
27146W        W47426  12.833  12.239   0.086  0.1653  0.0600 -0.1181
27147W        W47427  18.953  18.004  13.533  0.0983 -0.1139  0.2189
27148W        W47428   0.055  17.327   3.445  0.0528 -0.1637 -0.0554
27149W        W47429   9.446   5.284  10.376 -0.2142  0.0635  0.3643
27150W        W47430   4.245   9.958   2.039  0.0914 -0.2262 -0.0608
27151W        W47431   8.396   4.282  12.544  0.0463 -0.1887  0.2318
27152W        W47432  17.925  16.203  10.518 -0.2636  0.0274 -0.0711
27153W        W47433  17.335   4.389   2.052 -0.1204 -0.1757 -0.0507
27154W        W47434  18.313  12.691   0.027 -0.1973  0.2205 -0.0877
27155W        W47435   9.577   8.635   1.074 -0.3166  0.0799 -0.1098
27156W        W47436  18.011   0.461   0.171 -0.2345 -0.1034 -0.0647
27157W        W47437  14.694  18.292  12.006  0.0595 -0.1407 -0.1883
27158W        W47438   6.865   9.995   3.258 -0.0523  0.1314  0.2351
27159W        W47439  19.432   5.250   3.818 -0.1239 -0.1515  0.2513
27160W        W47440  18.595   3.883   0.182 -0.1047  0.4752 -0.1823
27161W        W47441  15.404  14.080   1.466  0.2451 -0.4981  0.1770
27162W        W47442   6.966   1.957  11.970 -0.1426  0.3126  0.2167
27163W        W47443  15.298  12.288  12.192 -0.0932  0.0143  0.2979
27164W        W47444   7.574  17.637   1.056 -0.2948  0.0776  0.2851
27165W        W47445   8.090   9.950   2.331  0.1089  0.1596  0.1140
27166W        W47446   7.118  10.073   1.753  0.2290 -0.2330  0.1577
27167W        W47447   4.613  12.070   0.222  0.2701 -0.3689  0.0835
27168W        W47448   0.345   3.583   0.580 -0.1724 -0.0082  0.0880
27169W        W47449  10.131  12.157   3.510 -0.0920 -0.3250 -0.2491
27170W        W47450   0.617   6.934   3.049  0.0250 -0.1680 -0.2990
27171W        W47451   9.348   3.215   4.030  0.2516 -0.0169  0.0161
27172W        W47452  19.366   6.699  11.965 -0.1728 -0.1279 -0.1259
27173W        W47453   4.565   8.897   0.529 -0.0878  0.0782 -0.1211
27174W        W47454   3.643   4.193  11.367 -0.1282  0.3750 -0.1346
27175W        W47455  10.526   0.830  11.039  0.2004  0.1753 -0.0011
27176W        W47456   1.485   0.647  13.583  0.2368  0.1556  0.0744
27177W        W47457   1.781  14.466  10.715  0.2156  0.0890  0.1646
27178W        W47458  12.421   2.408  11.294 -0.0362 -0.3069 -0.0112
27179W        W47459  14.557   4.312   2.850 -0.2704 -0.0112 -0.1129
27180W        W47460   6.512   9.192   0.264  0.2197 -0.2012  0.0299
27181W        W47461  19.116   7.495   3.607 -0.0790 -0.2774  0.0971
27182W        W47462   0.344   6.367   1.908 -0.3144 -0.0724  0.0000
27183W        W47463  17.596  11.627   2.269 -0.2035 -0.2280  0.2347
27184W        W47464  10.960  17.722  10.215 -0.1406 -0.1220  0.4132
27185W        W47465   5.576   9.812   1.765 -0.0562 -0.1768  0.0754
27186W        W47466   6.130   1.516  11.518  0.3190 -0.0311  0.1819
27187W        W47467  11.202   6.714  13.644  0.0365 -0.0683  0.0226
27188W        W47468   9.051   2.285  13.611  0.2200 -0.1671 -0.0937
27189W        W47469   7.743   7.401  11.792 -0.0002  0.2210 -0.2051
27190W        W47470   7.274  17.706   0.615  0.0114 -0.3805  0.0047
27191W        W47471  12.977   8.617   1.250 -0.0341  0.0975 -0.3328
27192W        W47472  14.114  19.231  10.679  0.0297 -0.1481 -0.0065
27193W        W47473  18.939  18.474   0.778 -0.1577  0.0213 -0.0935
27194W        W47474  19.387  18.028   3.848  0.3525 -0.2208 -0.0164
27195W        W47475  17.182   0.061   0.453  0.1484 -0.0080  0.1411
27196W        W47476   1.170   1.284  10.893 -0.0685  0.0331 -0.1910
27197W        W47477  11.430  12.570  11.469 -0.3291 -0.2018 -0.1861
27198W        W47478   4.377   9.104  13.442 -0.1044 -0.0722 -0.1391
27199W        W47479  12.387   8.368   3.413  0.0257 -0.2438  0.2566
27200W        W47480  18.777   1.570  12.032 -0.4532 -0.0867 -0.2685
27201W        W47481   5.478  10.865   3.655 -0.5943 -0.1752 -0.1230
27202W        W47482  10.527   5.178   2.357 -0.3460 -0.0500 -0.0057
27203W        W47483   8.109   8.542  11.255  0.0866  0.0393  0.2611
27204W        W47484  18.618   5.941   2.755 -0.3510 -0.1938 -0.1606
27205W        W47485  17.957  19.903  10.223 -0.2591  0.0173  0.1859
27206W        W47486  10.070   0.678   9.295  0.2812 -0.2666  0.3438
27207W        W47487  17.142   8.921  13.015 -0.0602  0.0592  0.4466
27208W        W47488  13.727  19.593  10.552  0.1450 -0.2549 -0.1841
27209W        W47489   9.375  17.281   1.246 -0.0511 -0.0162  0.2563
27210W        W47490  19.924   5.260  12.950 -0.0609 -0.0179  0.1779
27211W        W47491   5.340  18.786  13.354  0.3097  0.0093 -0.1015
27212W        W47492  19.037  17.763   4.733  0.3319 -0.1039 -0.0236
27213W        W47493   0.485   6.434  11.947  0.0675  0.0314  0.1600
27214W        W47494  16.822   6.504   8.592 -0.1581 -0.0737  0.2197
27215W        W47495  15.179   4.628   1.295 -0.4820  0.2538 -0.0860
27216W        W47496   5.134   4.344   1.764  0.0770  0.2507 -0.1376
27217W        W47497  11.935   8.932   3.449 -0.0349  0.0957 -0.0427
27218W        W47498   5.802  19.320   2.109  0.0532 -0.4807  0.2491
27219W        W47499  11.303   9.559  13.156 -0.0947  0.0188  0.1564
27220W        W47500  17.837   8.386   2.079  0.2164  0.0733 -0.0303
27221W        W47501   6.518  17.477   2.720 -0.2000 -0.0215  0.4228
27222W        W47502  11.114  13.359   0.064 -0.0006  0.0348 -0.4113
27223W        W47503   0.346   9.443  11.241 -0.0027 -0.1661 -0.1501
27224W        W47504  16.205  18.590  12.774 -0.1672  0.3214 -0.0021
27225W        W47505   8.430  18.510   0.247 -0.1065  0.1856 -0.1559
27226W        W47506   7.522   8.383   1.945 -0.0398  0.1907  0.0112
27227W        W47507   6.681  12.122  12.603 -0.0557 -0.0798  0.1394
27228W        W47508   8.604   4.047  11.558 -0.0436 -0.1707  0.0405
27229W        W47509  16.958   8.552   0.923 -0.1419 -0.0429  0.2266
27230W        W47510  15.063  10.748  10.442  0.0542  0.0577  0.1565
27231W        W47511  10.104   7.065  13.694 -0.0215 -0.0000 -0.1170
27232W        W47512   9.730  11.543   3.412 -0.2873 -0.4462  0.2478
27233W        W47513  13.181   4.604   4.257  0.2581  0.1283 -0.3655
27234W        W47514   4.569  15.683  10.846  0.1192  0.4502  0.0552
27235W        W47515   8.509  15.822   1.702  0.0605  0.0019 -0.1646
27236W        W47516   7.028  14.813   2.269 -0.3039  0.0328 -0.3510
27237W        W47517   6.590  17.598  12.850 -0.2634 -0.0121 -0.2133
27238W        W47518  17.095  19.086  13.244 -0.2425 -0.1750  0.0560
27239W        W47519  16.201  14.653  11.028 -0.1081 -0.2234  0.4312
27240W        W47520  18.080   6.840   1.085  0.0469  0.0896 -0.2613
27241W        W47521   7.623  14.048   1.548 -0.2754  0.2531 -0.4759
27242W        W47522  14.131  17.793   3.264  0.0024  0.0409 -0.0412
27243W        W47523   0.886  12.531  10.342 -0.1259  0.1804 -0.1395
27244W        W47524  16.345  11.500   0.261  0.0721 -0.0389 -0.0071
27245W        W47525  10.301   9.666  10.569 -0.1160 -0.0807 -0.3695
27246W        W47526   6.143  16.086  10.637  0.0525  0.1696  0.1599
27247W        W47527  12.310  16.147   1.701 -0.0980 -0.2414  0.0346
27248W        W47528   4.318   9.942  10.947 -0.1422 -0.0058  0.0041
27249W        W47529   6.389  19.144  13.509 -0.3700  0.3408  0.1084
27250W        W47530  18.278  12.751   1.662  0.2427 -0.0123 -0.3913
27251W        W47531   2.421   9.240   3.143 -0.2966 -0.0501 -0.1211
27252W        W47532   6.826   6.255  10.546  0.0728  0.1852 -0.0538
27253W        W47533   4.472   9.556  13.823 -0.1320 -0.2634  0.0797
27254W        W47534  14.187  19.407   1.777  0.0760 -0.0835 -0.3252
27255W        W47535  13.128   4.092   2.324  0.2978 -0.1091  0.1594
27256W        W47536  15.475  19.759  12.526 -0.2474 -0.1551 -0.3045
27257W        W47537  10.556  19.245  12.869 -0.0452  0.0803 -0.3875
27258W        W47538  15.741  13.205   2.264  0.1413 -0.1999  0.0063
27259W        W47539   5.064  11.450   1.103  0.0203  0.1060  0.1185
27260W        W47540  15.777   9.320   2.139  0.1277  0.0702 -0.1946
27261W        W47541  19.158   0.784   0.199 -0.0927 -0.5754 -0.2941
27262W        W47542  12.744   0.251  13.447 -0.1060 -0.5630 -0.0836
27263W        W47543   4.796  18.828   3.318 -0.0158  0.2262 -0.1453
27264W        W47544  10.376   1.904   4.897  0.1932 -0.0398  0.0108
27265W        W47545   6.005  17.399   3.644 -0.0542 -0.0912  0.0946
27266W        W47546  15.474   1.506   0.418 -0.0606 -0.0605  0.0112
27267W        W47547   0.031  16.809  12.398  0.0228 -0.1153  0.1317
27268W        W47548  15.495  13.630   2.294  0.1854 -0.0964  0.0328
27269W        W47549   6.423   9.581  10.169  0.2181  0.2101 -0.0185
27270W        W47550  19.105   9.345  10.474 -0.0883 -0.0445 -0.0633
27271W        W47551  11.876  12.182   3.820  0.1844  0.0604 -0.0778
27272W        W47552   7.096   6.633  13.514 -0.2037  0.0090  0.1557
27273W        W47553   6.646   8.646   0.836  0.2542  0.1506 -0.0973
27274W        W47554   6.841  17.063  11.425  0.0112 -0.1315  0.0645
27275W        W47555  13.027  16.540   2.591  0.2346 -0.1318 -0.0513
27276W        W47556  18.907   7.347   1.695 -0.1486 -0.0621 -0.0509
27277W        W47557   2.977   0.858   0.213  0.0002  0.1329  0.1305
27278W        W47558  10.936   4.323   1.775 -0.1834  0.1546  0.2440
27279W        W47559   8.869  10.331  11.410 -0.3074  0.2099  0.1316
27280W        W47560   3.113  19.089   0.830 -0.0081  0.2686 -0.0711
27281W        W47561   4.918  18.181   3.795 -0.0150 -0.0368  0.0000
27282W        W47562  13.906   2.572   3.469 -0.2459  0.1054 -0.1292
27283W        W47563  12.583   7.684   2.041 -0.2241 -0.1936  0.0704
27284W        W47564   1.001   2.994   3.123 -0.2189  0.0096  0.1568
27285W        W47565  17.787   6.683  12.541 -0.0668 -0.0288  0.1261
27286W        W47566   7.233   2.663  12.565  0.2235  0.0052 -0.0605
27287W        W47567  12.664  17.564  11.283  0.0570 -0.2153  0.1807
27288W        W47568   9.670  16.412   3.936  0.1532 -0.0944  0.2284
27289W        W47569  16.152  16.619  11.401  0.0301 -0.0270  0.1227
27290W        W47570  10.192  16.669  12.064 -0.0818 -0.0764  0.1976
27291W        W47571   6.525   8.856   3.472  0.4055  0.1393 -0.0570
27292W        W47572  15.714  14.591  12.043  0.2124  0.3220 -0.0586
27293W        W47573  16.416   4.332   2.005  0.0272  0.2045  0.0780
27294W        W47574  18.699  15.327  11.888  0.1457  0.1924  0.0680
27295W        W47575  19.576   8.426   0.345  0.0701 -0.0380  0.0203
27296W        W47576  12.782  19.012  13.560  0.1150  0.0874 -0.0684
27297W        W47577   3.618   6.831  12.178  0.0842  0.0603  0.1230
27298W        W47578  18.625  16.046  11.204 -0.0183  0.0368  0.1146
27299W        W47579   4.986  10.087   4.045  0.0060 -0.0297  0.3099
27300W        W47580   4.961  10.204   1.477 -0.1635  0.0473  0.1435
27301W        W47581   3.250  17.289   3.128 -0.1317  0.1359  0.1607
27302W        W47582   2.433  19.180  12.087  0.0347 -0.0454 -0.0098
27303W        W47583   4.898  13.562  11.902 -0.0344 -0.1389  0.2511
27304W        W47584  12.442   4.124  11.654  0.1771  0.2385  0.0881
27305W        W47585  10.804   5.184   4.288  0.0428  0.1680  0.3475
27306W        W47586  11.732  14.835  12.396  0.0373  0.1713 -0.1061
27307W        W47587  15.341   4.237  12.298  0.0186 -0.2111 -0.0277
27308W        W47588   4.267   3.327   1.657 -0.0807  0.1870 -0.0929
27309W        W47589   5.933  17.138   1.068  0.1276  0.0563  0.3023
27310W        W47590   6.942  13.023   1.857 -0.1788  0.2564  0.1442
27311W        W47591   2.362   1.212   3.477 -0.3166 -0.1247 -0.0194
27312W        W47592   9.454  19.146  13.450  0.1298  0.1918  0.0145
27313W        W47593   8.902   5.656   2.713 -0.1686 -0.1337  0.4636
27314W        W47594   6.949   9.684  12.320 -0.1238 -0.0110 -0.2878
27315W        W47595  11.990  12.071  11.231  0.0140  0.2573 -0.0880
27316W        W47596   8.292   1.191   1.165  0.0652 -0.1624  0.2120
27317W        W47597  14.950   2.716  12.548 -0.1610  0.1208  0.1674
27318W        W47598  11.326   5.010   3.836  0.1216 -0.1720 -0.0051
27319W        W47599   9.042  14.817   0.079 -0.1008 -0.1056 -0.1104
27320W        W47600  15.821   1.798  13.015 -0.1267  0.1698 -0.1219
27321W        W47601  11.806   2.654   3.147 -0.1425 -0.2062 -0.0066
27322W        W47602   8.364   2.687   3.661  0.1064 -0.0948  0.4021
27323W        W47603  18.851  14.629   9.497 -0.5078  0.0725 -0.1849
27324W        W47604  16.151  14.772   2.120  0.1590 -0.0969  0.1629
27325W        W47605  12.491   6.120  11.208  0.0319  0.0912 -0.3129
27326W        W47606   3.445  19.022  11.636  0.2128  0.2531 -0.0709
27327W        W47607   9.102   2.914   0.451  0.1666 -0.1453  0.0018
27328W        W47608   4.904  18.962   1.439  0.3293 -0.1148  0.1320
27329W        W47609   4.418   3.004   3.356  0.2425  0.1468  0.2101
27330W        W47610  14.471  15.838  12.722  0.1108 -0.3528 -0.0616
27331W        W47611  13.427   8.683  11.764  0.2609 -0.1286 -0.2103
27332W        W47612   6.878  13.308   2.710  0.0889 -0.0606 -0.0381
27333W        W47613   7.404   3.500  11.851  0.2309  0.0650  0.1463
27334W        W47614  16.621   7.174  11.855  0.0893 -0.0209 -0.2702
27335W        W47615  16.726   3.744  13.783  0.2463  0.1857 -0.0535
27336W        W47616   2.176   0.921   2.327  0.0229 -0.2074 -0.2045
27337W        W47617  11.495  18.991   1.471 -0.0589 -0.0377  0.0015
27338W        W47618  13.991  11.596  11.077 -0.2749  0.0977 -0.3308
27339W        W47619   5.109   6.254   3.197 -0.0078 -0.1056  0.2414
27340W        W47620  12.424  15.493   2.366 -0.1319  0.0123 -0.1800
27341W        W47621   9.023  13.875  13.290 -0.0220 -0.1022  0.1298
27342W        W47622   0.615   8.106   2.304  0.3928 -0.2131 -0.0025
27343W        W47623  19.290  16.627  10.588  0.0894  0.0021  0.0386
27344W        W47624  11.314  10.606  11.866 -0.1898 -0.0696  0.6128
27345W        W47625  17.865   3.678   0.536  0.1641  0.1281 -0.0872
27346W        W47626  13.631  12.443   1.344  0.2110  0.0982  0.1091
27347W        W47627  11.311   2.399  13.658  0.1132  0.1586  0.0748
27348W        W47628   8.932  17.842  11.231  0.2647 -0.1566  0.1856
27349W        W47629   6.274   5.710   1.014 -0.3381  0.0120 -0.1836
27350W        W47630   6.445   3.284  11.350 -0.2681  0.0828 -0.2585
27351W        W47631   3.125  12.918   0.611 -0.1482 -0.0312  0.1457
27352W        W47632   3.433   3.500  10.314 -0.3721  0.1384 -0.0447
27353W        W47633  14.057   9.220   2.643  0.2350 -0.0807  0.0829
27354W        W47634   6.029  19.030   2.503  0.0006 -0.0650  0.1093
27355W        W47635   4.838  15.093   3.654 -0.0852  0.1171  0.1789
27356W        W47636  17.220   5.361   2.464  0.1366  0.2366 -0.1968
27357W        W47637  15.366  12.221   2.044  0.2475 -0.0985  0.1140
27358W        W47638   8.587   7.844   3.789 -0.3402  0.1485  0.0507
27359W        W47639  16.925   5.837  10.823  0.0335  0.1395  0.2146
27360W        W47640  17.555   1.017   8.814 -0.0323 -0.1144  0.1543
27361W        W47641   3.476  16.260   2.015 -0.2304 -0.0220 -0.1011
27362W        W47642  11.795   6.892  10.199 -0.1398  0.0832 -0.0597
27363W        W47643   4.061  11.949   2.414 -0.2496 -0.1529  0.1591
27364W        W47644  17.984   8.952  12.123  0.1441  0.0895 -0.3181
27365W        W47645  16.473   5.012  11.467  0.1151  0.1969  0.1091
27366W        W47646  11.558   1.568  12.419 -0.0163 -0.0846 -0.2558
27367W        W47647  16.482  10.291  13.637  0.0631  0.1825  0.0376
27368W        W47648   1.846  18.105  13.237 -0.0599  0.0563 -0.0427
27369W        W47649  13.760  12.818  12.923  0.0834 -0.0342 -0.1961
27370W        W47650  14.423  11.205  11.353 -0.1733  0.1793  0.2836
27371W        W47651  17.361   0.974  13.290 -0.1773 -0.0167  0.2289
27372W        W47652   6.706  17.488  13.310 -0.0274  0.0335 -0.0548
27373W        W47653   4.181  10.514  11.898 -0.0456  0.0161 -0.0061
27374W        W47654   5.841  18.684  11.289  0.0396  0.0029  0.0358
27375W        W47655   9.183   4.355   3.437 -0.1334  0.0905 -0.0398
27376W        W47656   6.273  10.002   1.103 -0.1427  0.0125 -0.2628
27377W        W47657   2.116   7.523  11.762 -0.1215 -0.0612 -0.0626
27378W        W47658  19.941   6.563   2.235  0.2643 -0.0905  0.0384
27379W        W47659  13.700   2.337   2.657 -0.3409 -0.2891 -0.0733
27380W        W47660  16.662   5.428   0.290 -0.4708  0.0990  0.1897
27381W        W47661  17.231   8.899   2.189 -0.2346 -0.1050 -0.0648
27382W        W47662   5.226   1.379  13.612  0.2256  0.1292 -0.2584
27383W        W47663   0.166   4.336   1.788  0.1818  0.2766  0.2793
27384W        W47664   0.397  11.887   1.161  0.0853  0.0363 -0.0486
27385W        W47665   3.859   3.215  10.416  0.1560  0.2578  0.0156
27386W        W47666   0.169   0.949   9.333  0.1517 -0.0221 -0.0715
27387W        W47667  19.091  19.358  13.366 -0.2704  0.3832 -0.2147
27388W        W47668   1.704   0.322   3.756 -0.0539 -0.0012 -0.0349
27389W        W47669  15.048   6.193  10.844  0.2793  0.1660 -0.2728
27390W        W47670  18.573   2.925   1.065  0.0454 -0.2073  0.0272
27391W        W47671  11.429  13.355  10.391 -0.0366  0.0292 -0.0562
27392W        W47672   2.948   7.646   1.671  0.1691  0.0645 -0.1447
27393W        W47673  12.767   7.080  12.480  0.2083  0.0326 -0.3336
27394W        W47674   9.215   9.275  13.335  0.0496  0.2114  0.1062
27395W        W47675   5.060  10.735   1.680  0.2039  0.0086  0.0924
27396W        W47676  12.274  18.528  10.584  0.0082 -0.1925 -0.2792
27397W        W47677   7.007  17.384  12.671 -0.2359 -0.3738  0.0974
27398W        W47678   5.317   5.708  13.676  0.0422  0.5056  0.0707
27399W        W47679   6.704  19.842  12.203  0.0777 -0.1716 -0.1751
27400W        W47680   8.520   1.097  11.023  0.1639 -0.0027  0.0380
27401W        W47681   2.765  14.756  10.949 -0.0094 -0.1348 -0.0716
27402W        W47682  16.270  10.734  13.531 -0.4382 -0.1504  0.0729
27403W        W47683   8.053   9.438  12.099 -0.0950  0.1053  0.0043
27404W        W47684   1.767  15.911   3.703  0.1490 -0.2537 -0.1963
27405W        W47685  19.133  11.168  13.008 -0.3348 -0.4072 -0.0854
27406W        W47686  18.469  17.526  12.740 -0.3101  0.1813 -0.0546
27407W        W47687   4.563  10.091   1.669 -0.1252 -0.0732 -0.0004
27408W        W47688   6.816   5.609  11.448 -0.0312  0.0290  0.0718
27409W        W47689   7.302   6.015   1.354 -0.0187  0.2081  0.1085
27410W        W47690  19.157   8.004  12.479 -0.0165 -0.0979 -0.1161
27411W        W47691  12.893   4.811  12.721 -0.0228 -0.1496 -0.3343
27412W        W47692   7.145   2.718  11.624  0.1450 -0.0496 -0.1681
27413W        W47693   5.153   5.810  12.406 -0.0155  0.2637 -0.2116
27414W        W47694  19.892   7.373  10.367  0.1103  0.1584 -0.1493
27415W        W47695  17.304   0.857   9.998  0.1567  0.0989  0.2928
27416W        W47696   3.127   8.227   1.225  0.1146 -0.0103  0.0335
27417W        W47697   9.859  11.022   4.338  0.2209 -0.0990 -0.4273
27418W        W47698  13.497  18.685  10.363  0.1775  0.0199  0.0948
27419W        W47699   2.144  16.739   0.063 -0.1000  0.3131 -0.0356
27420W        W47700  19.348  19.181   2.418  0.0004  0.0589 -0.1291
27421W        W47701  16.644  14.582   0.660 -0.6254 -0.1058  0.4729
27422W        W47702   6.027  19.417   1.578  0.2554  0.1269  0.0108
27423W        W47703   3.203  16.519  13.628  0.0208 -0.2390  0.0558
27424W        W47704   4.619   0.383  11.369  0.2959 -0.0067 -0.3200
27425W        W47705   2.114  10.101   3.868  0.1093  0.2190  0.3016
27426W        W47706  16.335   0.985   0.311  0.2152 -0.0906  0.0443
27427W        W47707  18.059   6.670   2.990 -0.0589  0.1185 -0.0533
27428W        W47708   7.294  13.060  13.189 -0.2358 -0.2095 -0.1393
27429W        W47709  11.836   9.963   3.664 -0.2704 -0.2636  0.1611
27430W        W47710   1.391   6.683  12.498  0.1275 -0.3169  0.0048
27431W        W47711  11.410  11.887   2.826 -0.0327  0.1185  0.0926
27432W        W47712   0.069  16.161   0.391 -0.3509  0.0175  0.0498
27433W        W47713  17.098   7.663  10.805  0.0841  0.0823 -0.1232
27434W        W47714  13.548  15.717   0.650  0.1460 -0.0381 -0.2138
27435W        W47715  15.488  14.276  10.576 -0.1202  0.0322  0.1057
27436W        W47716   6.171   8.646   3.820  0.0413  0.2059 -0.1899
27437W        W47717  18.326   2.344   1.242 -0.3496 -0.1355  0.1617
27438W        W47718   7.907   6.962  13.132  0.0169  0.2485  0.4383
27439W        W47719  13.154  11.958  13.736  0.2759  0.2530  0.3868
27440W        W47720   9.133   2.077   9.212  0.0251  0.0395 -0.4578
27441W        W47721   8.094   3.837  12.326 -0.1541 -0.4570 -0.3777
27442W        W47722   1.466  14.416   1.177  0.0144 -0.0254  0.1181
27443W        W47723  15.793   3.790  10.104  0.0274  0.3891 -0.0467
27444W        W47724  19.414   8.386   4.427 -0.0929  0.0006 -0.0242
27445W        W47725   4.096   8.037   9.581  0.0040 -0.0276 -0.1223
27446W        W47726   8.164  12.710  13.254  0.0732 -0.0841 -0.1714
27447W        W47727   4.445  16.259  12.881  0.2790 -0.4966 -0.1147
27448W        W47728   7.934  19.029  11.916  0.0856  0.1490 -0.0296
27449W        W47729   1.528   3.931   2.478 -0.2569 -0.2890 -0.1285
27450W        W47730   9.335  15.245  11.283  0.3615 -0.0640 -0.1226
27451W        W47731  17.943  16.841  12.074 -0.0573  0.2001 -0.0683
27452W        W47732  16.785   6.701   2.760 -0.2900  0.2000  0.0195
27453W        W47733  10.804   9.655   0.245 -0.0397 -0.0361 -0.2896
27454W        W47734  17.889   8.525   3.382 -0.2707  0.0735 -0.1730
27455W        W47735   5.910   7.376   2.820 -0.2754 -0.2198 -0.3278
27456W        W47736  11.889  10.221   4.457  0.1037  0.3286  0.3569
27457W        W47737  11.689   8.804  11.840  0.0284 -0.0653 -0.2387
27458W        W47738  16.351  14.553  13.371 -0.1852 -0.0085  0.1408
27459W        W47739   6.033  13.238  10.806 -0.1656 -0.0871 -0.0962
27460W        W47740   1.512  18.519   3.615 -0.2002  0.2080  0.0004
27461W        W47741   7.063   2.403   1.851  0.2122  0.3997 -0.0613
27462W        W47742   4.075  13.467   2.905  0.0732  0.1226  0.4295
27463W        W47743  16.869   0.369   2.017 -0.1097  0.1481 -0.0313
27464W        W47744   7.754  15.885   0.412 -0.2520  0.1486 -0.0124
27465W        W47745   3.312  19.459   1.178 -0.0619  0.0408  0.0327
27466W        W47746  16.726   1.343   1.068 -0.0882  0.1009 -0.0067
27467W        W47747   0.485   7.549  12.682  0.0471 -0.0739 -0.0886
27468W        W47748  18.414  11.621  12.243  0.0991 -0.0167  0.3669
27469W        W47749  18.331  15.555  12.867 -0.1556  0.0057 -0.0127
27470W        W47750  17.280   0.158   2.329 -0.2098 -0.1270  0.0224
27471W        W47751  19.007  16.581  13.590  0.0293  0.1545 -0.0694
27472W        W47752  15.968   0.615   0.138  0.0911  0.2584  0.2958
27473W        W47753  15.886  18.618   0.215 -0.2310 -0.1388  0.1887
27474W        W47754   9.390  17.635  10.972  0.0163 -0.2483 -0.1673
27475W        W47755  12.735   0.027   1.887  0.3393 -0.2629  0.1668
27476W        W47756   3.878   5.798  12.115 -0.0413  0.2410  0.1061
27477W        W47757   8.300  14.140   3.623  0.0678  0.3556 -0.3026
27478W        W47758  16.375   4.738  10.548  0.0417  0.1920  0.0836
27479W        W47759   8.746  18.373  12.283  0.3898 -0.3276 -0.0629
27480W        W47760  12.681  19.024  11.276  0.3378  0.1755 -0.1294
27481W        W47761   5.144  19.767   2.697  0.1582  0.1558 -0.0026
27482W        W47762  11.433  11.285  11.938 -0.0491 -0.0475 -0.0238
27483W        W47763   6.474  18.049  13.116 -0.0285  0.1544 -0.1432
27484W        W47764   7.844  14.951   1.966 -0.1161 -0.1605 -0.1202
27485W        W47765  16.084   2.176  12.901 -0.1483 -0.1563 -0.0008
27486W        W47766   1.745   0.847  13.041  0.2053 -0.0747 -0.1413
27487W        W47767  14.917   1.220   1.441 -0.1526 -0.0423 -0.2373
27488W        W47768   9.719   4.833  10.311 -0.0529 -0.1443 -0.1213
27489W        W47769  19.864   5.166   2.629 -0.2856 -0.0563 -0.0222
27490W        W47770   9.355  14.068  12.985  0.0803  0.0563 -0.0476
27491W        W47771   3.070  13.768   1.904 -0.1429  0.2769  0.2852
27492W        W47772  10.312  17.509   2.618 -0.0853  0.0078 -0.0322
27493W        W47773   2.310   6.989   1.181  0.3354 -0.0273 -0.1781
27494W        W47774  11.379   4.528   3.591 -0.0688  0.0339 -0.2028
27495W        W47775   8.212  11.489  10.745 -0.0881  0.4138 -0.0113
27496W        W47776  11.712   7.282   2.141 -0.0989 -0.0967  0.2868
27497W        W47777  11.495   9.673   2.351  0.2260  0.2095  0.3058
27498W        W47778   8.486  18.395  13.593 -0.1230  0.0707  0.1129
27499W        W47779  18.349  15.563   1.262  0.1633 -0.1270 -0.1282
27500W        W47780   1.176  11.900  11.626 -0.0929 -0.0910 -0.1854
27501W        W47781   4.108  15.666  13.835  0.1526  0.2169 -0.1907
27502W        W47782   4.179  10.881   0.101  0.0392 -0.0611  0.1697
27503W        W47783   2.773  12.224  11.990 -0.1478 -0.0137  0.2063
27504W        W47784  14.671   0.267  11.673 -0.2711  0.0426 -0.1081
27505W        W47785  10.280   6.266   1.068  0.0970 -0.1136  0.4599
27506W        W47786   3.130  15.354   9.424 -0.0158  0.1411  0.3172
27507W        W47787  10.173   5.487  13.277 -0.0619  0.0464  0.2738
27508W        W47788   3.263   3.170   1.109  0.2377 -0.1152  0.1426
27509W        W47789  15.331   5.181  11.864 -0.4315 -0.0936  0.1648
27510W        W47790   4.912  16.440  12.779  0.0388 -0.0773  0.1164
27511W        W47791  13.074   4.807  12.026  0.2000 -0.2823  0.1298
27512W        W47792  19.170   1.760  13.714 -0.0293  0.2263 -0.0905
27513W        W47793  12.790   5.522  10.500  0.0743 -0.0948  0.1815
27514W        W47794  18.075  14.857  13.649  0.1900 -0.0998  0.1672
27515W        W47795   0.805   5.269  10.706  0.1774  0.0208 -0.0180
27516W        W47796   3.042   9.697   4.753 -0.0376  0.0587  0.1621
27517W        W47797  16.722  13.723   1.842 -0.0856 -0.2966 -0.1307
27518W        W47798  14.635  13.736   0.967  0.1887 -0.0967 -0.1720
27519W        W47799  14.401  18.776   2.323 -0.0110 -0.3299  0.1933
27520W        W47800   4.280   1.776  12.534 -0.2516  0.0398 -0.0047
27521W        W47801   7.795  12.638  12.925 -0.2007 -0.1687  0.2623
27522W        W47802  10.743   8.743   1.856  0.1878  0.0842  0.2730
27523W        W47803  12.367  14.876   2.386 -0.1482 -0.0793  0.2413
27524W        W47804   8.428   0.727   9.233  0.1905  0.1310  0.0633
27525W        W47805   5.387   2.946   2.408 -0.1965  0.0152 -0.1479
27526W        W47806   7.896   8.466  11.773  0.0836  0.0194  0.4155
27527W        W47807   5.962   1.063   2.872 -0.0887 -0.0367  0.0486
27528W        W47808  11.857  15.377  13.341  0.1476  0.1106 -0.1588
27529W        W47809  13.323  15.627   3.744  0.1251  0.0289 -0.0641
27530W        W47810   7.723   7.276   0.888 -0.0393  0.1543 -0.5790
27531W        W47811  11.791  15.579   0.558  0.1236 -0.0580 -0.0463
27532W        W47812  10.938   3.039   0.141  0.1654  0.3126 -0.0828
27533W        W47813   6.817   8.179   0.988 -0.0385 -0.1582  0.2887
27534W        W47814  13.057   6.366   9.490  0.1521  0.1139  0.0284
27535W        W47815   2.744   7.880   3.923 -0.1305  0.0429 -0.1011
27536W        W47816   9.569  17.784   1.137 -0.1364 -0.0529  0.2195
27537W        W47817  18.681  19.781   0.788  0.0134  0.4259 -0.2423
27538W        W47818   9.808  11.449  13.292  0.0268  0.6217 -0.4652
27539W        W47819  15.834   7.609  11.468  0.0891 -0.2774 -0.1652
27540W        W47820  17.659  12.677  12.659  0.0741 -0.2127  0.3753
27541W        W47821  18.463  18.052  12.558 -0.0613  0.0885 -0.1066
27542W        W47822   2.111   3.891  10.488  0.1778  0.1778  0.1246
27543W        W47823  18.364  16.412   2.929 -0.0703  0.1924 -0.0575
27544W        W47824   0.197   0.980  13.827  0.0682  0.1338 -0.2161
27545W        W47825   5.241   1.491  12.885 -0.0135 -0.2339  0.3957
27546W        W47826   0.491   6.031   3.555 -0.2802  0.1318 -0.0263
27547W        W47827   8.387   4.760   3.042 -0.0376 -0.0826 -0.0690
27548W        W47828   4.314  18.810   3.358  0.0198 -0.0719  0.0044
27549W        W47829  18.818   0.863  13.612  0.0402 -0.0161  0.2342
27550W        W47830  17.337   2.173  12.606 -0.0723  0.1506 -0.0745
27551W        W47831  11.394  15.420  10.093 -0.0613 -0.0460  0.1443
27552W        W47832   1.614   5.059  12.849  0.0387 -0.0010 -0.0362
27553W        W47833  19.601  17.320   0.445 -0.2700  0.2009 -0.0170
27554W        W47834  16.872   8.117  10.825 -0.1473  0.0138 -0.1790
27555W        W47835  14.149   2.296  11.496  0.0286 -0.2305  0.1445
27556W        W47836  18.996   3.590   0.239 -0.3890 -0.1218 -0.1422
27557W        W47837   4.163   2.959  10.976 -0.1576 -0.2580  0.0504
27558W        W47838   0.037  15.446  10.527  0.1749  0.1345 -0.2523
27559W        W47839   7.271   7.731   2.740  0.0811  0.0198  0.1729
27560W        W47840  18.447   0.029   2.179  0.3579 -0.1645 -0.2657
27561W        W47841  12.083   2.399  13.682  0.1790 -0.0751  0.1640
27562W        W47842   0.642  13.641  12.825  0.1442  0.0120 -0.0800
27563W        W47843  13.787  12.092  13.716 -0.0124 -0.1159 -0.1081
27564W        W47844  12.138   0.442  12.849 -0.1856  0.0995 -0.2299
27565W        W47845  12.506   9.814   0.021  0.0564 -0.3427  0.0619
27566W        W47846  17.135  17.414  13.304 -0.2849  0.2311  0.2386
27567W        W47847  12.331   3.110  12.621 -0.2925  0.1362 -0.0713
27568W        W47848  17.015  12.514  10.812 -0.2136 -0.3328 -0.1006
27569W        W47849  12.093  15.278   4.358 -0.1203  0.1410 -0.0345
27570W        W47850  11.593  17.108  13.444 -0.1047 -0.0260  0.2856
27571W        W47851   6.267  19.706   1.948  0.1235  0.4007 -0.3829
27572W        W47852  16.683  11.544   3.783 -0.0676 -0.3048  0.1180
27573W        W47853  18.856   2.753   3.190  0.0028  0.2352  0.0746
27574W        W47854   9.629   3.498  10.531 -0.3858 -0.1922  0.1233
27575W        W47855  10.895  15.687  12.727 -0.0695 -0.1273 -0.0485
27576W        W47856   9.060   2.923  12.163  0.0189  0.1168 -0.0340
27577W        W47857  14.974  17.949  13.544 -0.1121  0.1347 -0.0422
27578W        W47858  11.016  14.587   0.546  0.0398  0.0815  0.3999
27579W        W47859  13.839   5.672   9.845 -0.3713  0.1306  0.1238
27580W        W47860   9.774  13.121   3.303 -0.0517 -0.0324 -0.2680
27581W        W47861   5.258   3.486  12.202 -0.3925 -0.0019  0.0218
27582W        W47862   7.797  17.168  13.142  0.1584  0.1490 -0.0383
27583W        W47863  10.172  14.390   1.061 -0.0168  0.1352 -0.0883
27584W        W47864  17.591  15.903   1.200  0.0118 -0.1640  0.4189
27585W        W47865  18.876  11.899  11.720 -0.0897 -0.0278  0.1499
27586W        W47866  12.692  13.551  13.701  0.0405 -0.1804 -0.1031
27587W        W47867   8.081  19.076  12.368  0.1481 -0.0847 -0.3546
27588W        W47868  14.064  17.755   2.696 -0.2123  0.3412  0.2861
27589W        W47869  13.331   3.962   1.686 -0.2351  0.0188 -0.2074
27590W        W47870   7.075   1.330  10.547  0.3457 -0.4451 -0.3655
27591W        W47871   9.888   1.576   2.525 -0.1210 -0.0114  0.1759
27592W        W47872  10.811  18.579   3.739 -0.0147 -0.0335 -0.0186
27593W        W47873  18.718  14.379  10.901 -0.1549  0.0893  0.0738
27594W        W47874   2.459   6.484  11.655 -0.2507 -0.0882  0.1732
27595W        W47875  16.113   5.970   2.800  0.2874 -0.0166 -0.0834
27596W        W47876  15.715   0.110   9.378  0.1760 -0.0016 -0.0735
27597W        W47877  13.043  14.670   3.151  0.0171 -0.0521  0.1778
27598W        W47878   9.806  13.301  11.780 -0.0333 -0.0343 -0.1673
27599W        W47879  18.868   4.948  11.884 -0.0495  0.0565  0.0586
27600W        W47880   3.258   5.715   2.139  0.1662  0.1352  0.0252
27601W        W47881   3.569  11.853   3.427  0.2937  0.0202  0.2353
27602W        W47882  11.359  10.064  12.146  0.2913 -0.0345  0.2240
27603W        W47883   6.257   9.982  13.076 -0.0466 -0.4591 -0.0354
27604W        W47884   2.789  18.741  11.653 -0.2365 -0.0613  0.0138
27605W        W47885  18.468  11.495  10.126 -0.1268 -0.1652 -0.3565
27606W        W47886   8.251   3.796  10.209 -0.0053  0.2245 -0.0286
27607W        W47887   1.515  19.560  11.630  0.0014 -0.1275 -0.1091
27608W        W47888   9.882   9.658   2.137 -0.0634  0.2810 -0.3509
27609W        W47889  14.743   8.120   0.722  0.0343 -0.0218 -0.0634
27610W        W47890  14.424  16.068  10.056  0.0534  0.1298  0.1061
27611W        W47891  11.502  11.769   0.245  0.0625 -0.0376 -0.2710
27612W        W47892   5.591  18.761  13.837 -0.4394 -0.2514 -0.1744
27613W        W47893   9.358  18.043  13.629 -0.1568  0.1723 -0.1975
27614W        W47894   1.637  17.617   1.042  0.0258 -0.1582  0.1428
27615W        W47895  19.537   8.276  10.107  0.1369 -0.2417  0.0893
27616W        W47896   7.842   8.697  12.915 -0.0271  0.1549  0.1901
27617W        W47897  14.980  19.417  10.557 -0.2284 -0.1159 -0.0212
27618W        W47898  13.196   2.993   0.342 -0.1502  0.1545 -0.0129
27619W        W47899  13.715   6.885  12.973  0.2480 -0.1673 -0.0211
27620W        W47900   4.865   6.041   0.958  0.2536  0.0920 -0.1807
27621W        W47901   1.672  15.345   9.605 -0.4808  0.0802 -0.1220
27622W        W47902   1.673  13.229  10.317  0.1099 -0.1684 -0.1859
27623W        W47903   3.801  14.860   2.248  0.1728  0.1738 -0.1358
27624W        W47904   7.944   4.173  11.503  0.1740 -0.0824  0.1492
27625W        W47905  16.882  14.113  12.187  0.1486  0.3688  0.0908
27626W        W47906   6.691   9.642   0.296  0.2122  0.2269 -0.0672
27627W        W47907   9.462  17.466   3.195 -0.1444 -0.0534 -0.2089
27628W        W47908   2.893  10.328   3.523 -0.3983 -0.3302  0.1659
27629W        W47909   2.383  11.795  12.767  0.1042  0.2442  0.0778
27630W        W47910  17.816  11.699  11.546 -0.1486 -0.0699 -0.1617
27631W        W47911  12.733  14.399   9.770 -0.0085 -0.1132  0.1784
27632W        W47912   4.114   1.899   2.194 -0.1635 -0.1161 -0.1038
27633W        W47913  14.119  10.703   1.563  0.3916 -0.0565  0.1483
27634W        W47914   0.907  15.647   2.066  0.1263  0.0003 -0.2387
27635W        W47915   3.223  15.298   1.738  0.0916 -0.1153  0.1639
27636W        W47916   9.435   1.507  13.448  0.1600  0.1831 -0.0360
27637W        W47917   1.054   9.500  13.353 -0.1963 -0.0111  0.1289
27638W        W47918   7.198  12.836   2.340  0.2980 -0.0580 -0.0919
27639W        W47919   3.317   8.959   3.215 -0.1378 -0.0385  0.2181
27640W        W47920   9.506   5.137   3.692 -0.0564  0.0387 -0.0779
27641W        W47921  10.272   7.068   2.010  0.0298  0.0074  0.1135
27642W        W47922   1.926  19.244   1.878 -0.4153  0.3684  0.3429
27643W        W47923  17.547   5.826   3.155 -0.0135 -0.0334  0.3267
27644W        W47924  19.461  16.298  13.470 -0.2282  0.1634 -0.0038
27645W        W47925   1.343  15.862   2.317 -0.1135  0.2860 -0.0547
27646W        W47926   7.855  13.761   1.152 -0.1601  0.1586  0.1105
27647W        W47927  15.923  14.591  12.517  0.2094  0.0657 -0.0199
27648W        W47928   0.841   0.413   0.553  0.1576 -0.2677 -0.1722
27649W        W47929  19.566  13.246   3.263 -0.2954  0.2804  0.2898
27650W        W47930   7.021  13.023  10.387 -0.0834  0.1725 -0.1853
27651W        W47931   0.204  15.216  12.665  0.0110  0.2702 -0.1021
27652W        W47932  17.347  10.973   1.818 -0.1371 -0.2217  0.0912
27653W        W47933  17.898  14.895  10.993 -0.1047  0.0806  0.1558
27654W        W47934  19.475   5.790   0.634  0.1909 -0.2580  0.0878
27655W        W47935  19.472   2.104  10.564  0.0607 -0.1230  0.0396
27656W        W47936  15.405   2.674  12.167 -0.0918  0.3356 -0.1969
27657W        W47937  18.936   7.166  12.594  0.2320  0.0551 -0.1676
27658W        W47938  11.143   4.726  10.270  0.0098  0.3769  0.3879
27659W        W47939   0.023  12.203   1.950 -0.0091 -0.1057  0.1318
27660W        W47940  15.209   8.632  10.714  0.2110 -0.0516  0.0517
27661W        W47941  10.294   1.216   3.255 -0.0594  0.0884  0.3653
27662W        W47942  12.974   2.750  12.180  0.1730 -0.0825 -0.0138
27663W        W47943   4.562   9.773   2.507  0.1198  0.0482  0.0158
27664W        W47944  10.711   8.989  11.600  0.2684  0.3711 -0.1942
27665W        W47945   9.321   5.692  10.727 -0.2040  0.0149  0.3474
27666W        W47946   3.961   6.797  11.155  0.0297 -0.0859  0.3928
27667W        W47947  13.169  10.284  10.961  0.2065 -0.0731 -0.0193
27668W        W47948  17.384  10.080   4.066 -0.3190  0.1010  0.0194
27669W        W47949  16.551  15.812  10.619 -0.1663  0.3334 -0.0284
27670W        W47950  13.229  17.261   3.257  0.4168  0.1231 -0.0489
27671W        W47951  11.630  11.040   3.064 -0.0163 -0.1218 -0.0272
27672W        W47952  15.115   1.299   0.764 -0.1506 -0.3146  0.1404
27673W        W47953   3.569   5.974  10.737  0.0598 -0.1756 -0.0407
27674W        W47954   9.317   4.788   3.187  0.3073 -0.1108  0.0012
27675W        W47955  17.608  17.495   3.769 -0.2928  0.1081  0.1592
27676W        W47956   1.734  16.746   0.398  0.1467 -0.0035  0.5105
27677W        W47957   7.437   0.226  11.450  0.1531 -0.1319 -0.0146
27678W        W47958  17.432   5.160  11.976  0.1783 -0.1464  0.1099
27679W        W47959  17.970  17.150   2.817 -0.2170 -0.2252 -0.0824
27680W        W47960   7.625  19.672  10.590  0.1082  0.0608  0.1835
27681W        W47961  19.538   9.338   3.707 -0.1235 -0.2209 -0.1731
27682W        W47962   8.508   2.773  11.837 -0.0729  0.1110  0.2547
27683W        W47963  16.007   1.544  13.435  0.0398 -0.0774  0.1025
27684W        W47964   9.395   4.502   9.759  0.0568 -0.1398 -0.1731
27685W        W47965   4.440   7.587  13.060  0.1652  0.0739 -0.1356
27686W        W47966   6.554  13.658  13.608  0.1514 -0.2823  0.2618
27687W        W47967  15.290  10.794   0.972  0.0050 -0.0395 -0.1872
27688W        W47968   0.229  16.337  11.243 -0.2138  0.2840  0.2406
27689W        W47969  11.471   7.354  10.251  0.0982  0.1180  0.3683
27690W        W47970   4.407  18.157   3.914  0.0387 -0.4780 -0.3135
27691W        W47971  16.425  13.201   9.961 -0.0773 -0.2387  0.2703
27692W        W47972  14.786  16.376  11.328 -0.0425  0.1034  0.0080
27693W        W47973   0.384  16.800  11.128  0.1352  0.1002 -0.0360
27694W        W47974  13.150   4.372  12.929  0.0656  0.0443 -0.1629
27695W        W47975  10.350   3.384   9.883 -0.1205  0.1735  0.0768
27696W        W47976   3.279   1.042   9.866 -0.0862  0.1125 -0.2631
27697W        W47977  12.692   9.491   3.608 -0.1295  0.1640  0.2509
27698W        W47978  18.367  14.044   9.777 -0.4453  0.0047  0.0838
27699W        W47979  18.436  15.519   9.444 -0.0120  0.1634  0.1043
27700W        W47980   4.217   6.039  11.829 -0.2989  0.1956 -0.0392
27701W        W47981  10.266  14.497  10.816 -0.0780 -0.1449 -0.1582
27702W        W47982   4.558   7.406   2.312 -0.1104  0.0060 -0.0057
27703W        W47983   3.079   5.104   1.629  0.0512 -0.1352  0.2000
27704W        W47984  13.601   7.579  10.073 -0.2340  0.0023 -0.0392
27705W        W47985   5.181  14.061   4.094  0.0797  0.0005 -0.1221
27706W        W47986  14.896  18.834  11.131  0.0125 -0.3061  0.3963
27707W        W47987  13.896   4.460   1.285 -0.1875  0.0597 -0.1730
27708W        W47988   7.921  11.167   1.092  0.3388 -0.0431 -0.0389
27709W        W47989  18.474  10.443   0.175 -0.1391 -0.5866  0.2759
27710W        W47990  13.671   1.902   1.779 -0.0303 -0.1142 -0.0194
27711W        W47991  18.677  12.303  11.521  0.1532 -0.1637 -0.1971
27712W        W47992   0.580   2.248   0.255 -0.0711 -0.2244  0.0067
27713W        W47993  12.781   5.216  12.982 -0.0152  0.1119 -0.1933
27714W        W47994  13.030  11.914  12.755 -0.0893  0.3093 -0.0463
27715W        W47995  15.911   0.668   2.310  0.5233  0.1939  0.4877
27716W        W47996  19.400  12.727   2.545 -0.0403  0.1091 -0.3092
27717W        W47997   3.215  14.102   1.579  0.0844 -0.3390  0.0132
27718W        W47998   8.840  13.714   1.048  0.3834 -0.0673  0.3366
27719W        W47999   0.724  11.674  10.103  0.0767  0.3557  0.1786
27720W        W48000   0.666  15.143  10.334  0.5011  0.0887  0.3505
27721W        W48001  11.897  15.249   3.917  0.1079  0.0811 -0.0369
27722W        W48002   7.495  10.164  12.879  0.0064 -0.4891 -0.2905
27723W        W48003   7.582   1.510   2.908 -0.1106 -0.0642 -0.1389
27724W        W48004   8.815   5.312   3.375 -0.2234  0.2918  0.2988
27725W        W48005  11.948  10.455   1.344 -0.1184 -0.0425 -0.2618
27726W        W48006   4.025  12.379   0.233 -0.4119 -0.2540  0.1763
27727W        W48007   9.292  18.952   4.735 -0.1827  0.0593  0.1347
27728W        W48008  14.320  15.299   0.533  0.1157  0.2037 -0.3944
27729W        W48009  11.066  17.561  12.158 -0.2145 -0.1916  0.2726
27730W        W48010   1.692  17.693   2.213 -0.1270  0.2572  0.0083
27731W        W48011   1.840  15.289   3.453 -0.1335  0.0399  0.1170
27732W        W48012   9.006  10.809   1.757 -0.3537 -0.0800  0.1369
27733W        W48013   6.496  10.842   1.437 -0.2485 -0.1964  0.3885
27734W        W48014   3.340  16.949  12.235  0.2857  0.1470 -0.1809
27735W        W48015  19.222   5.806  10.004 -0.2534  0.0583  0.1838
27736W        W48016  15.706  10.393   2.423 -0.1608 -0.0244 -0.0079
27737W        W48017  18.744   0.042  10.933  0.2528 -0.0812  0.1024
27738W        W48018  17.981   1.272   2.059 -0.2422  0.0908  0.1932
27739W        W48019   2.680   0.222   1.468 -0.2449  0.1125 -0.1701
27740W        W48020  18.061   2.653  12.883  0.1683 -0.3337  0.0593
27741W        W48021   1.365   5.160   9.493 -0.0781 -0.0998  0.0071
27742W        W48022  16.363   6.710   3.062 -0.0125  0.1966  0.1564
27743W        W48023   0.342  10.427   9.835 -0.2458 -0.0730  0.0466
27744W        W48024  18.124  16.386  11.180 -0.2258  0.0741 -0.0470
27745W        W48025   3.752   4.666   3.913  0.1384 -0.0971  0.1834
27746W        W48026   9.397  18.659   3.375  0.3203  0.3717  0.1597
27747W        W48027  11.828  15.056  10.126  0.0517 -0.0762  0.3796
27748W        W48028  13.595  14.928  13.822  0.0850  0.1027 -0.0757
27749W        W48029   5.888  10.124  11.720 -0.0163  0.2510  0.2613
27750W        W48030  19.870  12.835   3.902 -0.0464  0.1779  0.1276
27751W        W48031  10.601  18.522   2.983 -0.2041  0.1029  0.1599
27752W        W48032  16.858   6.393   3.705  0.4214 -0.3709 -0.0517
27753W        W48033  17.725  13.433  11.121  0.3722 -0.1473  0.0667
27754W        W48034  19.149  12.370   9.630  0.0872 -0.0591 -0.0193
27755W        W48035   6.085  16.862   3.362 -0.2152  0.3588  0.1533
27756W        W48036   2.728  10.277   1.504  0.1063  0.0990  0.3601
27757W        W48037  18.194   3.176   4.460 -0.0699 -0.1467  0.0541
27758W        W48038   7.102  17.689  11.434 -0.1169 -0.2707  0.1600
27759W        W48039  11.186   5.012   9.860 -0.0442 -0.0691  0.0955
27760W        W48040   6.227  10.149   4.169  0.0055  0.3590  0.2337
27761W        W48041   0.430  13.093   0.201  0.0133  0.1248  0.0657
27762W        W48042   9.821  11.513  11.662  0.1803 -0.1556  0.3311
27763W        W48043  13.607   4.162   2.132 -0.0156  0.0752 -0.3433
27764W        W48044  16.606   3.005  12.055  0.1660 -0.0468  0.3024
27765W        W48045  14.489  14.302  11.391 -0.1215  0.0515 -0.2542
27766W        W48046  16.003  18.950   2.873  0.0743  0.0039 -0.3519
27767W        W48047  10.903   2.528   1.354  0.2045  0.0139 -0.0196
27768W        W48048   7.536   9.466   3.180 -0.1475 -0.0110  0.0747
27769W        W48049  18.106  18.749  11.455 -0.1553  0.2552  0.1315
27770W        W48050   6.987  19.073   4.656 -0.1662  0.4079  0.0900
27771W        W48051   5.877   4.543  12.918  0.2151  0.1321 -0.0863
27772W        W48052  17.104  18.091  11.856 -0.2093 -0.1228 -0.0413
27773W        W48053  12.313  19.215   2.315 -0.2070 -0.1204  0.1866
27774W        W48054  18.673  18.061   0.762 -0.1971 -0.2749 -0.2086
27775W        W48055  10.436   7.755  12.568 -0.1158 -0.0568  0.0483
27776W        W48056  19.927   9.381  13.796 -0.1668  0.0572  0.0403
27777W        W48057   1.121  16.347  11.494 -0.0279 -0.0025  0.2140
27778W        W48058  18.082   1.594   8.734 -0.3292 -0.0719 -0.0305
27779W        W48059   5.596  12.598   3.854  0.2198  0.0522  0.3005
27780W        W48060  17.810  14.087   0.043 -0.2179  0.0266 -0.0624
27781W        W48061  13.472   8.012   1.735 -0.2186  0.0052 -0.2090
27782W        W48062  13.118  15.554   1.008  0.2110 -0.0327 -0.2365
27783W        W48063   6.086  12.941  12.316 -0.0113 -0.1730  0.0066
27784W        W48064   6.732   5.310   0.946 -0.2575 -0.0362  0.1325
27785W        W48065   2.758  13.409  11.452  0.0430 -0.1547 -0.1203
27786W        W48066   9.129  14.544   9.457  0.0377 -0.0649  0.1033
27787W        W48067   4.550  13.415   1.902 -0.0651  0.4559 -0.1653
27788W        W48068   3.663   7.640  12.432 -0.4180 -0.0321 -0.3628
27789W        W48069   0.597   9.991  13.856 -0.0783  0.1202  0.0213
27790W        W48070  16.268  12.860  13.574  0.0922 -0.1213  0.0017
27791W        W48071  19.893  12.723  13.462  0.0065  0.1775 -0.4390
27792W        W48072  16.514   3.764  11.802  0.2450  0.0033 -0.1608
27793W        W48073   1.068  13.199  11.675 -0.2270  0.0885 -0.2250
27794W        W48074  10.866  11.538  12.980 -0.0047 -0.1286  0.0962
27795W        W48075  14.943   5.481   9.110 -0.0590 -0.2657 -0.2820
27796W        W48076  15.752  13.703   1.487  0.3958  0.3401 -0.0490
27797W        W48077  19.356  18.762   0.918 -0.1625  0.2120  0.0728
27798W        W48078   7.103  11.374   2.802  0.0988  0.0634  0.0875
27799W        W48079  13.188   1.903   0.430 -0.1567  0.0213 -0.0106
27800W        W48080   6.722  15.561  13.803 -0.1909 -0.0623  0.0497
27801W        W48081   1.700  17.390   0.200 -0.0568  0.0140  0.3763
27802W        W48082  16.929   7.999  12.470 -0.1402 -0.1987  0.0536
27803W        W48083   9.227   1.023   1.918 -0.1221 -0.0351  0.6519
27804W        W48084   8.259  17.057   1.214 -0.1608  0.0681  0.1503
27805W        W48085  15.405   3.586  13.715  0.1291 -0.0207  0.0964
27806W        W48086  10.342  18.736  12.397  0.1968 -0.1631  0.1605
27807W        W48087   1.846  19.862   1.449 -0.0849  0.1352 -0.0611
27808W        W48088  18.665   1.669  12.823 -0.0210 -0.1729  0.1238
27809W        W48089   5.022  16.934  12.644  0.2641 -0.1291 -0.1055
27810W        W48090  16.253   1.441  11.330  0.1784  0.1336  0.0216
27811W        W48091   0.048  14.811  11.664 -0.1201 -0.2224  0.1263
27812W        W48092   2.948  18.217   3.773  0.0845 -0.0184 -0.2351
27813W        W48093  19.856   8.085   1.257  0.0835 -0.1545  0.1708
27814W        W48094  11.301  15.614  10.707  0.0302  0.0112  0.2896
27815W        W48095   8.108   0.788   0.663  0.2011  0.0447 -0.2403
27816W        W48096   7.194   1.883  10.416 -0.2064 -0.0812  0.0985
27817W        W48097  11.736  19.243  10.526  0.2417  0.4871  0.2856
27818W        W48098  17.821  15.334  12.879  0.1219  0.1120  0.0223
27819W        W48099  18.061   2.796   0.877  0.4129  0.2735 -0.0609
27820W        W48100  16.743  11.986   3.491  0.0007  0.1103 -0.1571
27821W        W48101  15.701  14.503   2.055 -0.2275  0.1077  0.2937
27822W        W48102  13.984  15.419   3.098 -0.1744  0.2315 -0.0384
27823W        W48103  13.040   6.117  11.437 -0.3509 -0.0595  0.0923
27824W        W48104   0.918   0.780  12.636 -0.0497  0.1261 -0.3548
27825W        W48105   8.202  15.662   2.607 -0.1447 -0.0240 -0.0550
27826W        W48106  12.632   2.350  10.577 -0.0598  0.2019  0.0680
27827W        W48107   0.243   8.359   1.974 -0.0125  0.0343 -0.0784
27828W        W48108  11.752  10.965  11.019  0.0665 -0.0619  0.0323
27829W        W48109   2.892   4.317  13.176 -0.3815 -0.0953  0.2264
27830W        W48110   7.798  15.309   3.241  0.0309  0.4427 -0.0193
27831W        W48111   4.988  14.759  13.565 -0.3540  0.2639 -0.0021
27832W        W48112  13.491   9.715  13.815  0.1844 -0.1875 -0.1132
27833W        W48113  10.507  14.433  12.628  0.1121 -0.0217 -0.0617
27834W        W48114  16.400   2.067   1.857  0.1453 -0.0404 -0.0759
27835W        W48115  16.906  17.909  13.115 -0.0946 -0.3679  0.2791
27836W        W48116  13.371   1.326   4.486  0.0921 -0.4308 -0.2529
27837W        W48117  14.713   0.095   2.878 -0.4072 -0.0157  0.0214
27838W        W48118   3.791  14.858  11.807 -0.1722 -0.0990 -0.1282
27839W        W48119  17.564  17.572  11.049  0.0202 -0.2330  0.1157
27840W        W48120  11.018  14.155  11.177 -0.1596 -0.0759  0.0125
27841W        W48121  12.754   7.052  12.023  0.1490 -0.2835  0.0725
27842W        W48122  18.629  10.274  10.775 -0.0124  0.0839  0.0587
27843W        W48123  11.728  17.995   2.507 -0.2542 -0.1208 -0.0287
27844W        W48124  10.739  15.081   2.531  0.0140 -0.1019 -0.0424
27845W        W48125   1.477  11.371  13.555 -0.0253 -0.0465  0.0153
27846W        W48126  19.492   3.580   1.048 -0.1215  0.0073 -0.1730
27847W        W48127  16.225  17.402   3.473 -0.1516  0.2997  0.0353
27848W        W48128   4.544  14.542  13.245 -0.1938  0.1715 -0.1572
27849W        W48129   7.351   7.443   4.509  0.1430 -0.0922  0.1857
27850W        W48130   9.694  13.516   2.619 -0.1153  0.2431  0.1426
27851W        W48131  17.841  14.837   9.662 -0.1614 -0.2171 -0.0359
27852W        W48132  13.801   3.208   1.643  0.5348 -0.1297  0.4276
27853W        W48133   0.356   7.643  12.232  0.0613  0.0555  0.1657
27854W        W48134   2.491   1.235   4.548 -0.0970  0.0886  0.0209
27855W        W48135   3.471  10.972   9.377  0.1178 -0.1107 -0.1232
27856W        W48136  10.867  15.949   3.200 -0.0888  0.2370 -0.0161
27857W        W48137  15.739   7.075  10.458 -0.0810  0.1694 -0.1683
27858W        W48138  10.081  11.100   3.824 -0.1503  0.5890  0.2436
27859W        W48139   1.305  12.333  13.608  0.2163  0.1764 -0.0206
27860W        W48140   1.944   8.681  11.948 -0.3375  0.2415  0.2493
27861W        W48141   4.338   5.665   9.572 -0.0090 -0.1039 -0.1752
27862W        W48142  13.334  16.357   2.171 -0.0653 -0.0022  0.0553
27863W        W48143  11.034   6.620   3.993 -0.1750 -0.1170 -0.0606
27864W        W48144   2.626  16.427  10.385 -0.1593 -0.1273 -0.0480
27865W        W48145  11.329  12.516   2.035 -0.0521 -0.0668  0.0768
27866W        W48146  15.277   5.318  12.345  0.2937  0.0744 -0.0309
27867W        W48147   0.481   9.463  12.151 -0.1407  0.0853 -0.0890
27868W        W48148   9.012  17.028   1.859  0.0102  0.2943  0.3051
27869W        W48149   3.096  15.989   2.002 -0.0597  0.0339  0.0953
27870W        W48150  14.954   3.803  13.774 -0.0494 -0.0150 -0.0042
27871W        W48151   5.433  18.346   3.974  0.1851  0.0528  0.0821
27872W        W48152   2.685   1.487  11.862  0.0121 -0.4056 -0.1969
27873W        W48153   8.169   3.800  13.581  0.2295  0.0404  0.0769
27874W        W48154   9.736  18.272   1.982 -0.0268  0.0858 -0.0439
27875W        W48155  19.858  17.807   3.238  0.2936  0.0531 -0.0715
27876W        W48156   7.396  17.355   2.699  0.1217  0.0308 -0.2674
27877W        W48157   1.084   1.907  13.585  0.1791 -0.1498  0.1521
27878W        W48158   4.333   8.802  11.245 -0.0113 -0.0602 -0.3082
27879W        W48159   7.390   3.174  11.485 -0.2977  0.0570  0.1928
27880W        W48160   4.129  16.662   1.222 -0.2239  0.0235 -0.3771
27881W        W48161  10.742   4.018   2.774  0.3122  0.2669 -0.3426
27882W        W48162   3.255  10.411  10.590 -0.0100 -0.1096 -0.0186
27883W        W48163   4.173   4.914  13.307 -0.1907  0.0523 -0.3537
27884W        W48164   0.493   6.263  12.414  0.0051  0.1623 -0.2655
27885W        W48165  12.289  13.967   0.399  0.1932  0.1655 -0.0273
27886W        W48166   2.756   3.701  12.540  0.1470  0.0156 -0.2883
27887W        W48167   0.289  19.061   0.910  0.0736 -0.4441  0.2703
27888W        W48168   4.731  13.781  10.939  0.0320 -0.0366 -0.1087
27889W        W48169   7.982   3.274  13.039  0.0687 -0.1419  0.1817
27890W        W48170  15.338  12.803   1.210 -0.2116 -0.2119 -0.1014
27891W        W48171  14.478   2.810  12.990 -0.2139  0.0615 -0.0948
27892W        W48172  10.605  14.031  12.257  0.1837 -0.4859 -0.0856
27893W        W48173  19.079   6.469  12.413 -0.3860  0.1262  0.1118
27894W        W48174  18.763  17.326  11.097  0.1818 -0.1833 -0.0055
27895W        W48175  10.878  10.828  11.297  0.1447 -0.1662  0.1474
27896W        W48176  15.505  16.668  10.216  0.0559 -0.2751  0.1178
27897W        W48177   9.219  13.299   3.531  0.0189 -0.2446  0.0212
27898W        W48178   2.578  17.750  13.703  0.0159 -0.1108  0.1413
27899W        W48179  11.142  10.655   9.979 -0.1613 -0.1284  0.0659
27900W        W48180  13.950   1.722  10.792 -0.1013 -0.2927 -0.1970
27901W        W48181   4.014   0.831  12.992 -0.1251 -0.0504 -0.3602
27902W        W48182  16.628   4.167   4.248  0.1320  0.0209 -0.2132
27903W        W48183  10.964   4.735  10.877  0.0641  0.1102 -0.0890
27904W        W48184  11.971   4.288  11.942 -0.1422 -0.2602  0.1180
27905W        W48185  11.727   3.829   1.359 -0.0867 -0.5358  0.0373
27906W        W48186  10.924   6.058   2.418  0.0411 -0.2374 -0.2248
27907W        W48187  19.825  12.896   3.064 -0.0121 -0.2067 -0.0410
27908W        W48188   2.129  10.057  11.090  0.0778  0.0694  0.0126
27909W        W48189   1.849   6.205   3.486 -0.0129 -0.2375  0.3916
27910W        W48190   8.789   1.938  10.618 -0.0467  0.0141  0.1791
27911W        W48191   2.447  10.761  11.688 -0.3324 -0.0510  0.1701
27912W        W48192  16.431   3.727  13.373  0.0501  0.1315 -0.1390
27913W        W48193  19.776  18.913  13.263 -0.1169 -0.2486  0.1851
27914W        W48194  12.749   9.941  10.971 -0.0726  0.0937  0.0821
27915W        W48195   9.718   7.135   0.267 -0.0764  0.0792 -0.0944
27916W        W48196  15.474   0.648   2.607 -0.3126  0.3323 -0.1151
27917W        W48197  16.890   2.105   3.292 -0.2720 -0.0071  0.2831
27918W        W48198  10.952  11.486  10.821  0.0525 -0.2847  0.1546
27919W        W48199  15.881   5.247  11.849  0.1219  0.0618 -0.1843
27920W        W48200   0.121  18.043  10.363 -0.3462 -0.0799 -0.0818
27921W        W48201   2.637   4.152  13.609 -0.3120 -0.0092 -0.1333
27922W        W48202   1.067   4.668   1.417  0.1146 -0.3209  0.5002
27923W        W48203  17.106   8.044   0.929  0.0819 -0.3443 -0.2044
27924W        W48204  11.202   3.797   1.206  0.1150  0.0626  0.1858
27925W        W48205  12.502   5.927   0.260 -0.0925 -0.0179 -0.0727
27926W        W48206  11.221   1.617   4.216 -0.0900  0.1165  0.1702
27927W        W48207  19.453   0.806  13.593 -0.0557 -0.2235 -0.0031
27928W        W48208   0.551  14.558   1.469  0.0480 -0.1670 -0.0330
27929W        W48209  19.835   0.041   0.400  0.1092 -0.1504  0.1494
27930W        W48210   8.032   5.313  12.473  0.0678 -0.2997 -0.1484
27931W        W48211   3.437  14.354   2.024 -0.2379  0.0659  0.3292
27932W        W48212   2.716   2.131   0.984 -0.0653  0.0751 -0.0935
27933W        W48213  10.298   3.632  11.669  0.3164 -0.3028 -0.2338
27934W        W48214   2.384  13.206  12.745  0.2256  0.1441  0.0614
27935W        W48215  11.454  13.714   3.750 -0.1084  0.1519  0.0539
27936W        W48216  11.134   5.011  13.222 -0.3808 -0.0800 -0.1956
27937W        W48217   8.438   2.252   1.318  0.1469 -0.2999 -0.0829
27938W        W48218   6.140   7.875   1.834  0.0440  0.0095  0.0931
27939W        W48219   9.886  19.370   1.977 -0.1346 -0.1374 -0.0589
27940W        W48220   8.997   0.094   2.038 -0.1357 -0.0031  0.0079
27941W        W48221   3.346   7.106   3.173 -0.1070  0.0006 -0.3127
27942W        W48222  13.679   8.345  11.099  0.1937  0.0760 -0.0481
27943W        W48223  19.856  15.393   2.375 -0.3175 -0.1301  0.0914
27944W        W48224  16.263  19.512  10.491 -0.0541  0.0018  0.1766
27945W        W48225   6.190  16.532   0.274  0.3944  0.2924 -0.2630
27946W        W48226   4.806   2.325   2.800  0.1410  0.2834 -0.1422
27947W        W48227   9.437   2.086   4.082  0.0151 -0.0700 -0.2367
27948W        W48228  19.829   2.928  13.762  0.0471  0.2852  0.1713
27949W        W48229  19.031   4.128   9.907 -0.0186  0.2905  0.3062
27950W        W48230  12.540   8.447  12.802  0.0283  0.0136  0.0858
27951W        W48231  10.900   3.169   0.635  0.1323  0.3960 -0.0101
27952W        W48232   5.671   6.849  10.670 -0.1401  0.2319 -0.0039
27953W        W48233  10.035  11.453   2.566  0.0177  0.0646 -0.3995
27954W        W48234   3.854   8.115   3.933 -0.1055  0.3006 -0.2281
27955W        W48235  16.092  17.943   9.735 -0.0587 -0.0371  0.2385
27956W        W48236   3.100  16.291  10.623 -0.1223  0.2147 -0.0992
27957W        W48237  18.182  19.267   0.055 -0.2374 -0.0180 -0.2118
27958W        W48238  12.473   4.677  10.661  0.0345 -0.1023 -0.3679
27959W        W48239   0.161   3.870  12.368 -0.0653  0.0983 -0.0089
27960W        W48240   9.949  12.559  12.367 -0.2159  0.0433 -0.3981
27961W        W48241   6.435   4.145  13.223  0.0925  0.1071  0.0683
27962W        W48242   4.451  17.198  12.442 -0.1373 -0.3533  0.0033
27963W        W48243   5.747  17.729  11.594  0.0921  0.0679 -0.0288
27964W        W48244   2.005  16.329   3.851  0.1072 -0.3659  0.1029
27965W        W48245   6.984   0.931  13.263  0.0695 -0.1245  0.1305
27966W        W48246  10.858  11.785   2.861 -0.1526 -0.0284  0.0085
27967W        W48247  11.893  18.204   0.537 -0.2017 -0.0118 -0.0087
27968W        W48248  16.853   2.633   2.462 -0.2148 -0.3595 -0.0444
27969W        W48249   8.067   9.384   4.189 -0.3573  0.0194 -0.2917
27970W        W48250   7.843   5.278   3.775  0.0826  0.0024 -0.1867
27971W        W48251  15.468  17.825   0.133  0.2416  0.2696  0.0821
27972W        W48252  15.669   2.966  12.470  0.0306  0.0287 -0.3236
27973W        W48253  17.962   2.453  11.194  0.2390 -0.2139 -0.3630
27974W        W48254  11.609   5.972   0.214  0.0883 -0.1034 -0.0982
27975W        W48255  18.374   1.843  11.916  0.2922 -0.0099 -0.1211
27976W        W48256   9.473   4.927   9.448 -0.0732  0.0938  0.0795
27977W        W48257  13.708   0.389   2.793  0.1065  0.0473  0.0898
27978W        W48258   6.879   9.490  11.857  0.0032 -0.0384  0.3271
27979W        W48259   8.778  12.675  12.131 -0.0810 -0.2641  0.1753
27980W        W48260  10.094   1.554  12.839  0.0292 -0.1058  0.0411
27981W        W48261  11.211   3.201  11.495 -0.0197  0.1031 -0.1184
27982W        W48262   3.959   2.716  11.447 -0.1896 -0.0941  0.2592
27983W        W48263  16.185   5.384   0.088 -0.0871  0.0430  0.1263
27984W        W48264   4.819   4.928   3.862 -0.1270 -0.0883  0.2773
27985W        W48265   3.388   0.171  12.587  0.0785 -0.1163  0.0181
27986W        W48266  13.221   5.210   2.008 -0.4948  0.1350 -0.3183
27987W        W48267  13.611  16.576   3.890  0.0494  0.0584 -0.3151
27988W        W48268   5.629   7.085   0.158  0.0228  0.0858  0.0925
27989W        W48269  15.821   1.465   0.051  0.3584  0.1151  0.2352
27990W        W48270   6.690  11.444   3.392 -0.0504 -0.2113  0.1331
27991W        W48271   3.825  12.315   3.593 -0.0652 -0.4000 -0.1413
27992W        W48272  12.547   2.641  12.518 -0.1443  0.0055  0.2857
27993W        W48273  19.024   0.003   3.847 -0.1070  0.1998  0.2186
27994W        W48274  11.448   1.252  13.211  0.2412  0.0001  0.1153
27995W        W48275   3.506   5.860  10.218  0.0372  0.0512  0.0644
27996W        W48276   8.982   4.052  13.312 -0.1176 -0.1638 -0.0091
27997W        W48277  12.943   5.403   1.537  0.1862 -0.1449 -0.1896
27998W        W48278   8.289   7.632  11.527 -0.0983  0.3704  0.1488
27999W        W48279   8.524   2.737   9.176 -0.0789 -0.0502  0.1199
28000W        W48280   1.814  17.234  12.274  0.2797  0.1814 -0.1989
28001W        W48281  18.221   2.236   0.720 -0.1569  0.3604 -0.2438
28002W        W48282  19.712  16.002   9.406  0.2396 -0.0133 -0.0269
28003W        W48283  14.930   7.547   2.510 -0.0329 -0.1662 -0.3255
28004W        W48284   7.952  12.785   3.457 -0.1885  0.1541  0.1662
28005W        W48285   5.092   1.604   1.269 -0.1556 -0.1407  0.0141
28006W        W48286  11.456   6.572   9.793  0.4335 -0.1442 -0.0470
28007W        W48287  16.978   0.155  11.695  0.0588 -0.4276  0.1559
28008W        W48288   6.150   1.172  13.761 -0.1955  0.0752 -0.1605
28009W        W48289  16.519  16.023   9.873 -0.0321 -0.0028 -0.2086
28010W        W48290   5.425   6.385   2.370 -0.2875 -0.0276  0.1746
28011W        W48291   9.170   5.174   0.985  0.1950 -0.3115  0.1409
28012W        W48292   6.200   6.292   3.053 -0.1550 -0.1333 -0.0429
28013W        W48293  11.466  15.407   1.426 -0.0399  0.0601  0.1853
28014W        W48294  13.822  11.544   0.755  0.1377 -0.1356  0.0833
28015W        W48295  19.084  11.834  10.795 -0.0970 -0.0702  0.0589
28016W        W48296  19.786  11.131   2.553  0.1945 -0.0342 -0.1567
28017W        W48297   1.264  14.244  11.599 -0.0551  0.0021 -0.1843
28018W        W48298   8.684   0.895   1.431 -0.0182 -0.1294 -0.2090
28019W        W48299  14.531  16.122   0.884  0.0165 -0.3973 -0.1076
28020W        W48300  16.265  17.745   4.781  0.0237  0.0219 -0.2406
28021W        W48301  11.018   3.522  11.928 -0.4859  0.1494  0.0381
28022W        W48302   3.196   0.340   0.584 -0.1630 -0.5201  0.4161
28023W        W48303   3.098  11.693   9.967  0.2592  0.0704 -0.0770
28024W        W48304  15.885   1.808   2.611 -0.2336  0.1149  0.2141
28025W        W48305  19.279   6.707  11.518 -0.1492  0.0417 -0.1528
28026W        W48306  18.993   5.993   1.506  0.0573 -0.2632 -0.1065
28027W        W48307  13.101  14.061   4.756  0.0252  0.2507 -0.1302
28028W        W48308  18.021  19.729   2.113 -0.2215  0.0797  0.0739
28029W        W48309  10.899   7.798  13.399 -0.0493  0.0746  0.0698
28030W        W48310  14.864  12.708  13.836 -0.0421 -0.0950  0.1110
28031W        W48311   1.056   9.604   0.830 -0.4140 -0.0323  0.0941
28032W        W48312   7.926   8.541  13.649 -0.0934 -0.2301 -0.2204
28033W        W48313  17.215  18.743   0.173  0.0335 -0.0976  0.0243
28034W        W48314  15.548   7.932  11.229  0.1126  0.1822  0.0637
28035W        W48315   2.087   0.275   3.398 -0.0091  0.0948  0.1421
28036W        W48316   1.848  15.636  12.735 -0.0599 -0.1847 -0.1003
28037W        W48317   1.812  12.620   0.673  0.0484  0.0455  0.0718
28038W        W48318   6.149   9.128   3.916  0.0366 -0.2643 -0.0953
28039W        W48319  15.226  16.450   2.076  0.0181  0.2576 -0.0164
28040W        W48320  16.559   6.214   2.753  0.1700  0.0047  0.0268
28041W        W48321   2.905  19.427   4.796 -0.1591  0.0877  0.1150
28042W        W48322  16.871   1.606  10.930 -0.1120  0.2679 -0.0152
28043W        W48323  13.621   7.967  13.172  0.2534  0.1718 -0.0780
28044ION     NA48324   6.190   9.402  12.548 -0.0417 -0.2970  0.1353
28045ION     NA48325   4.537   4.663   4.842 -0.4330 -0.3136  0.0941
28046ION     NA48326  11.723   1.029   1.817  0.1208  0.1172 -0.1359
28047ION     NA48327   4.067   5.273   4.950  0.2376  0.2688 -0.3458
28048ION     NA48328  14.042   3.244   9.111  0.1421  0.0793  0.4405
28049ION     NA48329   2.672  19.653  10.329  0.1255  0.1650 -0.0920
28050ION     NA48330   7.846   8.936   9.727 -0.0565 -0.0103 -0.2857
28051ION     NA48331  13.509  13.448   0.353  0.3065 -0.2956  0.1992
28052ION     NA48332  18.024   7.231   3.737  0.0391  0.0730  0.0004
28053ION     NA48333   0.602  13.853   8.907  0.0638 -0.1666  0.1484
28054ION     NA48334   9.376   1.735   9.457  0.0608  0.2200 -0.0306
28055ION     NA48335  14.009  12.557  11.004 -0.3670 -0.5447 -0.1043
28056ION     NA48336   1.846   5.056   9.589 -0.0208 -0.0104 -0.0612
28057ION     NA48337   2.509  11.375   2.295  0.2878  0.0733  0.1685
28058ION     NA48338  17.804   1.422   0.182 -0.4091 -0.3203 -0.1036
28059ION     NA48339  11.116  12.888   1.559  0.1132 -0.0246 -0.1091
28060ION     NA48340   5.208   2.400  12.343  0.3873 -0.0306  0.2693
28061ION     NA48341  17.281   0.276   4.387 -0.0190 -0.0741 -0.2243
28062ION     NA48342   6.874  15.771   9.689 -0.0799 -0.2902 -0.1811
28063ION     NA48343  14.730  19.017   0.038 -0.1114 -0.0817  0.3742
28064ION     NA48344  14.644   3.518   3.952 -0.1213 -0.3942  0.0334
28065ION     NA48345   8.086   6.351   4.752  0.3325 -0.2019  0.3783
28066ION     NA48346  12.764  19.838   0.973 -0.2719 -0.1097  0.0054
28067ION     NA48347   8.520   2.950   9.973  0.1876  0.1449  0.0312
28068ION     NA48348   3.596  17.429   9.726  0.2554 -0.0972 -0.0342
28069ION     NA48349   2.314   4.193   1.984  0.0793 -0.5789 -0.2041
28070ION     NA48350   2.821  13.956   0.665 -0.1717 -0.2857 -0.0821
28071ION     NA48351   3.700  14.064   9.631  0.1156  0.0120  0.0444
28072ION     NA48352   1.437  18.993   2.576  0.0125 -0.2254  0.0175
28073ION     NA48353   2.254   2.611   9.632  0.0309 -0.0681  0.1649
28074ION     NA48354  12.533   2.900   9.414  0.1976  0.1628 -0.0346
28075ION     NA48355   4.294   3.016   4.741  0.0563  0.1614 -0.4223
28076ION     NA48356  17.459  12.651   3.979  0.2147 -0.1478  0.1956
28077ION     NA48357   7.010  17.809  12.998  0.1112 -0.0044  0.1307
28078ION     NA48358   8.086   1.337   2.505  0.0890 -0.1477  0.3195
28079ION     NA48359  11.699  19.506  11.873 -0.3053 -0.0266 -0.0115
28080ION     NA48360  15.465   4.757  10.182 -0.0959  0.1293 -0.2168
28081ION     NA48361   1.652  17.201   9.533  0.3637  0.0316  0.0795
28082ION     NA48362   4.011   1.492  10.000 -0.0213  0.0656 -0.3474
28083ION     NA48363   3.428   4.070  11.898  0.0765  0.0453  0.3340
28084ION     NA48364  17.678  14.932   3.965  0.0172 -0.0119  0.1380
28085ION     NA48365  17.402   2.959   4.217  0.0133 -0.2815 -0.1048
28086ION     NA48366   4.897   9.079   1.564  0.1705 -0.5629  0.1129
28087ION     NA48367  12.378  19.058   1.833  0.0525 -0.1130  0.0393
28088ION     NA48368  18.345  19.492   9.431 -0.2709 -0.1230  0.3454
28089ION     NA48369  10.076  12.114   5.147 -0.1373  0.4365  0.1478
28090ION     NA48370   2.570  11.953   9.634  0.0240  0.3362 -0.1275
28091ION     NA48371   8.543   4.746   9.529  0.3221 -0.0239 -0.2497
28092ION     NA48372  13.406  10.097   9.725  0.2905 -0.0889 -0.1616
28093ION     NA48373   9.542   2.859   2.496 -0.1405  0.0119 -0.3125
28094ION     NA48374   5.435   4.649   4.931  0.1075  0.0458 -0.5665
28095ION     NA48375   3.076  12.825   1.159 -0.1684 -0.0398 -0.0711
28096ION     NA48376   1.449  14.323   3.063 -0.1335 -0.0424 -0.1812
28097ION     NA48377  18.869  11.339   4.227 -0.0519 -0.0807  0.0257
28098ION     NA48378   1.272   3.466  12.656 -0.0268  0.1012 -0.1315
28099ION     NA48379  10.463   1.081  10.178 -0.0478 -0.3847 -0.2000
28100ION     NA48380   4.919  19.563  10.233  0.2698 -0.2064 -0.0552
28101ION     NA48381  18.521   9.873   4.082 -0.0559  0.0523 -0.1035
28102ION     NA48382  19.750   3.724  13.134  0.0709  0.0953 -0.0121
28103ION     NA48383  14.468  11.073  12.885  0.2240  0.1629  0.3466
28104ION     NA48384   4.363   6.051   4.650  0.1638  0.0668  0.0106
28105ION     NA48385  16.656  13.748   8.829 -0.1498  0.1316  0.1202
28106ION     NA48386   3.567   2.079   4.769  0.0167  0.1253 -0.0631
28107ION     NA48387  19.668   5.349   0.986 -0.0958 -0.1187  0.0082
28108ION     NA48388   1.875   2.546  13.577  0.1136 -0.1910 -0.1598
28109ION     NA48389   9.676   5.380   9.373 -0.1464 -0.2227 -0.5136
28110ION     NA48390   8.464   9.971   9.545  0.0191  0.1431 -0.0312
28111ION     NA48391   3.066  18.065  10.028 -0.1181 -0.2136 -0.2858
28112ION     NA48392   9.668  17.845   3.542 -0.1594  0.2832  0.0161
28113ION     NA48393   1.103   3.530   0.027  0.1790 -0.0636  0.0685
28114ION     NA48394  17.839  16.672   4.226 -0.1414  0.1185 -0.1905
28115ION     NA48395  10.503   7.111   9.563  0.0270 -0.0224  0.0937
28116ION     NA48396  16.448  10.248   4.265  0.2535 -0.0558 -0.1325
28117ION     NA48397   0.405   1.318   4.660  0.2181 -0.3408 -0.0455
28118ION     NA48398  12.815   5.454   2.871  0.0164  0.1392  0.1038
28119ION     NA48399   0.087   7.722   9.108 -0.1075 -0.0711 -0.0067
28120ION     NA48400  14.586  10.949  10.462  0.2379 -0.2059  0.0412
28121ION     NA48401   2.020  14.105   9.924 -0.0804 -0.0774  0.0463
28122ION     NA48402   1.772   8.406   4.543 -0.1352  0.0674 -0.0458
28123ION     NA48403   5.395   8.970   9.927  0.0423  0.0693  0.2156
28124ION     NA48404   4.900   9.515  11.395 -0.0814 -0.2387 -0.0731
28125ION     NA48405  17.568  19.340   8.987 -0.0279  0.3453 -0.2674
28126ION     NA48406   1.005   8.877   4.611 -0.0586 -0.1895 -0.0625
28127ION     NA48407   3.175  18.903   9.959 -0.1656 -0.3521 -0.0396
28128ION     NA48408   8.467   0.311   0.024 -0.1037  0.1541 -0.2168
28129ION     NA48409  17.440   1.075   3.870  0.0935  0.0847  0.0509
28130ION     NA48410   8.597  19.666   4.262 -0.0903 -0.0841 -0.1738
28131ION     NA48411   1.484  17.947  12.927  0.0600 -0.1922 -0.5550
28132ION     NA48412   7.490  16.742   9.437 -0.3374  0.0207  0.0906
28133ION     NA48413   1.973  18.705   4.874 -0.6230 -0.0696  0.1536
28134ION     NA48414   9.490   3.648   9.571  0.0090 -0.1556 -0.1084
28135ION     NA48415  15.462  10.343  11.121 -0.3340  0.3032 -0.1707
28136ION     NA48416   1.674   6.846   4.417 -0.0442  0.1830 -0.0724
28137ION     NA48417  11.649   3.341   9.299  0.1289  0.3901  0.0227
28138ION     NA48418  19.646   9.879   8.892  0.1862 -0.0099  0.0941
28139ION     NA48419   7.159   7.930   4.798  0.1880  0.3367 -0.1740
28140ION     NA48420   4.096   8.868   2.150  0.0350 -0.0069  0.0733
28141ION     NA48421  11.374   3.789   4.401 -0.1766 -0.3774 -0.2362
28142ION     NA48422  17.970   2.261   4.212  0.1559 -0.0363  0.1854
28143ION     NA48423   5.378  12.830   4.401 -0.2270 -0.0614  0.1113
28144ION     NA48424  18.186  14.392  13.776 -0.0236  0.1124 -0.0661
28145ION     NA48425   0.119  12.683  10.848  0.2132 -0.1139 -0.3254
28146ION     NA48426  18.515   6.323  12.041  0.1974  0.1938  0.3094
28147ION     NA48427  10.467  15.913  12.648 -0.1130 -0.0194  0.0141
28148ION     NA48428   5.014  10.673   9.669  0.0618  0.0511 -0.1017
28149ION     NA48429  12.025   5.295   4.712  0.0173  0.0031 -0.0274
28150ION     NA48430   1.587  10.312   9.353  0.0745 -0.1159  0.1861
28151ION     NA48431  15.159   0.513   0.311  0.0796 -0.1321  0.0107
28152ION     NA48432  18.435  13.207  13.761 -0.1240  0.0898 -0.4430
28153ION     NA48433  13.382  14.286  10.931 -0.0029 -0.3023 -0.0847
28154ION     NA48434   9.709   1.306   9.711  0.0867  0.2044 -0.0590
28155ION     NA48435  14.215  18.287  11.866  0.2236  0.0866  0.0428
28156ION     NA48436   9.227   9.871   0.851 -0.2801  0.2081 -0.1114
28157ION     NA48437   8.898  18.740   4.511 -0.0386 -0.0566  0.1580
28158ION     NA48438   9.378   2.062   1.658  0.0304 -0.1711  0.0642
28159ION     NA48439   4.706  14.832   9.724  0.3283  0.1853 -0.1674
28160ION     NA48440   7.250  19.273  11.122  0.0093  0.1324  0.3344
28161ION     NA48441  16.284   2.589   9.534 -0.0351  0.2172 -0.0233
28162ION     NA48442  15.368  12.339   0.841 -0.2025 -0.1529  0.0115
28163ION     NA48443  11.468   4.837  12.002  0.2033  0.0374  0.2699
28164ION     NA48444   9.199  16.305   1.261  0.0486 -0.0148 -0.1767
28165ION     NA48445  19.808   3.824   4.724  0.1957  0.1466 -0.2294
28166ION     NA48446   6.508  19.075   4.754  0.1198  0.1956 -0.0694
28167ION     NA48447  16.790  18.411  13.806 -0.1319 -0.0418  0.1010
28168ION     NA48448  14.698  15.036   3.936  0.0627 -0.0640  0.1044
28169ION     NA48449   5.983   2.550   4.681  0.0522  0.1627 -0.3432
28170ION     NA48450   8.599   8.675   4.564 -0.0104 -0.0486  0.4368
28171ION     NA48451   7.799  10.337   9.982  0.4283  0.0725 -0.0233
28172ION     NA48452  17.707   0.045  10.788 -0.0332  0.2132 -0.0892
28173ION     NA48453   7.161  15.084  13.805  0.1196 -0.0996  0.1423
28174ION     NA48454  10.889  11.713   4.650 -0.0018 -0.0633  0.1843
28175ION     NA48455  13.055  16.094   9.665 -0.3920  0.0419 -0.3592
28176ION     NA48456   6.095   9.193   4.950  0.0706  0.1506 -0.0064
28177ION     NA48457   0.372   7.416   4.043  0.0753 -0.1813  0.1497
28178ION     NA48458   2.360   2.030   9.577 -0.0301 -0.1167  0.1614
28179ION     NA48459  17.112  15.458   3.695 -0.0689  0.2373  0.1707
28180ION     NA48460  18.575   2.522   9.056 -0.2254  0.1853 -0.0760
28181ION     NA48461   2.890   5.997   9.578  0.2047 -0.1134  0.1312
28182ION     NA48462   5.396   1.130   0.236  0.2696  0.0599  0.3173
28183ION     NA48463   4.878   5.843   9.724  0.1644  0.0272 -0.0670
28184ION     NA48464  14.932   7.435  12.682  0.0905  0.2801  0.0477
28185ION     NA48465   1.068   5.456   0.197 -0.5115 -0.0611 -0.0379
28186ION     NA48466   3.499  12.175   1.065 -0.0740 -0.0975 -0.0587
28187ION     NA48467   6.357   9.100  10.364 -0.1883  0.4616  0.1886
28188ION     NA48468  15.856   7.060   4.681  0.3527 -0.5184 -0.2456
28189ION     NA48469   4.585   2.028   4.038  0.3056  0.1008 -0.1117
28190ION     NA48470   0.225  13.074   8.869 -0.3720 -0.0186  0.0971
28191ION     NA48471   0.927   7.181   9.148  0.0772 -0.1146 -0.2018
28192ION     NA48472   7.051   9.319   4.759 -0.0456 -0.0897  0.0363
28193ION     NA48473  15.181   6.629   0.003  0.1942 -0.2307  0.1266
28194ION     NA48474  12.532  12.758   9.913 -0.0198  0.1268  0.1394
28195ION     NA48475   5.524   2.758   4.429  0.0758 -0.3504 -0.1220
28196ION     NA48476   5.278   6.148   9.508  0.0972 -0.2081 -0.2942
28197ION     NA48477   1.857  16.323  13.841  0.1027  0.0480  0.1211
28198ION     NA48478  11.549   8.782   4.341  0.1078  0.0928 -0.0909
28199ION     NA48479  13.061  19.101   9.108 -0.1329 -0.0124  0.0134
28200ION     NA48480  11.072   0.697   4.555 -0.0912 -0.1914  0.2891
28201ION     NA48481   9.286  15.758   2.490  0.1078  0.1883  0.3434
28202ION     NA48482   0.168  15.536  11.049  0.0270 -0.3594 -0.0426
28203ION     NA48483  16.646  11.104   3.988  0.2639 -0.1130  0.0984
28204ION     NA48484   1.167   7.546   4.457 -0.3244 -0.3392  0.0595
28205ION     NA48485   2.077  15.386   9.314 -0.2815 -0.1543  0.2546
28206ION     NA48486  15.964   2.953   4.382  0.1035  0.2217 -0.6085
28207ION     NA48487   3.563   8.883   9.446  0.0430 -0.0604  0.1544
28208ION     NA48488  17.861   3.765   9.092  0.0871 -0.3132  0.0524
28209ION     NA48489   8.025   7.498   9.568  0.1038 -0.2859  0.0205
28210ION     NA48490  17.052   4.297   9.028  0.0008  0.1802  0.0239
28211ION     NA48491  14.383   0.742   4.327 -0.0025  0.0427  0.0974
28212ION     NA48492   3.470   3.568   5.026  0.0317 -0.2772 -0.1526
28213ION     NA48493   1.366   9.321   4.600  0.0723  0.1311  0.1240
28214ION     NA48494  10.052   7.614  12.039 -0.2336  0.0968  0.0531
28215ION     NA48495  11.465   7.019   9.706 -0.3118  0.0430 -0.1046
28216ION     NA48496  17.736   5.573  12.008  0.0341  0.1300  0.0246
28217ION     NA48497   3.735  10.603  13.733  0.2135  0.1350 -0.0689
28218ION     NA48498   0.499  19.309   9.618  0.2024 -0.0241 -0.2212
28219ION     NA48499   6.032   0.673   4.686  0.1523  0.4049  0.1950
28220ION     NA48500  17.857   8.371   9.203 -0.2143 -0.3105  0.0059
28221ION     NA48501   4.314  17.874  11.653 -0.1476  0.2284  0.0071
28222ION     NA48502   3.824  11.354  12.550 -0.0957  0.2606 -0.1914
28223ION     NA48503  14.411   1.491  12.610 -0.0748  0.0496  0.2473
28224ION     NA48504  18.748  17.043   4.320  0.1435  0.0718 -0.0387
28225ION     NA48505   4.719   7.491   4.613  0.0098  0.1961 -0.3114
28226ION     NA48506  13.542   5.184  12.774  0.0324  0.1701 -0.1173
28227ION     NA48507  10.749  10.712   4.764  0.0734  0.0090 -0.2425
28228ION     NA48508   5.083  17.727   4.682  0.2549  0.0400 -0.0889
28229ION     NA48509   7.231  14.179   9.800  0.1052  0.0507 -0.0486
28230ION     NA48510  17.575   4.542   9.246 -0.0526 -0.1722  0.0246
28231ION     NA48511  12.290   6.778   2.480  0.0819 -0.2576 -0.1725
28232ION     NA48512   4.902   3.579   4.269 -0.1949  0.0509  0.1590
28233ION     NA48513  16.931   0.670   1.622 -0.3526  0.1015 -0.2148
28234ION     NA48514  12.036  18.097   4.284 -0.1619 -0.3456 -0.2639
28235ION     NA48515  14.556   2.022   4.471 -0.1532  0.1673 -0.2982
28236ION     NA48516   4.975   5.803   4.342 -0.0505 -0.2555 -0.1116
28237ION     NA48517   8.263   1.815   4.462 -0.3581  0.0122  0.4654
28238ION     NA48518  16.458   7.401   0.058 -0.0704 -0.0334 -0.1049
28239ION     NA48519  19.188  10.532   4.249  0.1791 -0.3311  0.0410
28240ION     NA48520  13.000   1.115   0.935  0.2057 -0.0210  0.2101
28241ION     NA48521   9.968   3.348  11.874 -0.0579 -0.0511  0.4118
28242ION     NA48522   1.747   5.960  13.277  0.1972  0.0387 -0.1128
28243ION     NA48523   6.056  18.534  12.597 -0.1606  0.2240 -0.3873
28244ION     NA48524   6.708   1.973   3.120 -0.1153  0.0732  0.2806
28245ION     NA48525   2.220   8.559   9.128 -0.2043  0.2843 -0.0478
28246ION     NA48526  10.536  18.294   4.546  0.1530  0.2761 -0.0304
28247ION     NA48527  11.308  13.603  13.467 -0.0977  0.1466  0.1052
28248ION     NA48528   5.901   1.552   9.820  0.2034 -0.1230 -0.4310
28249ION     NA48529  12.104   5.104   9.752  0.1520 -0.0128  0.2846
28250ION     NA48530   7.526  17.284   9.614  0.1023  0.1192  0.0938
28251ION     NA48531   4.193  14.852  13.458  0.2126  0.3088  0.2153
28252ION     NA48532  14.595   1.686   9.062 -0.0426  0.2906  0.2414
28253ION     NA48533   0.594  16.025  12.518  0.0948 -0.0538  0.1735
28254ION     NA48534   4.521   2.172  10.516 -0.2017  0.0947  0.1176
28255ION     NA48535  15.408   5.837   2.181  0.0883 -0.2139 -0.0286
28256ION     NA48536   6.385   8.374   9.702 -0.0342  0.3501 -0.0199
28257ION     NA48537  11.035  16.604  12.482  0.1622 -0.2388  0.2051
28258ION     NA48538   5.704   6.836   9.557 -0.0041  0.1147 -0.1588
28259ION     NA48539   3.749   7.881   4.370  0.2875  0.3604 -0.0469
28260ION     NA48540   7.414   2.482   4.631  0.3078  0.1225  0.0117
28261ION     NA48541   7.344   6.299   9.296 -0.2742  0.0735 -0.1374
28262ION     NA48542   2.312  13.193   4.648 -0.0932 -0.2279  0.0314
28263ION     NA48543   5.459   7.628   2.005 -0.2039  0.1445 -0.2316
28264ION     NA48544  12.039   9.376   3.884 -0.1419  0.0105  0.1538
28265ION     NA48545  13.686  16.779  12.048  0.2710  0.1639  0.2247
28266ION     NA48546  17.611  13.752   8.838 -0.1458 -0.1000  0.2677
28267ION     NA48547  12.444   6.180   4.730  0.0891 -0.2700 -0.1946
28268ION     NA48548  15.682  19.033   8.890  0.0574 -0.0924  0.0144
28269ION     NA48549  10.942  13.926   4.598  0.4188 -0.0528  0.0983
28270ION     NA48550  16.679  15.222  11.453 -0.1531 -0.2188 -0.0580
28271ION     NA48551   2.964   4.577   9.777 -0.2072 -0.0924 -0.0190
28272ION     NA48552  18.884   1.830   0.861 -0.1098  0.1963  0.0903
28273ION     NA48553   2.084  16.178   4.851  0.0423 -0.1614 -0.1286
28274ION     NA48554  18.825   6.731   4.292 -0.2441  0.1462  0.0159
28275ION     NA48555  14.403   7.459  11.713  0.2574 -0.0441  0.0454
28276ION     NA48556  18.156   8.669   3.827 -0.1246  0.2251  0.0424
28277ION     NA48557   6.505  12.242  11.866  0.1676 -0.3588  0.0211
28278ION     NA48558   0.250   0.592   4.256  0.1709 -0.1259 -0.1017
28279ION     NA48559   7.592  13.315   4.977  0.1072 -0.0898  0.0938
28280ION     NA48560  17.934   8.216   1.084  0.0101  0.0798 -0.0394
28281ION     NA48561   3.647   9.291  11.545 -0.0347 -0.0425 -0.1142
28282ION     NA48562  13.457   4.954   9.162  0.0670 -0.1089  0.0917
28283ION     NA48563   1.625   4.814   4.584 -0.0475  0.2399 -0.1062
28284ION     NA48564   0.882   1.370   9.372  0.0573 -0.0702  0.2497
28285ION     NA48565   3.364   8.409   0.098  0.0148  0.0433 -0.0097
28286ION     NA48566  17.034   1.976   2.823  0.2353  0.2860 -0.1491
28287ION     NA48567  10.118  18.915  12.808 -0.0579 -0.0560 -0.0026
28288ION     NA48568  13.926  14.597   4.589  0.1233 -0.0702  0.0500
28289ION     NA48569  13.719  10.988  13.601 -0.1704  0.0116  0.1651
28290ION     NA48570  18.694  18.823   4.160  0.0833  0.1040  0.0369
28291ION     NA48571   4.566  18.633   9.808  0.1698  0.2701  0.0179
28292ION     NA48572  17.029   6.463   4.142 -0.2856  0.0263  0.2218
28293ION     NA48573  10.173   9.937   1.398 -0.2180  0.1588  0.1381
28294ION     NA48574  15.169  11.357   3.979 -0.3413  0.1086  0.0333
28295ION     NA48575  16.611   8.102   0.662 -0.0155 -0.1344 -0.1761
28296ION     NA48576   4.030   8.312  13.474  0.0020  0.0962  0.0448
28297ION     NA48577  15.951  18.054   4.455 -0.4995  0.1174  0.1456
28298ION     NA48578   7.253   0.655   0.614 -0.2743 -0.0767  0.2268
28299ION     NA48579   5.785  17.671  12.079 -0.1532  0.0088  0.0946
28300ION     NA48580   9.788  18.563   4.105 -0.2000 -0.0123 -0.2589
28301ION     NA48581   2.135   0.025   4.725  0.0221  0.2277 -0.0413
28302ION     NA48582   1.973   6.511   9.356 -0.0378 -0.2599 -0.1752
28303ION     NA48583   7.732   2.458   9.614  0.3567 -0.3265  0.0699
28304ION     NA48584   4.430  13.574   9.877 -0.0261 -0.0158  0.0393
28305ION     NA48585  13.401   7.758   9.280  0.0919 -0.0962  0.0721
28306ION     NA48586   9.953  19.528   4.442 -0.1410  0.0457  0.0783
28307ION     NA48587   3.323  12.714   9.636  0.0570  0.3561 -0.2260
28308ION     NA48588   9.409  12.766   9.701  0.2807  0.1908  0.1786
28309ION     NA48589  11.609  16.909  10.132  0.4387 -0.2689  0.3406
28310ION     NA48590  15.668  10.681   8.939 -0.0913 -0.0585 -0.2543
28311ION     NA48591  16.490  11.879   9.088  0.1605  0.2220  0.0270
28312ION     NA48592   2.748  16.152   0.666  0.3224 -0.0245 -0.0606
28313ION     NA48593  12.634   6.125  11.688  0.1047 -0.0188  0.2145
28314ION     NA48594   8.869   0.423   0.783 -0.1781  0.1596 -0.1349
28315ION     NA48595  14.232  17.415   2.241  0.0974  0.1580  0.1574
28316ION     NA48596  16.223  17.237   4.626 -0.1788  0.0021  0.0568
28317ION     NA48597   6.036   2.156   2.253 -0.1240  0.1956 -0.1558
28318ION     NA48598   3.671  13.683   4.878  0.0940 -0.2667  0.0401
28319ION     NA48599   3.133   2.021   1.812  0.1348  0.3010 -0.0446
28320ION     NA48600   9.517  18.264   9.539  0.0972 -0.1719 -0.0216
28321ION     NA48601  10.239  11.676   9.520 -0.1604 -0.0856 -0.0610
28322ION     NA48602   0.898  17.547   9.366  0.2528  0.1180  0.2215
28323ION     NA48603   9.427  13.945   2.472 -0.1489 -0.0920  0.0655
28324ION     NA48604   0.126  10.704   4.460  0.0675 -0.2568 -0.0415
28325ION     NA48605  18.993  12.205   3.991  0.1700 -0.0442 -0.1425
28326ION     NA48606   0.139   0.253   9.785 -0.3764  0.0594  0.1024
28327ION     NA48607   2.675  15.268   1.878  0.1182  0.0287 -0.3340
28328ION     NA48608   5.746  19.630   4.419 -0.1958  0.1080  0.0480
28329ION     NA48609  11.789  17.372   9.348 -0.0682 -0.1066 -0.1620
28330ION     NA48610   9.667   0.361   4.364  0.3241  0.1027 -0.1237
28331ION     NA48611  13.295   3.182   4.345 -0.2364 -0.0672 -0.0659
28332ION     NA48612   6.352  12.165   9.785  0.0962 -0.1043  0.3080
28333ION     NA48613   0.500  14.702  12.726 -0.1803  0.0821 -0.0326
28334ION     NA48614   3.857  16.803   9.861 -0.2650  0.0469  0.1512
28335ION     NA48615  11.190  17.077   4.835  0.0516 -0.0695 -0.1713
28336ION     NA48616  14.279  11.489   4.027 -0.1064  0.1787 -0.2416
28337ION     NA48617  14.773   8.031   8.965 -0.0667 -0.2200 -0.2450
28338ION     NA48618  15.320   1.064   9.241 -0.2544 -0.0096 -0.0356
28339ION     NA48619  10.218  14.433   4.961  0.1591  0.0374  0.1896
28340ION     NA48620   5.761  18.415  13.424 -0.1903 -0.2869  0.1648
28341ION     NA48621   9.878  15.753  10.030 -0.0874 -0.1223  0.0293
28342ION     NA48622   5.690   5.798   5.014  0.2013 -0.2114 -0.1170
28343ION     NA48623  19.549  12.466   8.668 -0.2362  0.0449 -0.0004
28344ION     NA48624  16.947   7.833   3.487  0.1304 -0.3791  0.2380
28345ION     NA48625  12.507   8.165   2.070  0.0604  0.0433  0.1638
28346ION     NA48626  12.125  14.774   4.603  0.1369 -0.2209 -0.0583
28347ION     NA48627   9.634  13.734   9.657  0.4827 -0.1520  0.0363
28348ION     NA48628  19.477   1.519   4.408  0.1711  0.0897  0.0740
28349ION     NA48629  19.206   9.640   8.872 -0.1416 -0.0547 -0.1348
28350ION     NA48630   5.264  16.288   5.083  0.2138 -0.1305  0.0502
28351ION     NA48631  15.284   9.192   8.988  0.2724 -0.0348  0.1419
28352ION     NA48632  16.510   3.245   1.541  0.1202  0.0543 -0.0095
28353ION     NA48633   9.875   5.895   2.727  0.0822 -0.0162 -0.1722
28354ION     NA48634   8.852  19.257   2.196  0.0388  0.1215  0.1498
28355ION     NA48635   6.288  17.273   1.415 -0.0409  0.1094  0.0386
28356ION     NA48636  10.730  14.380   4.583  0.1520 -0.0948 -0.2036
28357ION     NA48637  10.439   8.056   9.853  0.0481 -0.0673  0.0505
28358ION     NA48638   4.455  18.348   4.661 -0.0903  0.1590 -0.0086
28359ION     NA48639  19.093   1.592   9.482 -0.0031 -0.1982  0.2437
28360ION     NA48640  18.006   6.622   2.349 -0.2029 -0.1813  0.0335
28361ION     NA48641   2.248  13.895  10.852  0.0905 -0.2264  0.1065
28362ION     NA48642  18.526  14.726   1.404  0.4614 -0.0418 -0.1832
28363ION     NA48643   7.770   7.756   0.671 -0.0183 -0.0239 -0.0838
28364ION     NA48644   6.179  15.259   4.974 -0.0951 -0.1023 -0.2975
28365ION     NA48645  16.624   2.488   4.138  0.0053 -0.1375 -0.0437
28366ION     NA48646   0.162   5.439   4.252  0.0475 -0.0552  0.4222
28367ION     NA48647   2.607   6.567   3.461  0.0016 -0.1617 -0.0558
28368ION     NA48648   1.974   2.858   4.776 -0.2572 -0.2587 -0.3354
28369ION     NA48649   9.119   8.321  13.667  0.0218 -0.0172 -0.1881
28370ION     NA48650  17.586  11.624   3.875 -0.1701 -0.2563 -0.0939
28371ION     NA48651  18.464   3.024  13.029  0.2237 -0.2377  0.0144
28372ION     NA48652  15.316   6.766   9.567 -0.3501  0.2481  0.0986
28373ION     NA48653  12.419   2.195   4.804  0.1002  0.2468  0.2896
28374ION     NA48654  18.003  16.225   9.148 -0.0029 -0.2068  0.0232
28375ION     NA48655   6.417   3.841   4.686 -0.2658  0.0095 -0.0595
28376ION     NA48656  12.764  13.979   9.523  0.0695  0.1012  0.1406
28377ION     NA48657  15.326  17.522   4.536  0.0841 -0.0478  0.3426
28378ION     NA48658  14.551   3.448   4.466  0.2061  0.1956  0.1266
28379ION     NA48659   4.557  13.647   4.871  0.0137  0.1135 -0.4116
28380ION     NA48660   9.706   3.694   4.660  0.1342 -0.3159 -0.1451
28381ION     NA48661   3.120   5.055   0.289 -0.0514 -0.0858  0.0889
28382ION     NA48662  18.165  12.933   4.065  0.0532 -0.2408 -0.1236
28383ION     NA48663   9.193   5.622   4.601  0.2576 -0.1045 -0.1159
28384ION     NA48664   8.897  15.520   4.854  0.1445  0.3718  0.2518
28385ION     NA48665  11.571  13.825   4.763 -0.3197  0.1209 -0.0494
28386ION     NA48666   5.841   0.010   9.695 -0.3718 -0.1484  0.0522
28387ION     NA48667  16.893   2.788   9.055  0.1008 -0.1318  0.2718
28388ION     NA48668   4.871  10.114  13.309  0.0904  0.3487  0.2204
28389ION     NA48669   9.783   8.741   1.805  0.1395 -0.0435  0.0055
28390ION     NA48670  15.055  15.086   4.289  0.1209  0.0649  0.1884
28391ION     NA48671  19.553  19.145  13.638  0.2094 -0.3043 -0.4527
28392ION     NA48672  18.566   1.939   4.232 -0.0342 -0.3087 -0.1405
28393ION     NA48673   2.574   8.832  12.942 -0.0578 -0.2271  0.1273
28394ION     NA48674  16.178   2.704   2.988 -0.0529 -0.2349 -0.2198
28395ION     NA48675   1.113   2.953   4.783 -0.2990 -0.1921  0.0842
28396ION     NA48676  11.821  16.710  13.089  0.7753 -0.2397  0.2447
28397ION     NA48677  13.248  18.211   9.149 -0.1627  0.1203  0.0521
28398ION     NA48678   5.474  18.749   4.843 -0.2052  0.2384  0.0967
28399ION     NA48679  17.775   2.237  13.106  0.0306  0.0747 -0.0120
28400ION     NA48680  15.819  10.745   4.078 -0.2426 -0.3144 -0.2392
28401ION     NA48681  17.742  13.971   3.816  0.0927  0.1501  0.0944
28402ION     NA48682   0.934   3.489   2.901 -0.2878  0.2464 -0.2573
28403ION     NA48683   0.469   4.839  10.071  0.2525  0.0175 -0.0976
28404ION     NA48684  15.665  18.947   4.213 -0.2079 -0.1385  0.3713
28405ION     NA48685  11.953  16.671   4.487 -0.0419 -0.2164  0.0948
28406ION     NA48686  15.274   2.977  11.773 -0.0183 -0.1473  0.1172
28407ION     NA48687  17.829   9.693   4.029  0.0942  0.0723  0.0572
28408ION     NA48688   8.718  12.244   5.064 -0.0447  0.2652  0.0505
28409ION     NA48689  13.246  11.249   4.129 -0.1465 -0.1077 -0.1558
28410ION     NA48690  19.106   0.535  13.212  0.1444  0.0095 -0.1262
28411ION     NA48691  17.441  13.874   2.934 -0.0707 -0.0183  0.1340
28412ION     NA48692  11.161  12.162   9.887  0.1666 -0.0750 -0.1321
28413ION     NA48693   9.752   2.722  10.110 -0.3288 -0.1691  0.0597
28414ION     NA48694  19.043  10.647   8.613 -0.2660  0.3503  0.1942
28415ION     NA48695   8.614  14.157   4.765  0.1506 -0.4154  0.0803
28416ION     NA48696   9.546   9.620   4.881  0.0798 -0.0518  0.0635
28417ION     NA48697   6.631  12.293   5.105  0.0309  0.0603 -0.2358
28418ION     NA48698  10.589   1.431  13.516  0.0508 -0.3180  0.0578
28419ION     NA48699  18.703  10.925   2.693  0.1383  0.0360  0.1320
28420ION     NA48700   7.043  15.080   4.900 -0.2116 -0.2097  0.1309
28421ION     NA48701   1.869  10.967   4.267  0.2311 -0.2809  0.0756
28422ION     NA48702   7.617   0.402   1.300  0.1124 -0.1973 -0.0882
28423ION     NA48703  10.711   6.933   4.899 -0.0849  0.4754 -0.0215
28424ION     NA48704  16.789   9.055   2.316 -0.3758  0.0916  0.1674
28425ION     NA48705  11.160   7.695   4.610 -0.1503  0.4451  0.0017
28426ION     NA48706  10.533   3.346   4.395  0.1889  0.1235  0.2054
28427ION     NA48707  19.136   2.379   2.163 -0.0156 -0.0297  0.0772
28428ION     NA48708  11.319  15.984   9.139  0.1258 -0.1362 -0.0536
28429ION     NA48709   3.611  11.190   2.460  0.3020 -0.0815 -0.0924
28430ION     NA48710  16.971   4.428   4.531  0.0899 -0.0354  0.1980
28431ION     NA48711   9.726  18.409  13.443  0.0640  0.1898 -0.1790
28432ION     NA48712   5.791   5.420   9.533 -0.2746 -0.0275  0.0110
28433ION     NA48713   1.742  13.276   9.446  0.1794 -0.1883  0.1261
28434ION     NA48714  16.512  17.175  11.984 -0.0306 -0.0445  0.0930
28435ION     NA48715  12.599   3.192   9.016  0.1274  0.5245 -0.0523
28436ION     NA48716   6.908  15.653  13.031  0.4848 -0.4094 -0.1928
28437ION     NA48717  12.162   0.578   9.274 -0.2536  0.1752 -0.0316
28438ION     NA48718  10.253   0.256   0.926  0.2582 -0.0829  0.2419
28439ION     NA48719   4.516  12.270   3.542 -0.1166  0.0341 -0.1979
28440ION     NA48720  11.660  18.328   9.421 -0.0034 -0.1376  0.6283
28441ION     NA48721  10.684   5.246  10.202 -0.2281  0.0268 -0.0511
28442ION     NA48722  19.252   3.808   9.363  0.2281 -0.1211 -0.1649
28443ION     NA48723  19.322   2.511   4.202 -0.1044  0.1929  0.0985
28444ION     NA48724  12.636  11.706   0.867 -0.1021 -0.0938 -0.0231
28445ION     NA48725   6.227   5.966   9.361  0.2392  0.0109  0.1150
28446ION     NA48726   5.270   9.991  10.018 -0.1458 -0.2837 -0.1058
28447ION     NA48727   8.247  13.879   5.292  0.1250  0.0142  0.2795
28448ION     NA48728   0.773  12.896   4.466 -0.1635  0.0767  0.0526
28449ION     NA48729   6.533  19.387   9.500  0.1226  0.1908  0.0387
28450ION     NA48730   2.579   2.178   4.653  0.3707  0.0106  0.1733
28451ION     NA48731   0.295   3.151   4.424  0.1992 -0.1688  0.1918
28452ION     NA48732  18.854   3.351   9.307  0.2094 -0.1355  0.1798
28453ION     NA48733   3.247   0.410  10.012 -0.2882 -0.1736 -0.0390
28454ION     NA48734  19.692  17.693   3.687  0.0531  0.1104 -0.1776
28455ION     NA48735   0.976  19.081   9.670  0.0686  0.1879  0.2349
28456ION     NA48736  14.240   5.059   1.962  0.1777  0.1072  0.2335
28457ION     NA48737   8.065  12.212   9.932 -0.1019 -0.1796 -0.0848
28458ION     NA48738   4.552  12.615   4.908  0.1701  0.0137  0.1693
28459ION     NA48739   7.195  12.705   9.608  0.1141  0.3456 -0.2292
28460ION     NA48740  14.926  13.660   8.983 -0.1750 -0.0189 -0.0060
28461ION     NA48741   0.224  12.193   4.473 -0.3895 -0.0133  0.0490
28462ION     NA48742  15.168  12.811   8.854  0.0720 -0.1663 -0.2241
28463ION     NA48743  13.901  10.240  11.026  0.0376  0.1913 -0.1734
28464ION     NA48744  13.345   5.214  11.844  0.1942 -0.1088  0.1177
28465ION     NA48745  15.365   7.955  10.574  0.1832 -0.1030  0.1604
28466ION     NA48746  19.154   6.748   9.301 -0.1276  0.2162 -0.0354
28467ION     NA48747  19.917   6.203  11.239  0.0320 -0.0629 -0.0844
28468ION     NA48748   3.439  10.502   9.368  0.3623 -0.1169  0.0029
28469ION     NA48749   9.529  16.047   4.781 -0.0237 -0.0942 -0.0246
28470ION     NA48750  17.393  18.512  11.888 -0.0518 -0.3030 -0.1374
28471ION     NA48751  10.550  12.237  12.780  0.1074  0.1643 -0.1728
28472ION     NA48752   2.503   0.707   9.757  0.0459  0.0915  0.0736
28473ION     NA48753  18.763   6.504  13.516  0.0207 -0.1392  0.3150
28474ION     NA48754  10.550   9.534   4.553 -0.1407  0.0246  0.1325
28475ION     NA48755  17.234   5.546   4.324  0.0513 -0.1250  0.1444
28476ION     NA48756   5.572  18.047   2.657 -0.0247 -0.1378  0.0531
28477ION     NA48757  13.887  10.496   4.270 -0.3639 -0.1266  0.0952
28478ION     NA48758  13.261   7.721   2.520 -0.0283  0.0308 -0.1182
28479ION     NA48759  14.952   5.200   4.403 -0.0575  0.0307  0.1578
28480ION     NA48760   9.242  12.481   5.153 -0.3862  0.0500 -0.0308
28481ION     NA48761   0.656   4.262   1.581  0.3353 -0.4738  0.0417
28482ION     NA48762  11.053   1.601   9.342 -0.1298  0.2198  0.2370
28483ION     NA48763   5.224  19.358   0.810 -0.2257  0.3703  0.1924
28484ION     NA48764   8.632   9.478   5.095 -0.2439  0.0782  0.0298
28485ION     NA48765  11.701   4.152   9.700 -0.0448  0.1542  0.3171
28486ION     NA48766   1.017  16.560   4.762  0.0543  0.0859 -0.0841
28487ION     NA48767  16.278   5.514   9.152 -0.1426  0.0490 -0.3901
28488ION     NA48768  11.030   3.913   3.732  0.5350  0.0369  0.1946
28489ION     NA48769  10.854   7.197  11.048  0.3104 -0.2260  0.2133
28490ION     NA48770   5.591   7.851   4.718 -0.0712 -0.0099  0.0247
28491ION     NA48771   2.210   2.122  12.814  0.0767 -0.2345 -0.0883
28492ION     NA48772   3.202  13.581  13.169 -0.1298  0.0039 -0.2442
28493ION     NA48773   3.950   3.393   0.472  0.1562 -0.2654 -0.0880
28494ION     NA48774  14.417  14.757  12.073  0.1879  0.3667  0.3611
28495ION     NA48775  19.219   0.161   9.533 -0.3791  0.1223  0.0838
28496ION     NA48776  13.741   8.781   4.109  0.0978  0.0435  0.3817
28497ION     NA48777   9.738  13.472   3.799  0.0149  0.0503 -0.2696
28498ION     NA48778   4.915   3.114   4.927 -0.0520  0.2096 -0.2401
28499ION     NA48779  17.694   6.857   3.916  0.0251  0.4054 -0.0913
28500ION     NA48780  15.444  19.833  13.455 -0.1025  0.2571 -0.2344
28501ION     NA48781   5.197  11.819   3.800 -0.1439 -0.1217 -0.0442
28502ION     NA48782  13.584   1.851   9.010  0.2463 -0.2114 -0.0998
28503ION     NA48783  17.468   9.007  10.222  0.1222 -0.2277  0.0268
28504ION     NA48784  11.695   2.434   9.087 -0.0948 -0.0597 -0.3325
28505ION     NA48785   8.024  10.194   4.861  0.0426  0.1312  0.3258
28506ION     NA48786   9.561  14.622   9.766  0.2255 -0.1012  0.3185
28507ION     NA48787  19.330   7.518  10.431  0.1961 -0.0169  0.2927
28508ION     NA48788  14.088  16.143   9.676 -0.0188 -0.2162 -0.0258
28509ION     NA48789  18.243  18.026   9.106  0.1100 -0.2545  0.0026
28510ION     NA48790   5.714  16.133  12.382  0.1753 -0.0714 -0.0356
28511ION     NA48791  13.725   7.448   1.064  0.1376  0.2252 -0.2851
28512ION     NA48792   2.662   9.412   4.609 -0.2139 -0.1213 -0.0115
28513ION     NA48793   0.132   2.831   0.639  0.2069  0.1752  0.1088
28514ION     NA48794   8.992  16.119   9.550 -0.2285  0.0173 -0.0756
28515ION     NA48795   1.327  14.712  13.401  0.0286  0.1173  0.0706
28516ION     NA48796  11.375  15.250   4.979  0.0568 -0.1078  0.1495
28517ION     NA48797  12.053  15.990   9.518  0.1656 -0.0929  0.3570
28518ION     NA48798  15.420   1.229  12.778  0.2630 -0.2305 -0.0583
28519ION     NA48799  18.599   1.174   4.552 -0.0586  0.1055  0.0466
28520ION     NA48800   3.950  11.682   9.720  0.2260 -0.6890 -0.1919
28521ION     NA48801   6.447  10.581   4.931 -0.1654  0.0099  0.0085
28522ION     NA48802  15.132   0.734   3.298  0.0210 -0.0672 -0.2331
28523ION     NA48803  19.874  16.514   9.587 -0.3687  0.2539  0.1400
28524ION     NA48804  11.787  12.956   2.967  0.0378  0.2383  0.1450
28525ION     NA48805   3.320   3.045   2.475  0.1079  0.0437 -0.1014
28526ION     NA48806   4.653   2.953   9.698 -0.2204 -0.0221  0.0176
28527ION     NA48807  17.568   7.235   0.943 -0.0493 -0.1371  0.0374
28528ION     NA48808   8.233  12.153  10.664 -0.0023  0.2009 -0.0212
28529ION     NA48809   8.124  19.403   9.245  0.0500  0.1164  0.0882
28530ION     NA48810   3.972  19.564  10.031 -0.1765 -0.6117 -0.1098
28531ION     NA48811   2.986   1.215   4.934 -0.0923  0.0473  0.2138
28532ION     NA48812   7.665   4.646   2.596  0.1901  0.2829 -0.1412
28533ION     NA48813   1.917  14.650   1.446 -0.2704  0.0701  0.0781
28534ION     NA48814   4.603   3.988  10.854  0.2302 -0.1381 -0.1258
28535ION     NA48815   0.676  13.555  11.893 -0.1784  0.2655 -0.2276
28536ION     NA48816  15.609  14.708   0.745 -0.1927 -0.0738 -0.1333
28537ION     NA48817  19.286  11.167   0.960  0.0739  0.2176 -0.2304
28538ION     NA48818   9.617   1.272   4.697  0.0031  0.0079 -0.1807
28539ION     NA48819   2.263  17.679   9.832 -0.0988  0.1706  0.0179
28540ION     NA48820   6.033  17.864  10.062 -0.1802 -0.2930 -0.1244
28541ION     NA48821  15.962   6.740   3.339  0.1243 -0.3259  0.2137
28542ION     NA48822  10.519   0.274  12.131  0.1525  0.0185  0.0377
28543ION     NA48823   2.059  14.223   0.655  0.0856 -0.0008  0.2143
28544ION     NA48824  11.640  12.205   2.492  0.0201 -0.2033  0.0677
28545ION     NA48825  15.394   7.391  11.367  0.2421 -0.0633  0.1917
28546ION     NA48826  16.136   4.279   0.889  0.0727 -0.1475 -0.3179
28547ION     NA48827  14.299   1.248   4.361 -0.0319 -0.0310 -0.1162
28548ION     NA48828  13.675  19.417   0.936 -0.3522  0.3708  0.1330
28549ION     NA48829  17.102  11.085   9.092 -0.0041  0.2293 -0.2081
28550ION     NA48830   8.566  13.714  13.497 -0.2793 -0.0804  0.0047
28551ION     NA48831  15.845   8.344   4.307  0.1453  0.3473  0.2832
28552ION     NA48832   9.536  11.095   1.780  0.1667  0.0810  0.1532
28553ION     NA48833   1.373   2.072   9.467  0.3710 -0.3079  0.2392
28554ION     NA48834  16.466  14.660   8.892  0.1256  0.4305  0.1751
28555ION     NA48835  13.307   9.895   4.270  0.0181 -0.0417  0.0324
28556ION     NA48836   8.207   3.277  11.725  0.0875 -0.1078  0.2167
28557ION     NA48837  10.108   4.122   9.387  0.1667  0.2160 -0.3628
28558ION     NA48838  12.801  15.357   4.561  0.0877 -0.0988  0.2298
28559ION     NA48839  16.118  18.741   8.983  0.4832 -0.2411 -0.0376
28560ION     NA48840  12.989   1.106   9.263 -0.1062  0.2299 -0.3618
28561ION     NA48841   9.191  19.565  13.644  0.1281  0.0394 -0.1530
28562ION     NA48842  17.618   9.634   9.319 -0.0964 -0.1204  0.0927
28563ION     NA48843   6.174   3.850  12.463 -0.0150  0.0745 -0.2896
28564ION     NA48844  10.429  16.762  13.411  0.0798 -0.3516 -0.3625
28565ION     NA48845   9.626   4.845   4.402  0.0307 -0.0985  0.0007
28566ION     NA48846  19.565   5.459   9.738  0.0259 -0.0209 -0.1008
28567ION     NA48847   5.418  13.249   9.933 -0.2158 -0.0471 -0.1119
28568ION     NA48848  14.303   9.025   9.121 -0.0546  0.1003  0.1635
28569ION     NA48849   4.588   7.726   9.588  0.0990  0.1149 -0.2783
28570ION     NA48850   2.964   7.483   4.220  0.1365 -0.2468 -0.1583
28571ION     NA48851  17.488   6.637   9.155  0.4364 -0.2549 -0.0595
28572ION     NA48852  17.783   5.124   3.896  0.1026  0.2282  0.0138
28573ION     NA48853   1.832   6.438  12.503  0.4470 -0.0195 -0.3916
28574ION     NA48854  13.834   1.203   8.898 -0.1339  0.2233  0.0370
28575ION     NA48855   9.782   2.740   9.430  0.3132  0.2742  0.0246
28576ION     NA48856  12.205  13.659   9.505  0.0308 -0.1695 -0.1763
28577ION     NA48857   1.576   2.112   4.508 -0.3029 -0.0762 -0.1995
28578ION     NA48858  19.697  16.887   9.194 -0.1138 -0.0133 -0.0303
28579ION     NA48859  13.831   6.639  11.008  0.1683 -0.0144 -0.0490
28580ION     NA48860  15.911   8.905  10.321 -0.2597 -0.1114  0.2671
28581ION     NA48861  14.308  18.206   8.804 -0.0532  0.2076  0.2144
28582ION     NA48862   7.145  17.617   9.568 -0.0981  0.2638 -0.1231
28583ION     NA48863   3.207  17.868   1.433 -0.3294  0.1071 -0.1187
28584ION     NA48864   5.370  17.724   9.503 -0.0327 -0.0274 -0.2019
28585ION     NA48865   8.179   1.725   9.544  0.0727  0.3821 -0.2459
28586ION     NA48866  15.060   2.675   4.193  0.4932 -0.0837  0.2080
28587ION     NA48867   9.525  17.899   4.563  0.0513  0.0266  0.3016
28588ION     NA48868   6.844   2.474   2.292  0.2684 -0.0857  0.2241
28589ION     NA48869  17.805  17.006   0.105 -0.1941  0.0240  0.0658
28590ION     NA48870   8.894  10.337   4.956  0.1175  0.0618  0.0624
28591ION     NA48871  14.405  16.199  13.702 -0.1633 -0.1223 -0.0200
28592ION     NA48872   8.218  18.543   9.571  0.1056 -0.0927  0.0993
28593ION     NA48873  10.990   2.655  10.805 -0.0406  0.2834  0.0383
28594ION     NA48874  18.030  11.974   0.572  0.2302  0.2176 -0.1632
28595ION     NA48875   2.873   7.741   1.106  0.1083  0.1066 -0.0426
28596ION     NA48876  11.353   6.673   4.671 -0.2540  0.0783 -0.0644
28597ION     NA48877   4.010  16.083   0.353 -0.1585  0.0912 -0.3733
28598ION     NA48878   1.140   6.132   4.448 -0.2408 -0.0297 -0.1782
28599ION     NA48879   0.114   2.059  13.862  0.0531 -0.3250  0.0102
28600ION     NA48880   6.591   0.010   4.599  0.0044 -0.1569  0.0750
28601ION     NA48881   3.842   7.208  10.104  0.2662  0.1640 -0.0883
28602ION     NA48882  17.235  17.024   9.082 -0.2576 -0.2875  0.1202
28603ION     NA48883   3.124   0.320   4.700 -0.1856  0.1123  0.0984
28604ION     NA48884   2.037  19.149   9.792 -0.2869 -0.0968  0.2982
28605ION     NA48885  19.301   3.139   4.112 -0.4169 -0.0354 -0.1625
28606ION     NA48886  18.410   2.898   4.052 -0.0661 -0.1793  0.0169
28607ION     NA48887   0.536  16.026   4.248 -0.1998 -0.2644  0.0691
28608ION     NA48888  19.414   5.402  11.221 -0.1186  0.0417  0.0876
28609ION     NA48889   8.565  13.179   4.989 -0.0863  0.1100  0.0067
28610ION     NA48890   6.635  18.578   9.456 -0.1127  0.2540  0.1608
28611ION     NA48891   3.100  12.919   0.121  0.1670 -0.0241 -0.3108
28612ION     NA48892  10.250   1.987  11.049  0.1703  0.0442  0.4085
28613ION     NA48893  11.072   1.842   0.631  0.1536  0.0674 -0.1683
28614ION     NA48894  16.133  19.704   9.260 -0.1527  0.2066 -0.0544
28615ION     NA48895  15.620   5.622   9.673 -0.1939 -0.0977  0.1651
28616ION     NA48896   9.598   9.878   2.478 -0.1095  0.0006  0.0467
28617ION     NA48897  12.462  19.311  13.848 -0.2421 -0.0448 -0.3479
28618ION     NA48898  15.802  13.182   8.884 -0.0067 -0.1286  0.4420
28619ION     NA48899  12.442   1.172  13.246  0.3769  0.0225 -0.0748
28620ION     NA48900  12.431  11.524   3.265 -0.0989  0.0404 -0.1683
28621ION     NA48901  13.304  12.374   3.958 -0.0452  0.1783  0.1862
28622ION     NA48902   0.824   7.756   9.360 -0.0744  0.0814 -0.1704
28623ION     NA48903  14.379  19.717   4.281  0.1521 -0.2444 -0.1579
28624ION     NA48904  17.138  16.141   8.937  0.2679  0.2464  0.3276
28625ION     NA48905   6.346   8.011   2.291  0.2613 -0.4422 -0.3276
28626ION     NA48906  17.261  17.717  12.880  0.0510 -0.1369  0.0569
28627ION     NA48907   5.866  11.644   5.122  0.2563 -0.0480 -0.0586
28628ION     NA48908  15.340   3.992   9.173  0.0454  0.0171  0.0296
28629ION     NA48909   6.308  17.731   9.589  0.1146  0.1721 -0.1010
28630ION     NA48910   1.180   8.957   2.843  0.2363 -0.2646 -0.0155
28631ION     NA48911   2.766   4.773   4.503 -0.2539 -0.1588  0.0073
28632ION     NA48912   6.068   9.241   2.215  0.0257 -0.0848  0.1275
28633ION     NA48913   2.708  17.662   0.751  0.1455 -0.1965 -0.4979
28634ION     NA48914  16.075  11.175   0.762 -0.1418 -0.0653 -0.1688
28635ION     NA48915  14.575   5.414  12.836  0.0024  0.0037  0.5270
28636ION     NA48916   1.033   5.253   4.584 -0.0955  0.0153 -0.0701
28637ION     NA48917  14.908  10.551   4.310 -0.1819  0.1503 -0.1344
28638ION     NA48918   6.357  14.803   9.742  0.4138 -0.0574  0.1343
28639ION     NA48919  15.370  16.606   9.162 -0.2027  0.0414 -0.0803
28640ION     NA48920   0.219  17.700   4.592  0.0916 -0.1528 -0.0406
28641ION     NA48921   8.013  12.955   9.631 -0.0582  0.0074 -0.0858
28642ION     NA48922   2.531   5.631  11.353  0.3180  0.0766  0.1067
28643ION     NA48923   6.477   7.579   9.428  0.0700 -0.0486 -0.0790
28644ION     NA48924   7.298   0.780  13.661  0.0797  0.0356  0.1751
28645ION     NA48925  15.417  14.467   0.359 -0.1042 -0.0153 -0.0035
28646ION     NA48926   7.129   2.709   9.291 -0.1144 -0.2619 -0.2226
28647ION     NA48927  13.762  13.950   4.479 -0.1136 -0.2129  0.2551
28648ION     NA48928  16.005  16.625  10.455  0.0227  0.0120 -0.2099
28649ION     NA48929   5.658  12.397   9.759 -0.1382  0.3377  0.2296
28650ION     NA48930  10.095  13.231   9.621 -0.0790 -0.0041 -0.1567
28651ION     NA48931  15.873   1.484   9.130  0.1328 -0.1348  0.1014
28652ION     NA48932  11.005  10.100  10.175  0.2310 -0.3409  0.1642
28653ION     NA48933  15.865   2.016   4.207  0.2340  0.1193 -0.2934
28654ION     NA48934  17.040   7.370   9.181 -0.2701  0.0146 -0.0470
28655ION     NA48935  14.633   1.586   4.275 -0.0285  0.0299  0.0256
28656ION     NA48936  18.751   1.157  12.687 -0.0028 -0.2798 -0.0450
28657ION     NA48937   7.434   1.699   4.369  0.0446  0.1447 -0.1507
28658ION     NA48938  18.668  10.630  12.157 -0.2772 -0.3475 -0.0822
28659ION     NA48939   8.676   3.772  13.639 -0.0502 -0.0350 -0.0184
28660ION     NA48940   3.091  18.386   4.676  0.1929 -0.0725  0.3303
28661ION     NA48941  13.472   6.949   9.595 -0.0888 -0.6573  0.1701
28662ION     NA48942  10.845  17.692   9.367 -0.1228  0.0975  0.0105
28663ION     NA48943   6.210  13.350   4.901 -0.0900  0.1622  0.2509
28664ION     NA48944  14.162  16.631   4.568 -0.3333 -0.1853 -0.0659
28665ION     NA48945  15.513  15.464   4.103 -0.2025  0.0443  0.0983
28666ION     NA48946   8.217  17.632   9.293 -0.0608 -0.1478 -0.0881
28667ION     NA48947   8.134   2.264   4.744 -0.3402  0.1372 -0.2045
28668ION     NA48948   6.913  19.308   2.729  0.1260  0.1107 -0.0359
28669ION     NA48949   1.979  16.252   9.864 -0.0128 -0.1747 -0.0672
28670ION     NA48950  16.790  10.679   3.185  0.2250  0.2473  0.1790
28671ION     NA48951  10.785  15.326   9.559  0.0966 -0.0737 -0.0425
28672ION     NA48952   1.779   9.738   3.841 -0.1946 -0.0319  0.1502
28673ION     NA48953  12.873   3.649   2.108 -0.0582 -0.3685 -0.0166
28674ION     NA48954   7.164   7.005   0.378 -0.1776  0.0432 -0.1918
28675ION     NA48955  11.716  17.603   4.612  0.1951  0.0770  0.1133
28676ION     NA48956  14.730  14.261  12.888  0.0317 -0.3681 -0.1991
28677ION     NA48957  16.097  15.673   0.031 -0.0039  0.1504  0.2383
28678ION     NA48958  10.965  19.193   9.315  0.2512 -0.0489 -0.2780
28679ION     NA48959   8.717  16.528  10.600  0.3141 -0.0699  0.0298
28680ION     NA48960  12.964   3.143  11.144  0.2027  0.2179 -0.0947
28681ION     NA48961   0.069   2.548   9.349 -0.1587  0.0636  0.2393
28682ION     NA48962  10.332   1.305   1.712 -0.1630 -0.1901 -0.1768
28683ION     NA48963   2.080   5.484   4.215  0.1052  0.1636 -0.0696
28684ION     NA48964  11.990   6.935  13.163  0.0848 -0.1961 -0.1901
28685ION     NA48965  14.184   2.868   4.471 -0.3546  0.1104  0.0003
28686ION     NA48966   3.086  14.383  10.721 -0.1831  0.1351 -0.1134
28687ION     NA48967  13.958  15.636  10.580  0.2721 -0.0228 -0.2203
28688ION     NA48968   3.569   9.751   4.123 -0.0033  0.1511  0.0648
28689ION     NA48969  12.528  14.389   9.286 -0.2337  0.2213  0.1855
28690ION     NA48970  18.009   0.283   2.237  0.1558  0.1369  0.1069
28691ION     NA48971  13.498  11.833   9.085 -0.2661 -0.2539 -0.3854
28692ION     NA48972  16.095   4.054  11.717 -0.4770 -0.0027 -0.0513
28693ION     NA48973   6.233  19.844   1.419 -0.0698  0.0230 -0.0907
28694ION     NA48974  19.903   3.412   9.329 -0.0258 -0.1608 -0.2850
28695ION     NA48975  13.531  19.311   4.367  0.3850  0.1393  0.1419
28696ION     NA48976  10.004   8.524  13.155  0.1302 -0.0864 -0.5578
28697ION     NA48977  14.511   0.702   9.230  0.2475  0.2943  0.0772
28698ION     NA48978  11.808  11.846   4.741  0.1178 -0.3554  0.0168
28699ION     NA48979   2.686   3.034   4.787  0.0427  0.0758  0.1818
28700ION     NA48980  17.540   3.049   9.633  0.2625  0.1569 -0.2016
28701ION     NA48981  18.910   2.351  11.350  0.1238 -0.1073  0.1172
28702ION     NA48982   6.540   4.134  10.424 -0.1069 -0.1390  0.1799
28703ION     NA48983  13.748  14.399   2.239  0.1530  0.1779  0.0207
28704ION     NA48984   6.581  10.877   3.671  0.2494  0.0114 -0.2884
28705ION     NA48985  16.770  19.940   3.935  0.1563  0.1341 -0.1448
28706ION     NA48986  15.924   6.562  13.646  0.0137 -0.0773 -0.0309
28707ION     NA48987   0.327  11.527   0.205 -0.2069  0.0177  0.4394
28708ION     NA48988  15.726  14.984   9.212  0.2472  0.1877  0.2985
28709ION     NA48989  12.417   3.912   1.412  0.5036  0.2135  0.1815
28710ION     NA48990   8.029  17.711  10.083 -0.2628 -0.1040  0.3031
28711ION     NA48991   4.779  18.734  10.717 -0.1837 -0.1762 -0.0886
28712ION     NA48992  19.456  14.776   8.922 -0.1711  0.1957  0.1386
28713ION     NA48993  12.360  10.135   4.309  0.3415  0.0715 -0.1032
28714ION     NA48994   3.842  15.160   9.674  0.1712  0.0296 -0.3711
28715ION     NA48995   8.278  13.677   0.360  0.4829  0.1152 -0.1040
28716ION     NA48996   7.300  19.160   9.498 -0.1581 -0.1955 -0.0109
28717ION     NA48997   9.172  10.141   9.717 -0.0945 -0.0603  0.3145
28718ION     NA48998  12.389  18.156   0.161 -0.2112 -0.2717  0.0755
28719ION     NA48999   2.479   8.215   4.180 -0.0204 -0.1039 -0.0502
28720ION     NA49000  15.696   8.345   3.605  0.1912  0.0248  0.1399
28721ION     NA49001   2.109  17.507   4.133  0.0519 -0.0193  0.1737
28722ION     NA49002  15.202   0.007   9.111  0.1186 -0.1917  0.0936
28723ION     NA49003  12.909   9.551   9.324 -0.0247 -0.1551 -0.1848
28724ION     NA49004  18.733   7.851   0.782  0.0859 -0.2557 -0.1741
28725ION     NA49005   3.604   9.135   4.628 -0.2825 -0.0605 -0.0287
28726ION     NA49006  16.125   6.504   9.072 -0.3990  0.0049  0.0822
28727ION     NA49007  13.306  10.530  10.422 -0.0713 -0.0383  0.1625
28728ION     NA49008  19.286   8.154   9.280  0.0925 -0.0539  0.0090
28729ION     NA49009  17.879   1.416   9.130 -0.0221 -0.0277  0.0608
28730ION     NA49010  15.889   9.260   0.535  0.1754 -0.1474  0.1777
28731ION     NA49011   9.939   2.863   4.755 -0.0841 -0.0065 -0.0057
28732ION     NA49012  13.365   2.575   8.744  0.0210 -0.3326 -0.0102
28733ION     NA49013  12.087   1.544   9.249 -0.0461 -0.2006  0.0193
28734ION     NA49014   8.390  16.740   9.343  0.0354 -0.2199 -0.2379
28735ION     NA49015  17.327   2.072   4.065 -0.2912 -0.1210  0.1720
28736ION     NA49016  16.201   3.887   4.307  0.0118  0.2832 -0.0675
28737ION     NA49017  10.921   6.135  11.735 -0.0762  0.0551  0.1348
28738ION     NA49018  10.356  11.474   4.709 -0.3000 -0.2480  0.1819
28739ION     NA49019   5.492  11.287  10.242 -0.0275  0.1092  0.0964
28740ION     NA49020  17.042  12.511   1.526  0.5740  0.3581  0.3854
28741ION     NA49021   9.097  16.902  11.427 -0.2278  0.2892 -0.5059
28742ION     NA49022  17.584   8.143   4.015  0.1876  0.4027 -0.0407
28743ION     NA49023   0.088   1.694   9.379 -0.1396 -0.1522 -0.0894
28744ION     NA49024   6.763   0.280   3.712  0.0653  0.1724 -0.1137
28745ION     NA49025  19.421  19.128   9.715 -0.2240  0.3479  0.2426
28746ION     NA49026   2.708   9.086   9.388  0.0130  0.3526 -0.0358
28747ION     NA49027   0.739   0.453   2.669  0.1421 -0.2759 -0.4868
28748ION     NA49028   0.056  16.862   4.586  0.0183  0.2987 -0.0371
28749ION     NA49029  18.183  17.955  12.980 -0.1978 -0.0977  0.0336
28750ION     NA49030  11.747   5.526   2.480  0.1665  0.3336 -0.2443
28751ION     NA49031  15.444  14.304   4.155 -0.0401 -0.0721 -0.1613
28752ION     NA49032  13.095   9.810  12.999  0.1294  0.1075 -0.3108
28753ION     NA49033   3.724  11.813   4.429 -0.0869 -0.1399 -0.0160
28754ION     NA49034   0.213   2.610   4.514 -0.0499  0.0059  0.1152
28755ION     NA49035   7.261   3.877   4.745 -0.2380  0.0389  0.0493
28756ION     NA49036   5.471   1.370   4.713  0.0557  0.0236  0.0522
28757ION     NA49037   7.005   6.531   4.504  0.0360 -0.1741 -0.2525
28758ION     NA49038  13.384   9.827  12.244  0.1661  0.0110 -0.2400
28759ION     NA49039   8.636  17.836   4.747 -0.0903  0.1133 -0.1962
28760ION     NA49040  10.820   8.847  13.155 -0.2105  0.0227  0.1852
28761ION     NA49041   6.880   0.788   9.505 -0.1186 -0.3292  0.3120
28762ION     NA49042  12.172  19.682   9.321 -0.0650  0.2355 -0.1253
28763ION     NA49043   0.827  11.401   4.347 -0.2147 -0.1798 -0.2902
28764ION     NA49044   8.351  13.976   9.727 -0.2564  0.1712 -0.1452
28765ION     NA49045  19.612  13.436   3.850 -0.1796  0.3500 -0.0974
28766ION     NA49046  19.901  13.878  11.317 -0.2654  0.1760 -0.0627
28767ION     NA49047  12.344   2.936   4.729 -0.3634  0.2738 -0.0770
28768ION     NA49048   0.392  14.536   9.230  0.0394 -0.3085 -0.2705
28769ION     NA49049  17.485   8.834   9.203 -0.1000  0.1536 -0.2139
28770ION     NA49050   3.057   7.008   0.779  0.2000  0.2468  0.0440
28771ION     NA49051  17.266  10.593   4.190  0.0433 -0.2705 -0.1368
28772ION     NA49052  10.120  10.557   9.695 -0.0270 -0.1348 -0.1490
28773ION     NA49053   9.294   9.386   9.846 -0.0938  0.1328 -0.2192
28774ION     NA49054   7.343   8.432  11.481 -0.0850 -0.2361  0.0181
28775ION     NA49055  13.860  10.761   9.168  0.0893  0.2976 -0.1501
28776ION     NA49056   4.398   3.182  10.581 -0.0562 -0.2624  0.2520
28777ION     NA49057   8.735   0.444  12.918  0.3031  0.2017 -0.0074
28778ION     NA49058  16.673  16.417   0.954 -0.0057  0.1036  0.0343
28779ION     NA49059   4.242  13.365  13.724  0.2332  0.0263 -0.1538
28780ION     NA49060  10.537  16.570   4.837 -0.1787  0.3153  0.2853
28781ION     NA49061  19.605  15.131   4.253 -0.0187 -0.0142 -0.0675
28782ION     NA49062  19.063   4.321   9.410 -0.3242  0.1131  0.2452
28783ION     NA49063   6.343   9.481  13.545 -0.1799 -0.1119 -0.1130
28784ION     NA49064  11.647  10.617   9.719 -0.1208  0.2060 -0.1603
28785ION     NA49065   0.053   2.632  12.303 -0.1433 -0.0060 -0.2133
28786ION     NA49066   2.741  14.950   9.593 -0.0095  0.2141 -0.1926
28787ION     NA49067  18.963  13.874   4.195 -0.0493 -0.3608  0.0830
28788ION     NA49068   7.117  14.158   4.685 -0.1705  0.1529  0.4264
28789ION     NA49069   5.663  11.960   2.609 -0.0967  0.4122 -0.2126
28790ION     NA49070  12.479   1.346   4.527  0.3591  0.0459 -0.2881
28791ION     NA49071   6.455  10.085   4.648  0.3371 -0.0745  0.4440
28792ION     NA49072   5.294  12.060   4.704  0.2195 -0.1286  0.0857
28793ION     NA49073  18.009  13.929   0.461  0.2034  0.0258 -0.1757
28794ION     NA49074  10.071   8.681   4.830 -0.1175 -0.0667  0.2717
28795ION     NA49075   4.972  18.475   1.428 -0.0602  0.3343 -0.1657
28796ION     NA49076   2.513  16.740   4.863  0.1474  0.3196 -0.0087
28797ION     NA49077  11.698   1.825   1.638 -0.4004 -0.2981 -0.1301
28798ION     NA49078   0.769  13.760   0.884  0.2857  0.1459 -0.1938
28799ION     NA49079  12.265  10.905   4.663 -0.1471  0.1855  0.0271
28800ION     NA49080  16.875   9.705   4.084  0.0914 -0.2011  0.2634
28801ION     NA49081  17.137   5.460   8.954  0.0925 -0.3550  0.0745
28802ION     NA49082   2.294  10.214   4.321 -0.0290  0.0564 -0.1207
28803ION     NA49083  16.015   4.864   3.208 -0.1025  0.0025  0.0010
28804ION     NA49084   7.416  17.555  11.795  0.2188 -0.1364 -0.3463
28805ION     NA49085   7.756   7.106   4.658  0.0045  0.0525 -0.0622
28806ION     NA49086  12.577  12.086   4.334  0.1333  0.0374  0.1090
28807ION     NA49087   9.018  17.055   9.619  0.1660  0.1382 -0.0075
28808ION     NA49088  18.607  15.274   3.964  0.1321 -0.1792 -0.1451
28809ION     NA49089  10.145  17.068   2.528  0.2118  0.0303  0.1180
28810ION     NA49090  18.556   4.901   4.186  0.0965  0.2581 -0.0304
28811ION     NA49091  10.870  12.899   9.897 -0.0663 -0.1911  0.0945
28812ION     NA49092  15.166  11.825   8.736 -0.1651  0.2480 -0.0761
28813ION     NA49093   2.583   6.619   4.351 -0.0989 -0.0748  0.1656
28814ION     NA49094  12.528  16.734   9.312  0.3386 -0.0795 -0.0701
28815ION     NA49095   0.603  14.206   4.262  0.0022 -0.3292 -0.0873
28816ION     NA49096  17.229  10.138   3.243 -0.0357  0.1238  0.1425
28817ION     NA49097   7.718   6.135   1.627  0.0542  0.0745 -0.3173
28818ION     NA49098  13.841   0.322   9.115  0.1737  0.0206 -0.1475
28819ION     NA49099  14.753  11.058   8.882  0.0077 -0.1512 -0.1180
28820ION     NA49100   0.469   6.365   9.664 -0.1313 -0.0931 -0.1093
28821ION     NA49101  18.950   8.852  13.479  0.1019 -0.0300  0.0901
28822ION     NA49102  14.770   2.797   8.922  0.0873  0.0199  0.1526
28823ION     NA49103   8.507  19.921  11.440 -0.3186 -0.2023 -0.0306
28824ION     NA49104  15.082   1.453   4.518 -0.0966  0.0195 -0.0662
28825ION     NA49105  10.078  15.040   0.854 -0.3266  0.2419 -0.1603
28826ION     NA49106  14.429  14.846  10.842 -0.0270  0.1937  0.1741
28827ION     NA49107   0.146   6.114   2.387  0.2291 -0.0127 -0.1696
28828ION     NA49108   3.309   2.064   9.819 -0.0085 -0.0007  0.0798
28829ION     NA49109  12.927   4.282   4.594  0.0626 -0.2039 -0.0974
28830ION     NA49110  14.870  12.958   4.063 -0.3113 -0.0956  0.4766
28831ION     NA49111   4.339  15.580   5.056  0.0268 -0.4764  0.0519
28832ION     NA49112  19.239   6.390   9.640 -0.1074  0.0690  0.0277
28833ION     NA49113   3.013   5.357   2.629 -0.1686  0.1343 -0.0967
28834ION     NA49114   7.110   9.486   3.875 -0.2339 -0.3381  0.0826
28835ION     NA49115  18.096  12.224   8.890  0.2899 -0.0738 -0.0911
28836ION     NA49116   2.923  18.053   2.475 -0.3004  0.2424  0.0616
28837ION     NA49117  10.686   9.544  10.131  0.0828 -0.0520  0.0685
28838ION     NA49118  14.523   1.252   1.005  0.0565  0.0418  0.0275
28839ION     NA49119   7.586  12.261   1.491  0.1788  0.0310 -0.1569
28840ION     NA49120   7.503   0.275   9.239  0.1049 -0.2240  0.2369
28841ION     NA49121  17.520  13.298   8.964  0.4459 -0.0572  0.1416
28842ION     NA49122  15.849   8.579  11.908 -0.0189  0.0589 -0.1642
28843ION     NA49123  11.365   9.254   9.643  0.1001  0.0383  0.2336
28844ION     NA49124  18.843  16.872   9.061  0.0687  0.1451 -0.2141
28845ION     NA49125   2.803  15.336   4.282  0.3037 -0.1558 -0.2107
28846ION     NA49126   1.962  12.194   4.465 -0.1738 -0.0342  0.3438
28847ION     NA49127   6.560   3.490   9.574  0.2253  0.1320  0.0087
28848ION     NA49128   7.882  10.887   9.429 -0.2671  0.1450 -0.0777
28849ION     NA49129  14.602   4.870   9.116 -0.1957  0.0038 -0.1991
28850ION     NA49130   2.533  17.311  11.552 -0.0832  0.1288  0.0167
28851ION     NA49131  18.538  19.046   9.257  0.0869  0.0270  0.3166
28852ION     NA49132  13.626  12.135   4.310 -0.0880  0.0808  0.1996
28853ION     NA49133  11.584  17.962  11.207  0.0619 -0.1253  0.0849
28854ION     NA49134   3.461  15.789   3.758  0.2825  0.2306 -0.2597
28855ION     NA49135   9.312   2.169   0.350 -0.2356  0.1186 -0.1852
28856ION     NA49136  19.555   0.648   4.493  0.1873  0.2906  0.0019
28857ION     NA49137  13.672   8.605   9.404  0.0623  0.5809 -0.0824
28858ION     NA49138  17.421  17.838   9.090  0.0039 -0.0527 -0.0485
28859ION     NA49139  11.069  19.712   4.804  0.2583 -0.0649  0.0218
28860ION     NA49140   4.627  19.761   1.711  0.0420 -0.2253 -0.0104
28861ION     NA49141  16.452  19.741   9.652  0.1554 -0.1787 -0.1246
28862ION     NA49142  19.394  12.816   1.948 -0.3002  0.2387 -0.1051
28863ION     NA49143   4.005  17.996   2.632  0.3458  0.1894 -0.4014
28864ION     NA49144  13.545  12.399   9.540 -0.0226  0.2116 -0.1079
28865ION     NA49145   2.685  15.861   9.597 -0.2503  0.1378 -0.2021
28866ION     NA49146  12.677  19.851   4.451 -0.0749  0.0848 -0.0996
28867ION     NA49147   0.515   0.079  11.854 -0.1590 -0.0954  0.0977
28868ION     NA49148  15.727  17.659   0.631 -0.2993 -0.1985  0.2918
28869ION     NA49149  16.850  18.057   4.184 -0.0027 -0.2997  0.0552
28870ION     NA49150  10.991   1.431   4.704  0.1248  0.0361  0.0709
28871ION     NA49151  12.090  15.666   4.667  0.1400 -0.3140  0.3607
28872ION     NA49152   7.224  18.333   4.937 -0.0499 -0.0784 -0.0354
28873ION     NA49153   1.807  14.819   9.350  0.0541 -0.0763  0.0862
28874ION     NA49154  15.993  19.825   4.324  0.0651  0.0586 -0.0122
28875ION     NA49155  19.337   1.242   9.107 -0.1692  0.0647  0.0277
28876ION     NA49156   8.617  18.313   2.310 -0.0450  0.0471 -0.0035
28877ION     NA49157   1.379  13.460   2.954  0.1090  0.3717 -0.0319
28878ION     NA49158   9.651   7.733   9.685  0.0753 -0.0561 -0.2002
28879ION     NA49159   4.662  10.022   0.275  0.6190 -0.0964  0.4317
28880ION     NA49160  15.646  19.264   3.761  0.3908  0.0371  0.1034
28881ION     NA49161   1.717   8.800   9.372  0.2305 -0.0583  0.1276
28882ION     NA49162   7.194  15.800   9.257  0.0101 -0.1060  0.0856
28883ION     NA49163   4.845  11.751   9.886 -0.0252  0.0758 -0.4315
28884ION     NA49164   0.988   4.353   4.524  0.2133 -0.2615 -0.1825
28885ION     NA49165   1.981   4.191   9.435  0.0189 -0.1320  0.0882
28886ION     NA49166   4.975   1.893  13.120 -0.0955 -0.1201  0.0172
28887ION     NA49167  11.524  14.447   9.425 -0.1542  0.1828 -0.1271
28888ION     NA49168   8.206   3.112   9.487  0.0261  0.2139 -0.0962
28889ION     NA49169   0.197  15.606   0.490 -0.2445 -0.0591  0.0536
28890ION     NA49170   6.647   5.812   5.013 -0.1628 -0.1400  0.3107
28891ION     NA49171   3.528  15.150   4.963  0.2328  0.1551  0.2254
28892ION     NA49172  11.316   2.635   1.675 -0.1383 -0.1763 -0.1779
28893ION     NA49173   7.823  10.605   1.261 -0.0689 -0.1346 -0.2367
28894ION     NA49174   8.767   9.596  13.369 -0.2164 -0.4400  0.2793
28895ION     NA49175  17.707  18.235   4.016 -0.3135 -0.1716 -0.1480
28896ION     NA49176   1.714   7.607  12.806  0.0211  0.2013  0.1613
28897ION     NA49177  12.418   8.019   9.323  0.1763 -0.1676  0.0614
28898ION     NA49178   1.134  15.436   8.934  0.4806  0.0686  0.0912
28899ION     NA49179   5.464   9.791   4.799 -0.0688 -0.1269  0.4985
28900ION     NA49180  17.632   8.408  11.424 -0.2171  0.2465 -0.0535
28901ION     NA49181  17.806   4.985   4.517 -0.0066 -0.0918 -0.2536
28902ION     NA49182   8.001  13.282   2.936  0.0570  0.0529  0.1741
28903ION     NA49183   8.025  18.579   4.628 -0.0873  0.1177 -0.0123
28904ION     NA49184   9.785  16.582   9.597 -0.3728 -0.1070  0.2118
28905ION     NA49185  10.437   1.679   9.355 -0.1859  0.2361 -0.0070
28906ION     NA49186  18.929  12.549   0.621 -0.0616  0.3216  0.1802
28907ION     NA49187  12.855  14.063   4.340 -0.3045 -0.0597 -0.0259
28908ION     NA49188  18.770  15.798   0.502  0.0132 -0.1180 -0.0836
28909ION     NA49189  19.584  16.467  12.410 -0.2961 -0.0648  0.0433
28910ION     NA49190   9.468   6.548   4.732  0.1218 -0.0857  0.3799
28911ION     NA49191   2.469  19.811   9.915  0.1592  0.1720 -0.1639
28912ION     NA49192  18.066   4.257   4.395  0.1765  0.1639 -0.2129
28913ION     NA49193   9.349  12.178   3.987 -0.1889  0.1894  0.0487
28914ION     NA49194   7.902  15.988   4.549 -0.2412  0.1851  0.1087
28915ION     NA49195   9.771  12.342   9.574 -0.0244 -0.1586  0.2256
28916ION     NA49196  16.942  12.099   3.988  0.1899  0.2019 -0.1322
28917ION     NA49197  17.503  17.565   4.238 -0.1061  0.2797  0.4077
28918ION     NA49198  19.781   6.902   4.385 -0.1757 -0.1252  0.0054
28919ION     NA49199  12.403   2.920   1.434 -0.2510  0.0912  0.0207
28920ION     NA49200   8.215  15.800   9.427  0.0448  0.0685 -0.1949
28921ION     NA49201  10.296   6.046   9.414  0.2463  0.0151 -0.1526
28922ION     NA49202  15.193   9.582   2.611  0.1021 -0.1766  0.0129
28923ION     NA49203   0.462  18.350   9.514 -0.0313  0.2080 -0.0518
28924ION     NA49204   2.757   3.004   3.528 -0.0886  0.0140 -0.1203
28925ION     NA49205   2.267  17.519   3.350 -0.1711  0.0694  0.1419
28926ION     NA49206   7.080  11.385   9.642  0.0622 -0.3793 -0.1234
28927ION     NA49207  11.009  10.309   4.715 -0.2495 -0.1578  0.1770
28928ION     NA49208  19.862   0.482   1.187  0.3980 -0.1969  0.1558
28929ION     NA49209  17.484  13.744   1.276 -0.1698  0.3405 -0.1444
28930ION     NA49210  18.010  10.243   3.001 -0.0555  0.3102 -0.2986
28931ION     NA49211  14.742  15.554   9.192 -0.0377 -0.0447 -0.1409
28932ION     NA49212  13.604  12.693   9.134  0.2054 -0.4008 -0.1319
28933ION     NA49213  13.374   3.586   9.543 -0.2701  0.0421  0.0721
28934ION     NA49214  13.564  17.871   1.813  0.1602 -0.0098  0.0806
28935ION     NA49215  17.120   3.864  13.100  0.4296 -0.1587  0.1294
28936ION     NA49216   6.486   1.635  11.160 -0.1805 -0.0921 -0.0685
28937ION     NA49217   1.723   7.829   9.256 -0.2124  0.2418 -0.3802
28938ION     NA49218  11.216  10.343   1.810  0.0116 -0.0181  0.0602
28939ION     NA49219   4.003   5.962   1.007  0.0595 -0.1055 -0.3654
28940ION     NA49220  14.202   7.448   4.699  0.0690  0.1077  0.2616
28941ION     NA49221   1.307   0.020   4.128 -0.1592  0.1432  0.0118
28942ION     NA49222  16.592  12.833   9.427  0.1102 -0.0929  0.2600
28943ION     NA49223   3.921   4.374   9.417  0.0776  0.1400 -0.0145
28944ION     NA49224  18.217  15.754   4.152 -0.1314  0.2469 -0.3391
28945ION     NA49225  10.880  16.729   9.331  0.2863  0.0740  0.0417
28946ION     NA49226  17.332  14.014  12.610  0.1851  0.1530  0.0369
28947ION     NA49227  13.579   6.018   4.586 -0.1353 -0.2027  0.1587
28948ION     NA49228   8.771  14.853   9.681 -0.1005  0.0660  0.2850
28949ION     NA49229   3.579   6.594   9.416  0.1517  0.3666  0.0889
28950ION     NA49230   1.712  17.254   5.055 -0.1041 -0.0899  0.0131
28951ION     NA49231  17.844   5.757   9.254 -0.0337  0.0362  0.1294
28952ION     NA49232   4.779   5.181  12.836 -0.0877  0.0039  0.2593
28953ION     NA49233   5.695  15.674   0.138 -0.0279 -0.1874 -0.1582
28954ION     NA49234  10.808   2.520   9.457  0.0024 -0.0684 -0.3762
28955ION     NA49235  11.852   2.940   4.570 -0.0084  0.1938  0.0417
28956ION     NA49236  18.338  10.571   4.036  0.1538  0.0448  0.0878
28957ION     NA49237  16.886   8.626  10.845  0.4153  0.1575 -0.0826
28958ION     NA49238   3.694  17.044   4.942  0.3071 -0.2398 -0.1785
28959ION     NA49239  10.522  11.075  11.492  0.2742  0.0120 -0.1975
28960ION     NA49240  16.521   7.274   3.906  0.0062 -0.2752 -0.2573
28961ION     NA49241   5.564   7.774   9.509  0.0527 -0.0671 -0.1576
28962ION     NA49242   8.197   7.842   2.301 -0.0090 -0.1665 -0.2544
28963ION     NA49243  13.149  12.180  11.092 -0.1159  0.0128  0.2397
28964ION     NA49244  17.175  14.257   9.048  0.3583  0.1293 -0.0222
28965ION     NA49245   4.276  16.088  10.054 -0.0901 -0.0954 -0.1560
28966ION     NA49246   4.578  17.775  13.059  0.0019  0.3631 -0.0409
28967ION     NA49247   7.197  12.603  11.743  0.0752 -0.1806  0.3581
28968ION     NA49248   7.030  19.718   1.551  0.3691  0.2415  0.1242
28969ION     NA49249   7.140  17.091   1.325 -0.0708 -0.0796 -0.2515
28970ION     NA49250  17.094   6.355   8.977 -0.0132 -0.1308  0.3392
28971ION     NA49251  17.009   0.906   9.007 -0.0269  0.2778 -0.0710
28972ION     NA49252  16.694   9.617   9.074  0.0144 -0.1993  0.0215
28973ION     NA49253   0.209   4.278   9.451  0.3068  0.1275 -0.1778
28974ION     NA49254   6.970  11.301   0.059  0.0220  0.0532  0.2019
28975ION     NA49255  14.971   2.940   1.743 -0.1050 -0.0505 -0.0231
28976ION     NA49256  10.293   5.099   9.371  0.1428  0.2104 -0.2643
28977ION     NA49257  14.213   9.539   4.296 -0.0133  0.3074  0.1409
28978ION     NA49258   8.741  16.817   3.696 -0.1835  0.0721  0.1070
28979ION     NA49259   9.051   0.770   4.492  0.2828 -0.1505 -0.0119
28980ION     NA49260  19.350   4.400   4.555  0.1067 -0.0601 -0.1810
28981ION     NA49261   6.317   2.916  10.293  0.3834 -0.0460  0.0453
28982ION     NA49262  19.184  15.863   4.308  0.1139  0.0662  0.1478
28983ION     NA49263  13.229  13.736   9.406 -0.0636  0.0497  0.3097
28984ION     NA49264   1.925  16.803  11.902 -0.3231 -0.1503  0.0598
28985ION     NA49265  12.316  18.907   9.022 -0.4960 -0.0332  0.1004
28986ION     NA49266  18.692   0.512  11.144  0.1436 -0.0464  0.2539
28987ION     NA49267  18.368   4.918   9.137 -0.2513  0.4282 -0.0759
28988ION     NA49268  19.401   3.926   0.154 -0.1194 -0.1094 -0.0928
28989ION     NA49269  13.052  19.773   9.848 -0.1356  0.0513  0.3847
28990ION     NA49270  18.942   0.873   2.228 -0.1175  0.0603  0.1080
28991ION     NA49271   7.911  11.307   9.839  0.0549  0.0488 -0.0584
28992ION     NA49272  18.521   7.589   9.313  0.0859 -0.0832  0.2312
28993ION     NA49273   2.319   1.940   2.792 -0.5649  0.1374  0.0855
28994ION     NA49274   3.592  13.208   9.782 -0.2426  0.1159 -0.0711
28995ION     NA49275   8.326   6.020  13.205  0.2863  0.0034  0.0542
28996ION     NA49276   5.905  16.194   9.722  0.1547 -0.2141  0.2923
28997ION     NA49277   8.794   4.689  12.083  0.0277 -0.0089 -0.1695
28998ION     NA49278  16.331   0.696   4.370 -0.3030  0.0499  0.2950
28999ION     NA49279  11.101  17.945   3.890 -0.0715 -0.0130  0.1778
29000ION     NA49280  14.438   6.609   4.446 -0.0517 -0.2444 -0.0302
29001ION     NA49281  14.900  10.981  11.431  0.0811 -0.1900 -0.4533
29002ION     NA49282  16.541   8.629   8.999 -0.2282  0.0062  0.0693
29003ION     NA49283   1.016  19.828   4.555  0.0943 -0.1695  0.2075
29004ION     NA49284   6.780  19.951   9.585 -0.1199 -0.2753  0.2566
29005ION     NA49285   2.846  16.897   9.962  0.1215 -0.1180  0.2017
29006ION     NA49286  17.970  17.635   1.789 -0.1152  0.2461 -0.0891
29007ION     NA49287   0.374   9.984   4.004  0.4022 -0.0616  0.1811
29008ION     NA49288  11.766  12.307   9.724  0.3799 -0.1221 -0.2828
29009ION     NA49289  11.059   6.926  12.028  0.1463  0.0098  0.3796
29010ION     NA49290   5.741  17.094   4.985  0.0344  0.1753 -0.1600
29011ION     NA49291  16.785   5.866  10.057  0.0569 -0.0092 -0.1422
29012ION     NA49292   7.375   4.882   4.837 -0.1210 -0.1268 -0.0976
29013ION     NA49293   5.003   0.152   4.593 -0.0869  0.1206 -0.3350
29014ION     NA49294  14.972  17.316   4.145 -0.0234 -0.0960  0.2738
29015ION     NA49295  17.780  12.790   9.728 -0.0286  0.2486  0.0906
29016ION     NA49296   8.844   6.558   3.291  0.3009  0.0412  0.3615
29017ION     NA49297   3.516   4.985   4.305 -0.4038 -0.2629 -0.2221
29018ION     NA49298   5.003   0.585   9.800 -0.2724  0.2025 -0.1944
29019ION     NA49299   8.093   5.600   9.459 -0.4371  0.3407 -0.4352
29020ION     NA49300  18.665  13.046   4.172 -0.0830  0.4566  0.0764
29021ION     NA49301  10.271  13.474   5.090  0.4041  0.0431  0.1106
29022ION     NA49302  12.592   2.800   1.879 -0.2528  0.0446 -0.1748
29023ION     NA49303  14.234  18.842   1.845 -0.0404  0.1907  0.1955
29024ION     NA49304  14.846  18.899   9.114 -0.1898 -0.2098  0.0973
29025ION     NA49305  18.390  14.538   4.068 -0.1103 -0.1709 -0.2177
29026ION     NA49306   3.982   8.931  12.738 -0.1127 -0.2082  0.0644
29027ION     NA49307   4.013   0.591   9.852 -0.2836 -0.1145  0.1820
29028ION     NA49308   9.703   5.164   3.239 -0.3020  0.1740  0.1959
29029ION     NA49309   5.294  15.550   4.723 -0.0724  0.3820 -0.0779
29030ION     NA49310   7.417  18.095   0.882 -0.0219 -0.0522 -0.2958
29031ION     NA49311   7.529  19.295   4.650 -0.1830 -0.0772 -0.0501
29032ION     NA49312   9.880   9.407   9.734  0.0507 -0.1014  0.2077
29033ION     NA49313   1.468  18.063   9.635 -0.1129 -0.0450  0.0530
29034ION     NA49314   8.761   8.107  12.381 -0.0932 -0.1785  0.0030
29035ION     NA49315  12.607  13.054   4.387  0.2210  0.0471 -0.1856
29036ION     NA49316   4.953  15.731   9.647 -0.1426  0.2942  0.0586
29037ION     NA49317  12.542  17.816   1.736  0.1032 -0.2101  0.0830
29038ION     NA49318  16.090   9.184   4.214  0.1434 -0.0373 -0.1120
29039ION     NA49319   6.892  10.793   4.630  0.0365  0.1439  0.1503
29040ION     NA49320   2.281   8.212   1.878 -0.1580  0.1732  0.1054
29041ION     NA49321   9.797  10.202  10.114 -0.4169 -0.0095  0.1675
29042ION     NA49322   4.809   7.051  12.690 -0.1479 -0.0437 -0.2125
29043ION     NA49323  12.538  19.475   2.678  0.1859 -0.0331  0.1529
29044ION     NA49324   6.594  13.002   9.911 -0.0004 -0.1841  0.0612
29045ION     NA49325  16.745  12.714   8.911  0.1122 -0.1801  0.3760
29046ION     NA49326   8.323   4.086   4.643 -0.0725  0.0975  0.0903
29047ION     NA49327   4.492   2.144   4.927  0.0415 -0.1669 -0.0524
29048ION     NA49328  14.110   5.787   9.456 -0.1865  0.4121  0.0194
29049ION     NA49329   8.104   6.902  11.232  0.1295  0.0304 -0.4218
29050ION     NA49330  15.358   6.465   4.533 -0.0614 -0.1841  0.1610
29051ION     NA49331  10.819  18.229   9.358  0.1613  0.1699 -0.0046
29052ION     NA49332  17.780   6.109   3.980 -0.1036 -0.1270 -0.1959
29053ION     NA49333  15.777  17.417   8.994 -0.0117  0.0598 -0.2713
29054ION     NA49334   1.133   1.808   4.660 -0.0682  0.0549 -0.0632
29055ION     NA49335  15.834   0.570   9.380 -0.0980 -0.2856  0.0396
29056ION     NA49336   8.030   0.658   3.065  0.0585 -0.0929  0.0645
29057ION     NA49337  10.317   7.540   4.495 -0.2049  0.0723  0.1370
29058ION     NA49338   1.186   0.592  11.424 -0.1160 -0.0430 -0.1762
29059ION     NA49339   0.521   4.305   4.878  0.2404  0.2518  0.0057
29060ION     NA49340   3.266   3.443  11.134 -0.3646 -0.0609  0.1141
29061ION     NA49341   7.905  14.630   4.890  0.0716  0.0954  0.1202
29062ION     NA49342   5.466  15.702  10.561 -0.0813 -0.0300 -0.0211
29063ION     NA49343   8.655  10.841   9.605  0.0587  0.4881  0.4017
29064ION     NA49344  18.074   4.184   0.030 -0.0597 -0.2051  0.0566
29065ION     NA49345  15.640   4.841   9.247 -0.3170  0.2258 -0.1484
29066ION     NA49346  19.206  19.939  10.597  0.1312 -0.0433 -0.2127
29067ION     NA49347   1.265   9.537   9.396 -0.1749 -0.0423 -0.2937
29068ION     NA49348  10.986  15.947  10.886 -0.0370  0.2266  0.1259
29069ION     NA49349  12.248  11.113  12.395 -0.0990 -0.3385 -0.0642
29070ION     NA49350  10.432  14.255   9.623  0.1327  0.0075 -0.2104
29071ION     NA49351  16.604  15.459   0.366 -0.2463  0.2043 -0.1162
29072ION     NA49352  14.343  19.647   9.799  0.1691  0.2138  0.2675
29073ION     NA49353  12.390  18.141   9.697  0.1584  0.1351  0.1336
29074ION     NA49354  17.938  19.494   4.340  0.0749  0.0873  0.2787
29075ION     NA49355  13.768   8.858   0.554 -0.1403 -0.2135  0.2551
29076ION     NA49356  16.380  13.367  13.228 -0.2166 -0.1862 -0.4330
29077ION     NA49357  19.260  19.704  12.561 -0.2612  0.0183 -0.4588
29078ION     NA49358  10.474  19.844   9.139  0.0542 -0.0287 -0.3217
29079ION     NA49359   3.551   3.088  12.089  0.0248  0.1869  0.1001
29080ION     NA49360   2.249   5.949   9.733  0.1527 -0.0399  0.2236
29081ION     NA49361  13.386  16.810   9.289 -0.1809 -0.1810  0.0563
29082ION     NA49362   6.217  14.376   1.946  0.0738 -0.1136 -0.0625
29083ION     NA49363   6.295   0.698   9.621  0.2978  0.0555 -0.2333
29084ION     NA49364  11.844   2.218   9.534  0.0696 -0.0175  0.0227
29085ION     NA49365  14.904  14.631   9.283  0.1634 -0.1896  0.1414
29086ION     NA49366  14.400  19.185   3.910 -0.1476  0.0633 -0.2609
29087ION     NA49367  18.751   0.444   4.017  0.1593  0.3574 -0.3329
29088ION     NA49368   1.077  19.950   0.703  0.1175 -0.3062  0.1727
29089ION     NA49369  11.253   2.890  13.602  0.3241  0.0832  0.0723
29090ION     NA49370   8.427  11.684   3.678  0.1021 -0.0908 -0.2641
29091ION     NA49371   4.727   1.508   2.106 -0.2431 -0.0780  0.0293
29092ION     NA49372   9.468  19.801   9.384  0.3286  0.0504  0.0839
29093ION     NA49373  11.893  13.294   9.506 -0.1949 -0.2062  0.1699
29094ION     NA49374   5.729   2.095  12.643 -0.1411  0.1682 -0.0208
29095ION     NA49375   8.139   1.025   4.329  0.1739 -0.1061  0.2502
29096ION     NA49376  18.902  16.301  11.561  0.1563  0.0258 -0.0078
29097ION     NA49377   4.740  16.236   9.837  0.2653 -0.1275  0.1638
29098ION     NA49378   7.324   5.630   3.444 -0.0573  0.1290 -0.2533
29099ION     NA49379   0.956  14.279  10.123  0.0231  0.1577  0.0427
29100ION     NA49380   1.378  19.069  11.324 -0.2965 -0.0831  0.0586
29101ION     NA49381  10.578   5.433   4.711 -0.0712  0.0509  0.2734
29102ION     NA49382   7.831  14.923   9.644 -0.3552  0.4345  0.0056
29103ION     NA49383   0.648   7.168  11.105 -0.0802 -0.0114 -0.1145
29104ION     NA49384   8.118  14.518  13.646 -0.0477 -0.0408 -0.5221
29105ION     NA49385  17.683  15.125   9.251  0.0675  0.1307  0.0501
29106ION     NA49386  19.950  16.253   9.021  0.2672  0.2918  0.1595
29107ION     NA49387   4.309   3.866   3.136 -0.0279  0.2323  0.0739
29108ION     NA49388  15.662   7.273   8.773 -0.0886  0.0301 -0.1618
29109ION     NA49389   5.761  17.240  12.388 -0.0123  0.0433  0.1586
29110ION     NA49390  13.042   7.285   0.641  0.1458 -0.1245  0.2372
29111ION     NA49391   5.212  16.936  10.025  0.2923  0.0379  0.0559
29112ION     NA49392   1.765   7.296   9.254 -0.2370 -0.0612 -0.0031
29113ION     NA49393  16.329   6.735   1.721 -0.1860 -0.0414  0.3437
29114ION     NA49394  17.548   2.270   9.272  0.0065 -0.1830  0.0734
29115ION     NA49395  15.384  11.386  12.107 -0.1956  0.0225 -0.1382
29116ION     NA49396  14.483   6.118   0.277  0.0079 -0.1308  0.1249
29117ION     NA49397   5.060   6.705   4.851 -0.0040 -0.2013 -0.0106
29118ION     NA49398   4.291   3.415  12.668 -0.0619 -0.2212 -0.1199
29119ION     NA49399  12.104   7.334   0.816  0.1285  0.1111 -0.1420
29120ION     NA49400  16.649  10.561   9.048 -0.0817 -0.2127 -0.0062
29121ION     NA49401   4.667   8.504  11.497  0.3404  0.0189  0.1230
29122ION     NA49402   6.643   2.028   4.788 -0.1108  0.1042 -0.0902
29123ION     NA49403  16.289  15.951   3.951 -0.0278 -0.2320 -0.2202
29124ION     NA49404  10.212   6.878   2.476  0.1034  0.0188  0.3236
29125ION     NA49405  11.090   4.894   1.286 -0.0486 -0.1681 -0.0709
29126ION     NA49406  17.705   6.410   0.513 -0.0913 -0.1361  0.1528
29127ION     NA49407  12.644  17.198   4.644 -0.3025 -0.3470 -0.1907
29128ION     NA49408   4.485   9.009   9.730 -0.0571  0.0055  0.2751
29129ION     NA49409   5.271   8.745   4.674  0.2303  0.1029 -0.2306
29130ION     NA49410   4.036  12.241   9.892 -0.0781  0.0459 -0.2808
29131ION     NA49411   4.484   1.975  12.016  0.0561 -0.2934  0.0825
29132ION     NA49412   7.032   2.122   0.090  0.0426 -0.1496  0.1853
29133ION     NA49413  15.788   9.252   9.145  0.2003  0.0221  0.0986
29134ION     NA49414  11.366   4.939   9.415 -0.1008 -0.1548  0.0766
29135ION     NA49415  13.187  15.471  11.958  0.0890 -0.0627 -0.2012
29136ION     NA49416   4.665   1.118   4.939 -0.2090  0.0924  0.1233
29137ION     NA49417  10.905  13.140   5.014  0.2980  0.2560 -0.0487
29138ION     NA49418   3.048  11.224   9.624 -0.0699 -0.0480  0.0196
29139ION     NA49419   6.349   6.507  12.708  0.3044 -0.2210  0.0188
29140ION     NA49420   5.342   6.485   1.428 -0.0066 -0.1860 -0.0508
29141ION     NA49421   0.504  12.840   9.210  0.1243  0.2283  0.0953
29142ION     NA49422  11.624   8.040   9.473  0.2315 -0.1095 -0.3283
29143ION     NA49423   6.967  16.092  12.080 -0.0138 -0.2076  0.1300
29144ION     NA49424   7.940  15.084   4.946 -0.0701 -0.2711  0.2565
29145ION     NA49425  18.358   7.712  13.629 -0.0523 -0.0855  0.1941
29146ION     NA49426   6.986   4.958  10.983 -0.0403 -0.2216 -0.2462
29147ION     NA49427   5.495  14.293   9.764  0.1162  0.1965 -0.1340
29148ION     NA49428  16.960  18.650   8.819 -0.0059  0.1380  0.0053
29149ION     NA49429   9.151  14.328  13.437 -0.1543  0.1227  0.0244
29150ION     NA49430   0.877  10.866   4.436  0.0103 -0.1909  0.1899
29151ION     NA49431   5.102   2.650   2.083  0.1240 -0.0053 -0.0641
29152ION     NA49432   4.682   3.956   9.719 -0.0680  0.0333  0.0180
29153ION     NA49433  10.632   1.791   2.653  0.0363  0.0310 -0.4738
29154ION     NA49434  11.352  11.366   3.327 -0.1187  0.0024 -0.0389
29155ION     NA49435  11.127   9.511   4.262 -0.4806  0.1392 -0.0423
29156ION     NA49436   5.051  14.578   4.934  0.0381  0.1994  0.0461
29157ION     NA49437   9.311  14.695   4.860  0.1779  0.0682 -0.1320
29158ION     NA49438  13.235  13.334   4.285 -0.1611 -0.0257 -0.2259
29159ION     NA49439   9.044   2.527   4.804 -0.0006 -0.2198  0.0246
29160ION     NA49440  14.449  15.077  13.522  0.2128  0.2571  0.1648
29161ION     NA49441   0.257   5.066  13.642  0.0775 -0.0567 -0.0377
29162ION     NA49442   2.090  13.531   9.644 -0.0166 -0.1840  0.2950
29163ION     NA49443  14.195  11.153   2.942  0.2096 -0.1312  0.3039
29164ION     NA49444  19.150  18.572  12.094  0.0563  0.0508  0.1054
29165ION     NA49445  16.403  16.691   9.140 -0.2670  0.1575 -0.0069
29166ION     NA49446  19.073  17.631   9.410 -0.1025  0.1634  0.1059
29167ION     NA49447  15.152  18.289   8.858  0.0636  0.1894  0.0203
29168ION     NA49448   1.370  13.666   4.430  0.2992 -0.2504 -0.0059
29169ION     NA49449  14.293  16.509   9.347  0.2936 -0.1661  0.2064
29170ION     NA49450   9.435   9.413  10.698 -0.2271 -0.0192 -0.1446
29171ION     NA49451   8.814  12.464   9.732 -0.0346 -0.1132 -0.2953
29172ION     NA49452  15.050   8.953   4.269 -0.0191 -0.2298  0.1750
29173ION     NA49453   2.526  19.747   2.765  0.0971  0.5273  0.0599
29174ION     NA49454   4.220   9.277  11.825  0.2604 -0.1594  0.1258
29175ION     NA49455   2.917   5.554   0.726 -0.4714  0.4499  0.1132
29176ION     NA49456   3.790   0.267  10.145  0.0480  0.2012  0.3085
29177ION     NA49457  13.919  18.970   9.212  0.0593  0.1572  0.2191
29178ION     NA49458   1.726   3.367   9.298 -0.1146  0.2356  0.1470
29179ION     NA49459  10.812   3.614   9.514 -0.0138 -0.1424  0.0527
29180ION     NA49460  13.987  12.915   4.225  0.4171 -0.0446 -0.0377
29181ION     NA49461   4.250  15.142   2.256  0.1446  0.0432  0.0491
29182ION     NA49462   0.570  15.634   9.158  0.1295  0.0207  0.2011
29183ION     NA49463   3.943   5.084   2.390  0.3578 -0.3254  0.2918
29184ION     NA49464   0.043  15.846   2.618  0.4644 -0.4298 -0.1170
29185ION     NA49465  15.342   1.888   0.055  0.0746  0.2280 -0.0777
29186ION     NA49466  17.589  15.647   0.215 -0.2620  0.0747 -0.1987
29187ION     NA49467   3.815  14.742   5.008 -0.0491 -0.2108  0.2353
29188ION     NA49468   2.896  12.402   4.663 -0.1611 -0.1575  0.0797
29189ION     NA49469  17.069   8.458  12.676  0.0287  0.0314  0.0922
29190ION     NA49470  19.673  11.544   8.764  0.1769  0.0029 -0.0770
29191ION     NA49471   2.665  12.868   9.678  0.0650 -0.4093 -0.1087
29192ION     NA49472   6.251   6.358   4.819 -0.1325 -0.2663 -0.3119
29193ION     NA49473  14.046  18.266   9.762  0.1150 -0.1598  0.1777
29194ION     NA49474  16.982   3.784   9.323  0.2994  0.1196  0.0580
29195ION     NA49475   1.779   4.199  12.782 -0.1131  0.0768 -0.0738
29196ION     NA49476  13.619   2.446   4.535  0.1310  0.1717 -0.1661
29197ION     NA49477  16.038  12.269   9.043 -0.0202  0.1752  0.1515
29198ION     NA49478  15.322  17.223   0.444 -0.0404 -0.0492  0.0799
29199ION     NA49479   2.682  10.357   9.462  0.1900  0.4633 -0.1384
29200ION     NA49480  12.670   8.085  13.156  0.2554  0.1070  0.3071
29201ION     NA49481   6.006   4.550   9.404  0.2675  0.3163 -0.0136
29202ION     NA49482  18.199  18.110  12.098 -0.0704 -0.1429  0.2033
29203ION     NA49483  11.135   7.396   1.993  0.0600  0.0228  0.2251
29204ION     NA49484  18.812   3.715   4.591  0.0202  0.2662 -0.3206
29205ION     NA49485   3.549   7.540   9.121  0.0913  0.1175 -0.3098
29206ION     NA49486   4.782   7.790   1.276 -0.0158  0.2235  0.2948
29207ION     NA49487   8.731  19.382   9.349  0.0470 -0.2940 -0.3332
29208ION     NA49488  12.277   7.484   4.438 -0.0698 -0.1982  0.2085
29209ION     NA49489   0.871   6.232  10.844 -0.0917  0.0717  0.1427
29210ION     NA49490   8.519   9.452   9.530  0.1717 -0.1692  0.3517
29211ION     NA49491  17.960   0.407   9.317 -0.2880  0.1191  0.0862
29212ION     NA49492  15.807  19.276  10.665  0.2093  0.0143  0.0427
29213ION     NA49493  19.053   5.107   4.156 -0.0242  0.1197  0.2093
29214ION     NA49494   0.964  12.190   0.543 -0.1143  0.2104  0.3883
29215ION     NA49495  12.122   9.297   1.870  0.0725  0.5875  0.1109
29216ION     NA49496   9.719   5.651  13.511  0.0863  0.0739 -0.1814
29217ION     NA49497   6.489  15.998   4.913  0.1919  0.0424 -0.0379
29218ION     NA49498   7.547   3.735   9.361 -0.0267 -0.0992  0.0497
29219ION     NA49499   6.815   1.120   4.680 -0.0289 -0.2205 -0.2262
29220ION     NA49500  10.209  18.955   9.247  0.3918  0.1395  0.4033
29221ION     NA49501  11.342  12.124  11.791 -0.0928 -0.1446  0.3791
29222ION     NA49502  10.921   6.055   5.035 -0.0810  0.2132 -0.0205
29223ION     NA49503  13.533   3.023   0.753 -0.3191 -0.1625  0.0506
29224ION     NA49504   9.226   3.767   4.865 -0.0811 -0.0988  0.1546
29225ION     NA49505   2.329  11.822  10.461  0.2586  0.1742  0.1576
29226ION     NA49506  12.126   1.749   0.740 -0.2786  0.2166 -0.0139
29227ION     NA49507  16.572  12.924   3.877  0.0695  0.1298  0.0527
29228ION     NA49508   1.401  14.110   9.133  0.0778  0.0169 -0.1731
29229ION     NA49509   4.570   6.645   9.697  0.0654  0.1459 -0.0683
29230ION     NA49510   2.729   3.350   0.326  0.0784 -0.1200  0.1570
29231ION     NA49511  19.728  11.172   1.756  0.1325  0.3070  0.0563
29232ION     NA49512   9.866  13.036   1.293  0.0023 -0.1199 -0.0593
29233ION     NA49513  19.060   4.394   3.396  0.0919  0.1931  0.1674
29234ION     NA49514   3.806   7.076   9.441  0.3625  0.0334  0.0023
29235ION     NA49515   5.900  10.852   0.784  0.3562 -0.0891 -0.0365
29236ION     NA49516   0.067  10.780   8.671  0.1585 -0.5692  0.0122
29237ION     NA49517  16.808   1.901   9.082  0.0078  0.0617 -0.2150
29238ION     NA49518  16.591  17.387   0.128  0.0440  0.1671  0.0208
29239ION     NA49519  11.841   9.129  13.831 -0.0167  0.2809 -0.3366
29240ION     NA49520  16.643   5.748   2.984  0.1219  0.0764  0.0773
29241ION     NA49521  19.597   2.448   9.799 -0.2337  0.0204  0.1088
29242ION     NA49522   4.978   2.297   4.888  0.1024  0.2131  0.1560
29243ION     NA49523  19.957  18.089   9.362 -0.0778  0.0266 -0.1933
29244ION     NA49524  16.318  11.875   3.811  0.1675  0.0934 -0.1058
29245ION     NA49525   2.991   8.460  11.815  0.1183 -0.0036  0.0403
29246ION     NA49526  15.994   1.601   4.458 -0.1241  0.1389 -0.0502
29247ION     NA49527  10.034  11.968  12.417 -0.5092 -0.0886 -0.1004
29248ION     NA49528   6.685  13.933   4.786 -0.1485 -0.2741  0.2739
29249ION     NA49529   1.509   2.949   9.090  0.0158  0.0023 -0.2190
29250ION     NA49530  19.365   6.059   3.962 -0.1141  0.0249 -0.3812
29251ION     NA49531  11.696   6.222   9.452 -0.0333 -0.0596 -0.0554
29252ION     NA49532   4.409   8.713   4.494  0.1932 -0.0907  0.2142
29253ION     NA49533   3.281   6.873  13.595  0.0893  0.1953  0.0184
29254ION     NA49534  10.322  15.767   4.960 -0.4683  0.1963  0.3668
29255ION     NA49535  13.664   5.057   4.818  0.2574  0.1532  0.2789
29256ION     NA49536  12.751  14.714   2.770  0.3820  0.4437  0.2416
29257ION     NA49537  14.767   9.064  13.539 -0.2584  0.1539 -0.0190
29258ION     NA49538   9.517   8.341   9.992  0.0477  0.3699  0.2637
29259ION     NA49539  10.402  15.885   9.295  0.0326 -0.0950 -0.1010
29260ION     NA49540  13.486  14.581   9.262  0.0298  0.1483 -0.1517
29261ION     NA49541  15.624  10.218  12.451  0.0418 -0.1870 -0.0157
29262ION     NA49542  13.098  10.772  11.391 -0.1042  0.0323 -0.1688
29263ION     NA49543   8.647   3.796   9.578 -0.1216 -0.2971 -0.0492
29264ION     NA49544  14.269  17.643   4.513  0.0067  0.2150  0.2191
29265ION     NA49545   5.343   2.495   9.495  0.1365 -0.2053  0.4365
29266ION     NA49546  11.624  11.427   9.468  0.1255  0.2187  0.1372
29267ION     NA49547  11.424   0.236   9.662  0.3262  0.2723 -0.3288
29268ION     NA49548   2.453   3.071  13.181 -0.2393  0.0380 -0.1595
29269ION     NA49549   8.884  17.539   9.664 -0.2069 -0.2192 -0.0291
29270ION     NA49550   1.912   7.375   1.997  0.0403  0.0320  0.1530
29271ION     NA49551   3.693  12.799   4.540 -0.2375 -0.1617 -0.0302
29272ION     NA49552  13.941  13.630   9.230  0.1146 -0.2781  0.3505
29273ION     NA49553   1.784  10.368  12.733  0.1050  0.2820 -0.0212
29274ION     NA49554   7.993  12.400   4.979  0.0352  0.0216  0.2801
29275ION     NA49555   4.875   8.211   9.733 -0.1241 -0.0592  0.3814
29276ION     NA49556  15.514  16.090   9.050 -0.1696  0.1826 -0.1487
29277ION     NA49557  13.102  10.146   3.153  0.2596  0.1788 -0.0448
29278ION     NA49558  18.630   8.934   9.154  0.3007 -0.0336 -0.1300
29279ION     NA49559   6.447   6.597   9.347  0.0027 -0.1138  0.0662
29280ION     NA49560   8.630  11.412   4.984  0.2637  0.1597 -0.0242
29281ION     NA49561  17.269   3.440   4.321 -0.1524  0.1903  0.0558
29282ION     NA49562  16.570   6.080   4.467  0.1469  0.2065 -0.1941
29283ION     NA49563  12.408  11.102   9.777 -0.0314 -0.2199 -0.2289
29284ION     NA49564   2.107   9.511   9.383  0.0012 -0.1229  0.0396
29285ION     NA49565  10.295   1.950   4.419 -0.0377  0.1568 -0.1924
29286ION     NA49566  12.218   6.678   4.184 -0.1623  0.2761  0.0376
29287ION     NA49567   5.403  13.121  12.661 -0.4906 -0.0869  0.2064
29288ION     NA49568  16.877   9.363  13.788 -0.0772  0.1301  0.1374
29289ION     NA49569  19.863   1.189   3.448 -0.3812  0.2102  0.1032
29290ION     NA49570   1.661  15.414   4.424 -0.0914 -0.0172  0.0426
29291ION     NA49571   9.846  14.847  13.636  0.3100 -0.0506  0.0885
29292ION     NA49572  13.345  15.360   9.294  0.0405 -0.4806 -0.0856
29293ION     NA49573  17.286   9.062   3.802  0.1088 -0.0671 -0.4018
29294ION     NA49574  14.159  14.510   0.702 -0.0805  0.1291 -0.1324
29295ION     NA49575   8.077  17.125   4.632  0.3000  0.1377 -0.0745
29296ION     NA49576   1.623  19.412   1.544 -0.2927 -0.2059 -0.0637
29297ION     NA49577   8.756   3.576   3.471  0.1326  0.0462  0.0228
29298ION     NA49578   3.126   0.802   0.923  0.2435  0.1689  0.2382
29299ION     NA49579   0.041   8.829   4.170  0.0915 -0.0852 -0.2031
29300ION     NA49580  19.887  13.929   4.093  0.0127  0.0634  0.0840
29301ION     NA49581  18.746  15.864  12.738 -0.0902 -0.1687  0.0595
29302ION     NA49582  15.141  13.555  12.420 -0.0725 -0.0906  0.2835
29303ION     NA49583   1.279  17.917  11.108  0.0157 -0.2609 -0.2781
29304ION     NA49584   9.995   9.488   2.630  0.2139  0.2950 -0.0788
29305ION     NA49585  19.527   1.902  11.050  0.0328  0.2314  0.0263
29306ION     NA49586   3.126   8.040   9.398 -0.0131  0.0577  0.1613
29307ION     NA49587  10.695   8.887  10.134 -0.0320 -0.1389 -0.3367
29308ION     NA49588   4.132  16.333   4.511 -0.0788 -0.2190  0.2862
29309ION     NA49589  13.294   3.784   0.088 -0.0594 -0.0691 -0.2328
29310ION     NA49590   3.073   1.160  13.587  0.0225 -0.0051 -0.1594
29311ION     NA49591  19.475   9.253  13.252  0.1311  0.0766 -0.1796
29312ION     NA49592   2.417  10.110   0.451  0.0278  0.0987 -0.3098
29313ION     NA49593   4.236   6.606   4.674  0.2801 -0.0742 -0.0496
29314ION     NA49594   0.587   4.280  11.668  0.0578  0.1323  0.0488
29315ION     NA49595  13.611  17.399   9.351  0.0854  0.0491 -0.0033
29316ION     NA49596   7.534  19.496   0.909  0.2267  0.1420 -0.0142
29317ION     NA49597   0.696  10.140   9.138  0.1372  0.1763 -0.3935
29318ION     NA49598  18.753  18.647  10.459  0.0422  0.0148 -0.1060
29319ION     NA49599   1.374   6.351   9.229  0.2204  0.3110  0.1559
29320ION     NA49600  16.608   4.613   9.270 -0.1012 -0.0943 -0.0472
29321ION     NA49601  15.218   9.955   4.172 -0.0771 -0.0232  0.0770
29322ION     NA49602   1.095   3.847   9.552  0.1230  0.0397  0.1807
29323ION     NA49603  15.086   7.478   4.537 -0.1683  0.2646  0.3098
29324ION     NA49604   3.580   4.534   4.799 -0.2562  0.2934 -0.2244
29325ION     NA49605   5.016   6.005   2.331 -0.2195  0.0159  0.3522
29326ION     NA49606  13.975  15.545   4.394 -0.1229  0.0036 -0.2296
29327ION     NA49607  11.912  12.783   1.134  0.1466 -0.1816  0.0395
29328ION     NA49608  14.540  16.877  13.512 -0.0605 -0.3635 -0.2101
29329ION     NA49609  18.320   6.341   9.176 -0.3171 -0.0052 -0.0894
29330ION     NA49610   1.701   4.149   3.341 -0.0357 -0.1322 -0.0580
29331ION     NA49611   9.742   8.324   5.003  0.0170 -0.1761  0.1104
29332ION     NA49612  18.271  12.574  10.622 -0.0813 -0.2002  0.1672
29333ION     NA49613   6.537   9.921   9.701 -0.1350 -0.0871  0.1413
29334ION     NA49614  14.066  15.240   9.138 -0.1184 -0.2559  0.0548
29335ION     NA49615   6.798   2.693   1.518  0.0024 -0.0820  0.2557
29336ION     NA49616  19.094   6.143   2.201  0.2297  0.0720 -0.0724
29337ION     NA49617   7.184  16.712   4.879 -0.3552  0.0305 -0.2780
29338ION     NA49618   7.146   7.679   2.269 -0.2491  0.0467  0.1187
29339ION     NA49619  17.158   2.268  10.955  0.0826 -0.0320  0.1360
29340ION     NA49620   4.588   7.559   3.292 -0.0258 -0.1143 -0.0421
29341ION     NA49621  14.067   4.136   9.465 -0.0432  0.0161 -0.0268
29342ION     NA49622   1.745  18.866  10.055  0.0825 -0.0400  0.2014
29343ION     NA49623  14.255   8.466   1.859 -0.1950 -0.3209 -0.1892
29344ION     NA49624   3.693   0.085   4.931  0.3424  0.2419  0.0693
29345ION     NA49625   8.540   3.147   4.840  0.1026  0.2706 -0.0817
29346ION     NA49626   0.696   8.174   4.060  0.0334  0.1049  0.0045
29347ION     NA49627  19.895  19.065   4.609 -0.0843 -0.1474 -0.0387
29348ION     NA49628   1.223   8.584   9.389 -0.0723 -0.0317  0.1497
29349ION     NA49629   8.175   8.009   0.122 -0.1835  0.1789  0.0784
29350ION     NA49630  19.424   4.265   3.883  0.2117  0.0470  0.2028
29351ION     NA49631  11.401  12.370   4.789 -0.2588 -0.0781 -0.0484
29352ION     NA49632   6.473  10.045   3.747  0.2200 -0.0904  0.1498
29353ION     NA49633   6.568  17.783   0.597 -0.1448 -0.1432  0.1400
29354ION     NA49634   8.474   4.639   4.730 -0.0092  0.2187  0.0790
29355ION     NA49635   7.395   8.160   9.542  0.2246  0.0088  0.2712
29356ION     NA49636  14.634  19.219   1.045  0.1326  0.3379 -0.0089
29357ION     NA49637   8.813   1.114   9.442  0.1024 -0.0072  0.2686
29358ION     NA49638   1.376  14.544   4.490 -0.0433  0.0196 -0.0878
29359ION     NA49639  12.803  16.305   4.288  0.0982  0.0428  0.1785
29360ION     NA49640   5.655  18.391   0.731 -0.0065  0.1339 -0.1025
29361ION     NA49641  11.221   0.315  13.647 -0.0404 -0.2104 -0.0868
29362ION     NA49642  17.802   2.797   9.212 -0.0568 -0.0415  0.4148
29363ION     NA49643   7.436  10.923   5.278  0.2640 -0.1924 -0.3786
29364ION     NA49644  16.609  18.010   9.540 -0.1134  0.1607 -0.3369
29365ION     NA49645   8.579  11.077  13.112  0.0284 -0.1677  0.0682
29366ION     NA49646   6.623   2.397   9.665 -0.1164  0.1956  0.2269
29367ION     NA49647  14.078  12.535  10.117 -0.1865 -0.0903 -0.3650
29368ION     NA49648   5.731   8.094  12.388  0.2511  0.3017 -0.2888
29369ION     NA49649  16.279  14.960   4.299  0.2150  0.0928  0.1960
29370ION     NA49650   6.713   5.255   9.281  0.1850  0.1586  0.0333
29371ION     NA49651  11.968  15.300   9.198 -0.2181  0.2469 -0.1705
29372ION     NA49652   9.279  11.662   9.673  0.2339 -0.1609 -0.2795
29373ION     NA49653   4.916   0.289  12.290 -0.0286 -0.0205  0.0968
29374ION     NA49654   3.786   2.924   9.584  0.0964 -0.0328  0.1473
29375ION     NA49655  11.108  14.877   9.255  0.2558 -0.1239  0.1442
29376ION     NA49656  14.927  12.502   1.269 -0.0103 -0.1682  0.2857
29377ION     NA49657  11.244  19.706   9.564  0.0089 -0.2026 -0.0512
29378ION     NA49658  15.940   8.052   8.751 -0.1683 -0.0696 -0.2892
29379ION     NA49659   6.935   3.491  12.899 -0.0695 -0.0744 -0.4206
29380ION     NA49660   9.884  12.350  10.547  0.0875 -0.2174 -0.1956
29381ION     NA49661  16.103   2.578  13.570  0.0246 -0.1136 -0.2078
29382ION     NA49662   4.903  10.500   4.912  0.2209  0.1834 -0.0416
29383ION     NA49663   6.384   7.314   4.693 -0.3913  0.0974  0.0221
29384ION     NA49664   3.318  16.002  13.651  0.0076  0.0970  0.2973
29385ION     NA49665   2.771  17.583   4.928 -0.1165  0.2768 -0.2246
29386ION     NA49666  12.718   2.881   3.324 -0.0515  0.0755  0.0715
29387ION     NA49667   2.427   3.833   4.919 -0.0531  0.1083  0.2186
29388ION     NA49668   6.197  16.954  10.014  0.0457 -0.1962  0.2144
29389ION     NA49669  15.570  12.925   3.601  0.1993 -0.0231  0.0105
29390ION     NA49670  15.415  13.621   4.186  0.3239 -0.0041  0.3292
29391ION     NA49671  15.693   3.171   8.975  0.2011  0.0661 -0.0696
29392ION     NA49672  16.865   8.292   8.965 -0.0400 -0.1083  0.0285
29393ION     NA49673  18.868  13.169   8.892 -0.1857  0.0178  0.1496
29394ION     NA49674  12.214  18.984   4.397 -0.2389  0.0677 -0.1813
29395ION     NA49675   2.995  15.766   4.817  0.0325  0.2420 -0.0446
  19.95752  19.95752  13.86223
